Title
82277
    1SAPS     N    1   3.261   6.585  10.960  0.5159 -0.0535  0.1501
    1SAPS   HN1    2   3.248   6.688  10.948 -2.5157 -0.2126  1.3052
    1SAPS   HN2    3   3.260   6.549  10.863 -2.5548 -0.1506  0.1206
    1SAPS   HN3    4   3.174   6.554  11.007  0.2290  1.8607  1.0022
    1SAPS   C12    5   3.379   6.546  11.034  0.2124 -0.1186  0.1852
    1SAPS  H12A    6   3.460   6.599  10.986 -0.3946 -2.0852 -3.3636
    1SAPS   C13    7   3.396   6.570  11.185 -0.2375  0.9885 -0.1391
    1SAPS  O13A    8   3.307   6.644  11.237  0.4232 -0.4589  0.1309
    1SAPS  O13B    9   3.486   6.515  11.257 -0.4098 -0.0639  0.5158
    1SAPS   C11   10   3.410   6.398  11.009 -0.4258  0.1696  0.1506
    1SAPS  H11A   11   3.345   6.337  11.076 -1.4732  1.5813  0.4694
    1SAPS  H11B   12   3.512   6.364  11.037 -0.7150 -0.1506  0.8547
    1SAPS     P   13   3.409   6.222  10.806  0.0894 -0.4607  0.0278
    1SAPS   O13   14   3.528   6.158  10.864 -0.1782 -0.2524  0.1138
    1SAPS   O14   15   3.280   6.144  10.808 -1.1167  0.4811  0.4741
    1SAPS   O12   16   3.382   6.360  10.872 -0.0873  0.4392 -0.2286
    1SAPS   O11   17   3.434   6.261  10.652 -0.1978  0.4702  0.0932
    1SAPS    C1   18   3.391   6.380  10.597 -0.4593 -0.6298  1.3163
    1SAPS    HA   19   3.284   6.364  10.572 -0.6256 -0.8056  2.1072
    1SAPS    HB   20   3.398   6.469  10.663  1.8487 -0.0593  0.3984
    1SAPS    C2   21   3.457   6.434  10.458 -0.3627  0.2283  0.1723
    1SAPS    HS   22   3.386   6.515  10.432 -1.1229 -0.0738  1.2594
    1SAPS   O21   23   3.472   6.325  10.360 -1.0361  0.4793 -0.1508
    1SAPS   C21   24   3.355   6.279  10.316  0.2257  0.5552  0.1606
    1SAPS   O22   25   3.246   6.321  10.346 -0.1397  0.7601 -0.2563
    1SAPS   C22   26   3.371   6.158  10.231  0.1625  1.3390 -0.2737
    1SAPS   H2R   27   3.473   6.158  10.188  0.0790  3.2480 -0.5502
    1SAPS   H2S   28   3.363   6.075  10.305 -1.3080  2.7131  1.2124
    1SAPS    C3   29   3.597   6.504  10.499 -0.1150  0.3700 -0.8779
    1SAPS    HX   30   3.633   6.443  10.584  0.3277  1.2068 -0.4549
    1SAPS    HY   31   3.580   6.604  10.545  2.0631 -0.1939  1.3386
    1SAPS   O31   32   3.690   6.512  10.393  0.1440 -0.0162  0.5502
    1SAPS   C31   33   3.764   6.412  10.359 -0.7305 -0.6404  0.1861
    1SAPS   O32   34   3.784   6.307  10.420  0.5351 -0.1247 -0.2027
    1SAPS   C32   35   3.818   6.437  10.217 -0.7146 -1.1958 -0.2096
    1SAPS   H2X   36   3.907   6.373  10.201 -0.1653 -0.5184  0.0791
    1SAPS   H2Y   37   3.854   6.541  10.238 -2.7672 -1.0245  3.4160
    1SAPS   C23   38   3.272   6.149  10.117  0.1502 -0.1403  0.2145
    1SAPS   H3R   39   3.167   6.152  10.154  0.2810 -2.0760  0.8317
    1SAPS   H3S   40   3.280   6.050  10.068 -1.0219 -0.4151  0.5481
    1SAPS   C24   41   3.299   6.260  10.018 -0.7429  0.1502  0.6280
    1SAPS   H4R   42   3.403   6.248   9.980 -1.0258  0.1351 -0.1622
    1SAPS   H4S   43   3.305   6.357  10.071 -0.3408 -0.1759  1.1905
    1SAPS   C25   44   3.205   6.269   9.902 -0.1307  0.4543  0.4514
    1SAPS   H5R   45   3.111   6.312   9.939 -0.0103 -0.1216  1.4571
    1SAPS   C26   46   3.217   6.223   9.777  0.0703  1.5859 -0.6725
    1SAPS   H6R   47   3.129   6.214   9.712  0.1459 -0.1909 -0.5996
    1SAPS   C27   48   3.335   6.139   9.724 -0.6683 -0.3023 -0.5113
    1SAPS   H7R   49   3.310   6.033   9.702  0.2394 -1.2861  2.6965
    1SAPS   H7S   50   3.409   6.121   9.805 -1.1050 -1.8525 -0.4177
    1SAPS   C28   51   3.394   6.216   9.606 -0.4133 -1.1367  0.0841
    1SAPS   H8R   52   3.438   6.313   9.631 -0.9080 -0.7564 -0.5082
    1SAPS   C29   53   3.408   6.188   9.476 -0.5979 -0.0772  0.1872
    1SAPS   H9R   54   3.435   6.268   9.406  0.6561 -1.1270 -0.5593
    1SAPS  C210   55   3.347   6.060   9.413  0.6280 -0.2477 -0.7602
    1SAPS  H10R   56   3.292   6.004   9.491  2.0740  0.0607  0.5390
    1SAPS  H10S   57   3.433   5.996   9.383  1.0894 -0.6564  1.2719
    1SAPS  C211   58   3.254   6.092   9.301 -0.1697 -0.2592  0.1452
    1SAPS  H11R   59   3.156   6.125   9.337  0.9737  0.8436  2.4885
    1SAPS  C212   60   3.277   6.053   9.172 -0.2642 -0.8957 -0.1772
    1SAPS  H12R   61   3.224   6.100   9.087 -0.1133 -0.2315  0.0940
    1SAPS  C213   62   3.400   5.985   9.124  0.3089  0.2032  0.0612
    1SAPS  H13R   63   3.492   6.025   9.171  0.7439 -1.0683  0.3217
    1SAPS  H13S   64   3.419   6.005   9.017  0.0106 -1.0419 -0.2403
    1SAPS  C214   65   3.408   5.838   9.140 -0.6849  0.3504  0.4162
    1SAPS  H14R   66   3.359   5.787   9.225 -2.6805 -2.6334 -2.3103
    1SAPS  C215   67   3.469   5.751   9.054  0.1913 -0.7342 -0.6317
    1SAPS  H15R   68   3.476   5.646   9.084  1.0405 -0.2582  0.9852
    1SAPS  C216   69   3.556   5.792   8.931  0.1261 -0.5966 -0.8358
    1SAPS  H16R   70   3.657   5.747   8.934  0.4899  0.2344  1.6935
    1SAPS  H16S   71   3.566   5.902   8.936  0.8891 -0.6877  2.5640
    1SAPS  C217   72   3.486   5.739   8.802 -0.3650 -0.5086  0.2593
    1SAPS  H17R   73   3.385   5.786   8.805  0.4584  1.2880  1.1754
    1SAPS  H17S   74   3.471   5.629   8.815  0.4693 -0.7089 -0.3975
    1SAPS  C218   75   3.570   5.771   8.677 -0.4695  0.0558  0.0658
    1SAPS  H18R   76   3.669   5.722   8.691  0.1847  1.5962  1.1105
    1SAPS  H18S   77   3.589   5.877   8.652  1.6552 -0.7898 -2.3744
    1SAPS  C219   78   3.521   5.710   8.548  0.6599 -0.0946  0.1179
    1SAPS  H19R   79   3.415   5.730   8.524 -0.3192 -3.2487  1.2849
    1SAPS  H19S   80   3.532   5.600   8.556  1.9865 -0.1360 -1.5846
    1SAPS  C220   81   3.611   5.758   8.430 -0.7725  0.4724 -0.4749
    1SAPS  H20R   82   3.563   5.730   8.334  0.1777  1.0088 -1.1245
    1SAPS  H20S   83   3.712   5.712   8.434 -1.4917 -1.3034 -1.7736
    1SAPS  H20T   84   3.604   5.869   8.436 -4.8165  0.3923 -0.7902
    1SAPS   C33   85   3.704   6.425  10.114 -0.2377  0.2967  0.2149
    1SAPS   H3X   86   3.613   6.475  10.152 -0.0900  1.2808 -0.6695
    1SAPS   H3Y   87   3.692   6.316  10.094  0.4814  0.3924 -0.8859
    1SAPS   C34   88   3.751   6.494   9.987  0.4591  0.4668 -0.0302
    1SAPS   H4X   89   3.815   6.424   9.929 -1.5633 -0.4183 -1.2939
    1SAPS   H4Y   90   3.805   6.587  10.014  2.7404 -1.2598  1.8425
    1SAPS   C35   91   3.633   6.525   9.899 -0.4667 -0.3520 -0.1318
    1SAPS   H5X   92   3.569   6.596   9.955  1.0011  3.0431 -2.3920
    1SAPS   H5Y   93   3.571   6.434   9.885 -1.1686  0.0274  0.4672
    1SAPS   C36   94   3.671   6.596   9.771 -0.0481  0.4230 -0.0753
    1SAPS   H6X   95   3.768   6.553   9.737  0.5355  2.2145 -0.8090
    1SAPS   H6Y   96   3.698   6.704   9.776  4.5883 -0.3814 -1.9822
    1SAPS   C37   97   3.571   6.587   9.657 -0.2833  0.0692  0.6342
    1SAPS   H7X   98   3.477   6.636   9.689 -0.2469 -0.3264  1.3633
    1SAPS   H7Y   99   3.554   6.479   9.638  0.9827 -0.2496  1.2147
    1SAPS   C38  100   3.619   6.638   9.518 -0.0644  0.0666 -0.6419
    1SAPS   H8X  101   3.725   6.607   9.504  0.1310  0.6299 -0.4091
    1SAPS   H8Y  102   3.620   6.749   9.523 -0.9778  0.0636 -0.2594
    1SAPS   C39  103   3.530   6.591   9.401 -0.7644 -0.5071 -0.3141
    1SAPS   H9X  104   3.435   6.649   9.413 -0.3831 -0.1167  0.9798
    1SAPS   H9Y  105   3.516   6.482   9.417 -1.7926 -0.3618 -0.1533
    1SAPS  C310  106   3.590   6.650   9.277  0.3048 -0.7106 -0.0092
    1SAPS  H10X  107   3.697   6.623   9.289  0.0965 -0.8758  1.6406
    1SAPS  H10Y  108   3.583   6.760   9.273  1.5514 -0.6227 -0.1957
    1SAPS  C311  109   3.529   6.583   9.153  0.1618 -0.1881 -0.3902
    1SAPS  H11X  110   3.424   6.615   9.145  0.5337  1.0933 -0.2847
    1SAPS  H11Y  111   3.549   6.474   9.165  0.3787 -0.3750 -2.1616
    1SAPS  C312  112   3.607   6.628   9.026  0.6725 -0.7269  0.2802
    1SAPS  H12X  113   3.575   6.549   8.955 -1.2459 -1.6597  2.0494
    1SAPS  H12Y  114   3.714   6.634   9.057 -0.2245  0.9738  3.5431
    1SAPS  C313  115   3.568   6.764   8.982  0.6406 -0.0014 -0.3914
    1SAPS  H13X  116   3.655   6.806   8.928  2.1458 -2.8441 -0.3566
    1SAPS  H13Y  117   3.537   6.824   9.071  3.3142  0.1816  0.4938
    1SAPS  C314  118   3.442   6.764   8.883 -0.5120 -0.0755  1.0640
    1SAPS  H14X  119   3.395   6.865   8.889 -2.1493 -0.3950 -2.8550
    1SAPS  H14Y  120   3.371   6.690   8.924 -0.8807 -0.8995 -0.9307
    1SAPS  C315  121   3.486   6.742   8.738  0.0522 -0.7039  0.1025
    1SAPS  H15X  122   3.525   6.639   8.719 -0.9367 -1.1242  0.3222
    1SAPS  H15Y  123   3.570   6.812   8.719  1.7859 -2.2060  1.7514
    1SAPS  C316  124   3.387   6.752   8.621 -0.1305  0.4991  0.2671
    1SAPS  H16X  125   3.290   6.702   8.639  1.4424 -2.2813  1.6727
    1SAPS  H16Y  126   3.431   6.711   8.527 -0.5688 -1.2342  0.7729
    1SAPS  C317  127   3.344   6.893   8.606 -0.2456 -0.5049 -0.1536
    1SAPS  H17X  128   3.318   6.945   8.701 -0.8783 -0.4160 -0.3695
    1SAPS  H17Y  129   3.251   6.885   8.546  0.1010 -2.1286 -0.5338
    1SAPS  C318  130   3.437   6.982   8.518 -0.0677 -0.5157 -0.1443
    1SAPS  H18X  131   3.409   7.088   8.537  0.2429 -0.5944  0.8298
    1SAPS  H18Y  132   3.421   6.965   8.410  0.9269  0.2130 -0.4294
    1SAPS  H18Z  133   3.546   6.963   8.534 -0.1237 -2.3383 -1.5960
    2SAPS     N  134   2.850   6.464  10.729  0.8735 -0.5323 -0.4156
    2SAPS   HN1  135   2.852   6.564  10.758  1.5364 -0.6312 -0.0946
    2SAPS   HN2  136   2.922   6.416  10.787 -0.4581 -0.8499  1.0350
    2SAPS   HN3  137   2.875   6.456  10.629 -0.8534  2.4304 -1.2018
    2SAPS   C12  138   2.711   6.415  10.769  0.2581  1.5712  0.6361
    2SAPS  H12A  139   2.666   6.401  10.672  1.0253  2.3212  0.1555
    2SAPS   C13  140   2.709   6.283  10.849 -0.1216 -0.4157  0.0715
    2SAPS  O13A  141   2.811   6.203  10.852  0.1936 -0.6189  0.9101
    2SAPS  O13B  142   2.597   6.233  10.879  0.3677  0.2252  0.2833
    2SAPS   C11  143   2.639   6.520  10.856  1.1020 -0.3886  0.6252
    2SAPS  H11A  144   2.697   6.547  10.947 -0.6344  1.7813  1.1950
    2SAPS  H11B  145   2.542   6.484  10.897 -0.0612  1.1841 -0.6192
    2SAPS     P  146   2.520   6.665  10.663  0.5324 -0.2681  0.3922
    2SAPS   O13  147   2.381   6.615  10.690 -0.6468  0.6209 -0.5685
    2SAPS   O14  148   2.529   6.810  10.635  0.4743 -0.7683  0.2768
    2SAPS   O12  149   2.614   6.640  10.787  0.2735 -0.5011 -0.9352
    2SAPS   O11  150   2.588   6.580  10.552 -0.7721  0.3785  0.4944
    2SAPS    C1  151   2.674   6.629  10.454  0.0347 -0.5484  0.0572
    2SAPS    HA  152   2.657   6.738  10.444 -0.8536 -0.5235  1.5150
    2SAPS    HB  153   2.777   6.616  10.494 -0.2886 -3.9913  0.0246
    2SAPS    C2  154   2.662   6.559  10.315  0.3496  0.4419  0.4521
    2SAPS    HS  155   2.761   6.573  10.267  0.5666  2.3090  1.3520
    2SAPS   O21  156   2.544   6.609  10.240 -0.0166 -0.2967 -0.1961
    2SAPS   C21  157   2.582   6.715  10.176  0.2031 -0.5774 -0.0372
    2SAPS   O22  158   2.696   6.758  10.170 -0.0698  0.0426  0.1503
    2SAPS   C22  159   2.461   6.760  10.093  0.0223  0.0299  0.5199
    2SAPS   H2R  160   2.368   6.731  10.146 -2.0067  0.0071 -2.7672
    2SAPS   H2S  161   2.482   6.868  10.075  3.4159 -0.6230 -0.2092
    2SAPS    C3  162   2.639   6.403  10.337  0.4904 -0.6002  0.5913
    2SAPS    HX  163   2.531   6.375  10.337  0.0664  0.8864  1.7980
    2SAPS    HY  164   2.671   6.388  10.443  0.3630 -1.6823  0.4881
    2SAPS   O31  165   2.721   6.329  10.240 -0.1029  0.2917 -0.5032
    2SAPS   C31  166   2.660   6.299  10.123 -0.2865 -0.2545  0.8607
    2SAPS   O32  167   2.549   6.339  10.098  0.2107  0.2480 -0.0352
    2SAPS   C32  168   2.751   6.205  10.054 -0.2427 -0.1685 -0.5007
    2SAPS   H2X  169   2.696   6.112  10.029 -1.5149  0.6653 -0.8756
    2SAPS   H2Y  170   2.835   6.174  10.121  0.7464 -1.7410 -2.3686
    2SAPS   C23  171   2.459   6.688   9.956 -0.4701  0.7872  0.4062
    2SAPS   H3R  172   2.442   6.578   9.963  0.1814  0.7293  1.3791
    2SAPS   H3S  173   2.560   6.692   9.909 -1.4899  0.5667 -1.9074
    2SAPS   C24  174   2.349   6.736   9.858 -0.8856 -0.5662  0.4324
    2SAPS   H4R  175   2.251   6.729   9.910 -0.9604  1.3389  0.6265
    2SAPS   H4S  176   2.343   6.678   9.763  1.1358  1.0024 -0.7318
    2SAPS   C25  177   2.364   6.882   9.808 -0.3013  0.7843 -0.7208
    2SAPS   H5R  178   2.407   6.948   9.885 -1.2491 -2.3566  2.7860
    2SAPS   C26  179   2.319   6.936   9.688 -0.1953  0.1890 -0.4783
    2SAPS   H6R  180   2.328   7.044   9.674 -0.0456  0.2317 -0.0587
    2SAPS   C27  181   2.247   6.874   9.570  0.0337  0.1014 -0.1578
    2SAPS   H7R  182   2.218   6.767   9.583 -0.7549  0.3129 -0.1429
    2SAPS   H7S  183   2.316   6.876   9.483  0.3435 -0.9960  0.0493
    2SAPS   C28  184   2.117   6.936   9.530  0.1735 -0.8045  0.9755
    2SAPS   H8R  185   2.067   6.996   9.608 -0.0460  2.7035 -1.6513
    2SAPS   C29  186   2.063   6.944   9.403 -0.0562  0.1048 -0.1656
    2SAPS   H9R  187   1.971   6.998   9.376 -0.8546 -2.0578 -2.1148
    2SAPS  C210  188   2.132   6.882   9.282  0.4530  0.2834  0.1160
    2SAPS  H10R  189   2.056   6.811   9.243 -0.7275  0.7708  1.4032
    2SAPS  H10S  190   2.220   6.827   9.320  0.0794  0.6695  1.6163
    2SAPS  C211  191   2.168   6.976   9.171  0.2338  0.7935 -0.0014
    2SAPS  H11R  192   2.275   7.004   9.164  0.1838  0.5892 -2.6212
    2SAPS  C212  193   2.089   7.030   9.088 -0.3230 -0.7306  0.2130
    2SAPS  H12R  194   2.139   7.090   9.011 -0.5042  1.2536  1.5574
    2SAPS  C213  195   1.941   7.003   9.076  0.0316 -0.2049 -0.3180
    2SAPS  H13R  196   1.903   6.959   9.171 -0.7467  1.2782  0.0821
    2SAPS  H13S  197   1.918   6.926   8.999 -0.8765  1.3243 -1.6243
    2SAPS  C214  198   1.869   7.138   9.073 -0.1376  0.0665 -0.1573
    2SAPS  H14R  199   1.928   7.226   9.042  0.6968 -0.4556 -0.0933
    2SAPS  C215  200   1.736   7.156   9.088 -0.3241  0.1097  0.0514
    2SAPS  H15R  201   1.697   7.258   9.088 -0.3833  0.1130 -1.4813
    2SAPS  C216  202   1.630   7.049   9.118 -0.3102  0.2531 -0.0916
    2SAPS  H16R  203   1.670   6.968   9.183  1.2475  1.9433  1.1654
    2SAPS  H16S  204   1.601   7.003   9.021  0.9490 -0.9928  0.0781
    2SAPS  C217  205   1.506   7.101   9.197  0.2077 -0.1731  0.0208
    2SAPS  H17R  206   1.421   7.030   9.188  0.7014 -0.5797 -1.9445
    2SAPS  H17S  207   1.473   7.197   9.153  0.3582 -0.6040 -1.0574
    2SAPS  C218  208   1.532   7.096   9.350 -0.0488  0.8592  0.4152
    2SAPS  H18R  209   1.624   7.155   9.369 -1.2743  2.0272  3.2092
    2SAPS  H18S  210   1.563   6.996   9.386  0.4422  0.5864 -0.7124
    2SAPS  C219  211   1.412   7.147   9.429 -0.1965 -0.7876 -0.1980
    2SAPS  H19R  212   1.323   7.080   9.422 -1.0471 -0.4930  4.5982
    2SAPS  H19S  213   1.380   7.253   9.422 -0.7189 -0.8019  1.4817
    2SAPS  C220  214   1.455   7.145   9.576  0.0873 -0.6681 -0.0608
    2SAPS  H20R  215   1.541   7.212   9.595 -0.7385  0.2684  0.4194
    2SAPS  H20S  216   1.479   7.043   9.614 -1.0867 -1.3200 -0.9999
    2SAPS  H20T  217   1.375   7.189   9.639  0.7214 -1.3243  1.2460
    2SAPS   C33  218   2.798   6.257   9.914 -0.7030 -0.4625  0.5793
    2SAPS   H3X  219   2.855   6.186   9.850  1.6525  3.2471 -1.8094
    2SAPS   H3Y  220   2.859   6.348   9.931  0.6428 -1.0367 -0.9456
    2SAPS   C34  221   2.696   6.307   9.808  0.6169  0.4041 -0.0001
    2SAPS   H4X  222   2.629   6.388   9.844 -0.9718  0.0822 -2.0061
    2SAPS   H4Y  223   2.633   6.219   9.782 -0.2607  1.6007 -2.2563
    2SAPS   C35  224   2.764   6.372   9.688 -0.3003  0.1192 -0.4900
    2SAPS   H5X  225   2.841   6.301   9.651 -1.2846 -1.1590 -0.1346
    2SAPS   H5Y  226   2.821   6.466   9.707 -0.1593  0.6525 -3.0694
    2SAPS   C36  227   2.660   6.401   9.574 -0.3622 -0.4018 -0.0647
    2SAPS   H6X  228   2.604   6.306   9.560 -0.3987 -0.5963  1.3013
    2SAPS   H6Y  229   2.721   6.422   9.484 -0.9034  0.8721 -0.1531
    2SAPS   C37  230   2.574   6.521   9.593 -0.3082  0.0212 -0.5224
    2SAPS   H7X  231   2.642   6.600   9.631  0.7122 -0.7251 -0.7565
    2SAPS   H7Y  232   2.513   6.509   9.685 -2.6820  3.5543 -1.4136
    2SAPS   C38  233   2.506   6.547   9.460  0.0321  0.1561 -0.0018
    2SAPS   H8X  234   2.425   6.620   9.479 -0.3642  0.5958 -2.9753
    2SAPS   H8Y  235   2.450   6.457   9.427 -1.8366  0.4296  2.1812
    2SAPS   C39  236   2.588   6.607   9.349 -0.1185  0.2060 -0.1673
    2SAPS   H9X  237   2.653   6.527   9.308  0.2573 -0.3919  1.4851
    2SAPS   H9Y  238   2.653   6.690   9.385  1.0628 -0.0556 -1.6203
    2SAPS  C310  239   2.511   6.663   9.227 -0.3923 -0.3861  0.0082
    2SAPS  H10X  240   2.462   6.755   9.267 -0.1044  0.1710 -0.8809
    2SAPS  H10Y  241   2.433   6.597   9.185 -1.5608  1.8397 -1.5238
    2SAPS  C311  242   2.602   6.715   9.109 -0.2952 -0.1289 -0.3225
    2SAPS  H11X  243   2.659   6.631   9.064 -1.6425 -1.4884  0.4241
    2SAPS  H11Y  244   2.663   6.793   9.160 -2.2629  0.9781  0.4688
    2SAPS  C312  245   2.525   6.788   9.000  0.2256 -0.2084  0.2737
    2SAPS  H12X  246   2.469   6.877   9.037  1.5501  1.2428 -1.0233
    2SAPS  H12Y  247   2.458   6.717   8.949  0.6807  0.8158 -1.8765
    2SAPS  C313  248   2.614   6.854   8.889 -0.4716  0.4062 -0.5851
    2SAPS  H13X  249   2.691   6.781   8.856  0.3958  0.7262  0.6593
    2SAPS  H13Y  250   2.649   6.948   8.937  0.4358 -1.2220  2.1919
    2SAPS  C314  251   2.529   6.890   8.769  0.5692 -0.1803 -0.0407
    2SAPS  H14X  252   2.424   6.911   8.798  0.2954  1.1460 -1.8502
    2SAPS  H14Y  253   2.521   6.796   8.710  0.7520 -0.4219  0.3131
    2SAPS  C315  254   2.589   6.999   8.679  0.1165 -0.1220  0.7127
    2SAPS  H15X  255   2.694   6.970   8.658  0.9166  1.5728  2.1471
    2SAPS  H15Y  256   2.617   7.090   8.736  1.0118  0.3138 -0.3657
    2SAPS  C316  257   2.513   7.033   8.553  0.1692 -0.6214  0.6144
    2SAPS  H16X  258   2.581   7.098   8.494 -1.6862  0.2979 -0.5733
    2SAPS  H16Y  259   2.420   7.084   8.583 -0.4149  0.0464 -2.0841
    2SAPS  C317  260   2.467   6.911   8.461 -0.0444  0.1422  0.4318
    2SAPS  H17X  261   2.386   6.857   8.514  2.5782 -1.3981  3.2143
    2SAPS  H17Y  262   2.557   6.847   8.447 -0.0525 -0.2090  1.8482
    2SAPS  C318  263   2.428   6.963   8.325 -0.0940 -0.5418 -0.0695
    2SAPS  H18X  264   2.361   6.898   8.266  1.2686 -1.4325 -0.6690
    2SAPS  H18Y  265   2.520   6.981   8.265 -1.2803 -1.2154 -2.1571
    2SAPS  H18Z  266   2.381   7.063   8.337  0.5383 -0.2918  0.4276
    3SAPS     N  267   1.827   0.447  10.895  0.1703  0.7945 -0.0917
    3SAPS   HN1  268   1.725   0.451  10.917 -0.1322 -1.5550 -0.7777
    3SAPS   HN2  269   1.847   0.505  10.812  0.7262  1.5632  0.5640
    3SAPS   HN3  270   1.871   0.353  10.885  1.6005  1.6060 -1.9455
    3SAPS   C12  271   1.892   0.525  11.004 -0.7376  0.0162  0.6278
    3SAPS  H12A  272   1.834   0.616  11.014  1.4037  1.3698  1.3686
    3SAPS   C13  273   1.908   0.457  11.136 -0.5091  0.1768 -0.3946
    3SAPS  O13A  274   1.940   0.331  11.142 -0.1772 -0.1485  0.0967
    3SAPS  O13B  275   1.909   0.526  11.242  0.5059  0.2141  0.4539
    3SAPS   C11  276   2.036   0.579  10.958  0.5455  0.1659  0.2451
    3SAPS  H11A  277   2.095   0.484  10.953 -1.5019 -1.3182  2.1886
    3SAPS  H11B  278   2.079   0.645  11.036 -2.0564 -0.4172  2.2790
    3SAPS     P  279   2.148   0.738  10.783  0.3165 -0.3530  0.1520
    3SAPS   O13  280   2.117   0.870  10.838  0.7495  0.0117  0.2541
    3SAPS   O14  281   2.271   0.676  10.831  0.4654  0.3947  0.2192
    3SAPS   O12  282   2.031   0.645  10.827 -0.1182 -0.5147 -0.4297
    3SAPS   O11  283   2.134   0.734  10.624 -0.0947  0.3196  0.4121
    3SAPS    C1  284   2.087   0.617  10.550 -0.4836 -0.1616 -0.0197
    3SAPS    HA  285   2.150   0.528  10.571  1.1208  1.1453  0.9177
    3SAPS    HB  286   1.979   0.599  10.573 -0.0697 -0.8292  1.4951
    3SAPS    C2  287   2.104   0.640  10.398  0.0683 -0.2482 -0.5634
    3SAPS    HS  288   2.101   0.537  10.356 -0.8923 -1.2914  1.8692
    3SAPS   O21  289   2.223   0.713  10.367  0.2216 -0.1789 -0.3325
    3SAPS   C21  290   2.329   0.648  10.352 -0.5002 -0.2499  0.2428
    3SAPS   O22  291   2.338   0.526  10.350 -0.2787 -0.2671  0.7086
    3SAPS   C22  292   2.448   0.744  10.326  0.0213  0.4990  0.1513
    3SAPS   H2R  293   2.411   0.848  10.330  1.7080  1.1541 -0.6918
    3SAPS   H2S  294   2.508   0.736  10.420 -1.2649  2.3850  1.1974
    3SAPS    C3  295   1.972   0.701  10.343 -0.1493  0.3778  0.8354
    3SAPS    HX  296   1.936   0.797  10.387 -1.6731  0.1463  0.1451
    3SAPS    HY  297   1.887   0.630  10.357 -0.6249  0.5262 -1.0932
    3SAPS   O31  298   1.973   0.708  10.198 -0.2321 -0.4750  0.2880
    3SAPS   C31  299   2.037   0.816  10.156  0.2013  0.1358 -0.0538
    3SAPS   O32  300   2.103   0.898  10.221  0.1426  0.5052 -0.3696
    3SAPS   C32  301   2.021   0.823  10.006  0.3017  0.3874 -0.1121
    3SAPS   H2X  302   1.946   0.903   9.987  0.2475  0.3210 -0.1760
    3SAPS   H2Y  303   1.983   0.726   9.969 -0.1713  0.8365 -0.8321
    3SAPS   C23  304   2.532   0.703  10.201 -0.2886 -0.2443 -0.0036
    3SAPS   H3R  305   2.477   0.742  10.113 -0.7010 -0.7677  0.0154
    3SAPS   H3S  306   2.529   0.593  10.189  1.4599 -0.4426  1.0131
    3SAPS   C24  307   2.679   0.742  10.215 -0.5417 -0.0338 -0.5466
    3SAPS   H4R  308   2.737   0.692  10.133  0.6573  2.0722 -1.0523
    3SAPS   H4S  309   2.716   0.708  10.314 -2.5906  0.1582  0.3247
    3SAPS   C25  310   2.697   0.893  10.216 -0.5261 -0.1948 -0.6037
    3SAPS   H5R  311   2.702   0.949  10.310  0.2177  0.8490 -1.2372
    3SAPS   C26  312   2.713   0.980  10.109  0.3683  0.3521  0.0499
    3SAPS   H6R  313   2.723   1.086  10.134 -0.2284  0.5520 -0.5243
    3SAPS   C27  314   2.719   0.942   9.963  0.1643  0.4491 -0.2786
    3SAPS   H7R  315   2.696   0.833   9.961 -1.4281  0.7548 -0.2139
    3SAPS   H7S  316   2.820   0.957   9.920  0.1231  0.2260 -0.4570
    3SAPS   C28  317   2.610   1.015   9.888 -0.3585  0.6271 -0.0226
    3SAPS   H8R  318   2.516   1.025   9.945  0.6970  0.0807  1.9239
    3SAPS   C29  319   2.614   1.046   9.756 -0.0230  0.3473  0.4939
    3SAPS   H9R  320   2.532   1.090   9.697  1.0572  0.7260 -0.7596
    3SAPS  C210  321   2.738   1.026   9.669 -0.2399 -0.4543  0.1462
    3SAPS  H10R  322   2.702   0.960   9.586  2.5310 -0.8206 -0.8721
    3SAPS  H10S  323   2.821   0.976   9.723  0.3395 -0.7248 -0.9593
    3SAPS  C211  324   2.796   1.157   9.620  0.3254 -1.1575  0.1632
    3SAPS  H11R  325   2.804   1.233   9.700 -3.3375  0.8592 -1.1342
    3SAPS  C212  326   2.821   1.202   9.495  0.7363  0.4339 -0.3155
    3SAPS  H12R  327   2.866   1.302   9.485 -0.7535  1.1394 -0.3113
    3SAPS  C213  328   2.803   1.120   9.372  1.1120 -0.3993  0.9529
    3SAPS  H13R  329   2.777   1.189   9.289  0.9045  1.9714  2.8932
    3SAPS  H13S  330   2.716   1.052   9.389  2.1564 -1.8754  0.5960
    3SAPS  C214  331   2.923   1.031   9.340 -0.0236 -0.0568 -0.2022
    3SAPS  H14R  332   2.962   0.975   9.426  0.1912  0.4999  0.0638
    3SAPS  C215  333   2.979   1.011   9.217  0.0466  0.2476  0.6766
    3SAPS  H15R  334   3.063   0.944   9.195  0.3646  0.1737  2.0392
    3SAPS  C216  335   2.937   1.080   9.093  0.2434  0.3044 -0.4126
    3SAPS  H16R  336   3.030   1.124   9.051  0.6095  1.2517  1.3064
    3SAPS  H16S  337   2.858   1.155   9.116  1.2207  1.5205 -0.8777
    3SAPS  C217  338   2.869   0.983   8.987  0.4177 -0.5311  0.3399
    3SAPS  H17R  339   2.858   1.039   8.892 -1.6749  1.1814  1.4987
    3SAPS  H17S  340   2.767   0.955   9.022  0.5644 -1.1594  0.2806
    3SAPS  C218  341   2.941   0.846   8.970 -0.4971 -0.9005  0.8007
    3SAPS  H18R  342   2.879   0.795   8.894 -0.9774 -0.1251  0.6649
    3SAPS  H18S  343   2.928   0.787   9.064 -1.1696 -0.2825  1.1025
    3SAPS  C219  344   3.088   0.849   8.918  0.3086  0.9187  0.2689
    3SAPS  H19R  345   3.143   0.769   8.971  0.7964  1.9849  1.4226
    3SAPS  H19S  346   3.125   0.949   8.950  1.2302  0.2634  1.3167
    3SAPS  C220  347   3.099   0.827   8.771 -0.0937  0.7008  0.8083
    3SAPS  H20R  348   3.209   0.814   8.762  0.0512  2.3530 -0.1709
    3SAPS  H20S  349   3.064   0.915   8.713 -2.3285 -0.0279  0.9489
    3SAPS  H20T  350   3.045   0.737   8.736  0.2760  0.0728  1.8105
    3SAPS   C33  351   2.153   0.858   9.940  0.1799  0.7091 -0.2489
    3SAPS   H3X  352   2.223   0.779   9.974 -0.7982  0.0583  0.3082
    3SAPS   H3Y  353   2.187   0.960   9.966  0.1390  0.7344 -0.2926
    3SAPS   C34  354   2.152   0.853   9.791  0.2569  0.5709 -0.4098
    3SAPS   H4X  355   2.075   0.924   9.754 -0.6351  0.2171  0.6981
    3SAPS   H4Y  356   2.131   0.747   9.765 -0.5760  0.1729  1.6980
    3SAPS   C35  357   2.288   0.886   9.729  0.3758 -0.3994 -0.4984
    3SAPS   H5X  358   2.374   0.831   9.773  1.8106  2.9587  1.2279
    3SAPS   H5Y  359   2.315   0.991   9.752  2.3447 -0.9401 -0.1644
    3SAPS   C36  360   2.284   0.873   9.576 -0.1071 -0.2801 -0.1400
    3SAPS   H6X  361   2.195   0.928   9.539  0.1748 -1.2985 -2.5186
    3SAPS   H6Y  362   2.268   0.767   9.548 -2.2698  0.3105 -1.4171
    3SAPS   C37  363   2.413   0.915   9.504 -0.3137  0.2412  0.0525
    3SAPS   H7X  364   2.504   0.871   9.550  1.4471  1.8337 -1.7195
    3SAPS   H7Y  365   2.428   1.025   9.512 -0.1674  0.2275 -0.0418
    3SAPS   C38  366   2.401   0.875   9.357  0.8741  0.4120 -0.9115
    3SAPS   H8X  367   2.308   0.910   9.308  1.4239  3.0371 -0.2440
    3SAPS   H8Y  368   2.418   0.766   9.345  3.5180  0.4592  1.4094
    3SAPS   C39  369   2.506   0.918   9.258  0.8171  0.3479 -1.2783
    3SAPS   H9X  370   2.603   0.883   9.300  0.1668 -0.9995 -0.8371
    3SAPS   H9Y  371   2.492   1.028   9.262  0.5085  0.3097 -1.2609
    3SAPS  C310  372   2.489   0.877   9.115 -0.4751 -0.2579 -0.3291
    3SAPS  H10X  373   2.476   0.767   9.108  1.3671 -0.5886  0.8091
    3SAPS  H10Y  374   2.574   0.907   9.049  1.2720 -0.2437  1.8152
    3SAPS  C311  375   2.369   0.947   9.056  0.6410 -0.9522  0.4147
    3SAPS  H11X  376   2.341   1.042   9.107 -0.6228  0.0185 -1.9174
    3SAPS  H11Y  377   2.277   0.885   9.061 -0.9639  1.2558 -0.2272
    3SAPS  C312  378   2.400   0.979   8.908 -0.0301  0.2747 -0.2189
    3SAPS  H12X  379   2.426   0.881   8.861  1.8870  0.2559  0.7981
    3SAPS  H12Y  380   2.497   1.034   8.905 -0.0152  0.2888  0.3721
    3SAPS  C313  381   2.285   1.047   8.832 -0.2360 -0.2128  0.6218
    3SAPS  H13X  382   2.287   1.152   8.868 -1.2695 -0.1278  0.4568
    3SAPS  H13Y  383   2.192   0.992   8.858  0.8764 -1.2929  2.5589
    3SAPS  C314  384   2.296   1.049   8.680 -0.3302  0.0930  0.0901
    3SAPS  H14X  385   2.401   1.072   8.653 -0.1692 -0.5644  0.1276
    3SAPS  H14Y  386   2.229   1.127   8.638 -0.8834 -0.5987 -0.3416
    3SAPS  C315  387   2.239   0.930   8.598 -0.3504  0.3954  0.1509
    3SAPS  H15X  388   2.130   0.920   8.613 -0.1220 -0.9091  1.2216
    3SAPS  H15Y  389   2.272   0.838   8.652 -1.9432  1.2379  2.7142
    3SAPS  C316  390   2.266   0.930   8.444 -0.5359  0.8043 -0.4761
    3SAPS  H16X  391   2.198   0.862   8.389 -0.7933  1.2779 -0.7402
    3SAPS  H16Y  392   2.371   0.894   8.445 -1.3569 -1.7747  0.4979
    3SAPS  C317  393   2.267   1.063   8.372 -0.7553 -0.2049 -0.0334
    3SAPS  H17X  394   2.352   1.115   8.422 -0.9654  0.3691 -0.2566
    3SAPS  H17Y  395   2.169   1.116   8.381  0.0820  1.5160 -0.4738
    3SAPS  C318  396   2.289   1.045   8.226  0.4851  0.3735  0.5194
    3SAPS  H18X  397   2.303   1.146   8.180  1.2832 -0.9633 -2.4197
    3SAPS  H18Y  398   2.192   1.003   8.193 -1.3482  1.6805  3.7942
    3SAPS  H18Z  399   2.380   0.986   8.204 -0.2253  0.0273 -1.7594
    4SAPS     N  400   5.965   2.978  10.559  0.0948  0.0645 -0.2131
    4SAPS   HN1  401   5.988   3.029  10.471  1.6869  0.2791  0.2927
    4SAPS   HN2  402   6.056   2.951  10.600 -0.3265 -1.1915 -0.0605
    4SAPS   HN3  403   5.909   2.891  10.545  0.9944 -0.6596  0.4981
    4SAPS   C12  404   5.906   3.079  10.655  0.1831  0.6229  0.1863
    4SAPS  H12A  405   5.823   3.125  10.603 -0.4890  1.3056  1.7987
    4SAPS   C13  406   5.845   3.028  10.782  0.6896 -0.0269 -0.0178
    4SAPS  O13A  407   5.804   2.908  10.785 -0.2445  0.7482 -0.3364
    4SAPS  O13B  408   5.824   3.108  10.875  0.4776 -0.6083  0.0360
    4SAPS   C11  409   6.018   3.179  10.687 -0.2265 -0.2727 -0.5793
    4SAPS  H11A  410   6.094   3.121  10.744 -3.1247 -1.9295  1.8525
    4SAPS  H11B  411   5.990   3.257  10.762  2.2334 -0.2989  0.4620
    4SAPS     P  412   6.030   3.392  10.541 -0.1642  0.0041  0.0022
    4SAPS   O13  413   5.894   3.424  10.584 -0.0159  0.4232  0.5272
    4SAPS   O14  414   6.123   3.484  10.609  0.0045 -0.1276  0.4697
    4SAPS   O12  415   6.068   3.238  10.570 -0.1442 -0.3829 -0.1744
    4SAPS   O11  416   6.052   3.406  10.392 -0.5739 -0.0691  0.2723
    4SAPS    C1  417   6.157   3.336  10.322 -0.6950  0.4529 -0.4594
    4SAPS    HA  418   6.256   3.382  10.342 -1.6171  1.7536  1.2972
    4SAPS    HB  419   6.160   3.230  10.356 -0.5819  0.2273 -1.1567
    4SAPS    C2  420   6.135   3.318  10.171 -0.0713 -0.8174  0.3183
    4SAPS    HS  421   6.097   3.215  10.154  0.1235 -0.8140 -0.1749
    4SAPS   O21  422   6.255   3.329  10.086  0.2361 -0.3672  0.2979
    4SAPS   C21  423   6.344   3.226  10.105 -0.3228  0.4442 -0.0700
    4SAPS   O22  424   6.335   3.137  10.181 -0.2168 -0.4422  0.3837
    4SAPS   C22  425   6.469   3.243  10.007  0.2665  0.4499  0.4596
    4SAPS   H2R  426   6.441   3.249   9.900 -1.6534 -1.8011  0.7604
    4SAPS   H2S  427   6.520   3.340  10.027  1.0451  0.5487 -1.7836
    4SAPS    C3  428   6.023   3.415  10.113 -0.6731  0.6594 -0.0769
    4SAPS    HX  429   6.066   3.518  10.113 -0.4200  0.5993  1.8332
    4SAPS    HY  430   5.932   3.407  10.176 -0.8600 -2.2860 -0.6159
    4SAPS   O31  431   5.983   3.391   9.979 -0.0382  0.7122 -0.4649
    4SAPS   C31  432   5.900   3.281   9.960  0.4228 -0.8856 -0.5235
    4SAPS   O32  433   5.856   3.216  10.053  0.6189 -0.5841 -0.0196
    4SAPS   C32  434   5.850   3.253   9.816 -0.2612 -0.1894 -0.4227
    4SAPS   H2X  435   5.749   3.297   9.801  0.6024  2.5072  1.0775
    4SAPS   H2Y  436   5.855   3.142   9.814  1.2663 -0.1656  0.7781
    4SAPS   C23  437   6.561   3.113  10.016  0.5201 -0.4930  0.5815
    4SAPS   H3R  438   6.516   3.026   9.963 -0.0912  0.8691 -1.1922
    4SAPS   H3S  439   6.567   3.100  10.127  0.6193  1.6329  0.8626
    4SAPS   C24  440   6.703   3.128   9.965 -0.5410 -0.8083  0.6457
    4SAPS   H4R  441   6.757   3.040  10.005  0.7362 -0.9782 -1.3476
    4SAPS   H4S  442   6.753   3.218  10.007  3.4827 -2.0790 -0.9182
    4SAPS   C25  443   6.710   3.117   9.815  0.1092  0.3567 -0.5585
    4SAPS   H5R  444   6.662   3.026   9.775 -0.2320  0.3690 -0.1848
    4SAPS   C26  445   6.764   3.204   9.733  0.5833 -0.3560 -0.4545
    4SAPS   H6R  446   6.782   3.181   9.628  0.8689 -1.4964 -0.1665
    4SAPS   C27  447   6.834   3.335   9.765  0.6475 -0.1611  0.7418
    4SAPS   H7R  448   6.767   3.402   9.823  1.6419  0.4987  1.1552
    4SAPS   H7S  449   6.836   3.400   9.675 -0.0835 -0.0101  0.8299
    4SAPS   C28  450   6.962   3.335   9.842 -0.5320  0.4013  0.2200
    4SAPS   H8R  451   6.994   3.248   9.900  1.2603 -0.1664 -1.5029
    4SAPS   C29  452   7.044   3.438   9.848  0.0584 -0.2542 -0.5666
    4SAPS   H9R  453   7.142   3.423   9.895  0.9490  1.7887 -1.6475
    4SAPS  C210  454   7.022   3.571   9.781  0.0255  0.7525  0.0076
    4SAPS  H10R  455   6.914   3.592   9.787 -0.0233  1.6231 -2.8234
    4SAPS  H10S  456   7.057   3.558   9.677  0.9882 -0.0109  0.4078
    4SAPS  C211  457   7.093   3.681   9.858  0.1249 -0.3962 -0.6834
    4SAPS  H11R  458   7.041   3.737   9.937 -0.2096  1.7151 -2.3044
    4SAPS  C212  459   7.217   3.726   9.823 -0.8308  0.0184  0.9822
    4SAPS  H12R  460   7.266   3.804   9.883 -1.2821  0.9991  0.1237
    4SAPS  C213  461   7.307   3.659   9.711  0.7685 -0.2690 -0.0401
    4SAPS  H13R  462   7.270   3.698   9.614 -2.3917  1.0656  1.5549
    4SAPS  H13S  463   7.284   3.552   9.725 -1.0277 -0.0827 -1.3703
    4SAPS  C214  464   7.459   3.682   9.732 -0.9703  0.4730  0.1870
    4SAPS  H14R  465   7.493   3.749   9.811  0.4187  0.4195 -0.3250
    4SAPS  C215  466   7.548   3.615   9.661 -0.3224 -0.2982 -0.0437
    4SAPS  H15R  467   7.657   3.629   9.675  0.2246  0.4796 -3.8870
    4SAPS  C216  468   7.519   3.511   9.558 -0.4633  0.4234 -0.4496
    4SAPS  H16R  469   7.439   3.445   9.599 -0.7177 -0.3381 -2.0992
    4SAPS  H16S  470   7.603   3.440   9.548 -0.0321  0.9762 -0.7939
    4SAPS  C217  471   7.484   3.564   9.417  0.5468 -0.0251  0.2365
    4SAPS  H17R  472   7.549   3.650   9.392 -0.7066  0.3963 -1.8361
    4SAPS  H17S  473   7.379   3.600   9.418  0.7332  0.6694  2.8831
    4SAPS  C218  474   7.514   3.457   9.310  0.2049 -0.0203  0.5959
    4SAPS  H18R  475   7.624   3.439   9.309  0.4429  1.0582  2.7494
    4SAPS  H18S  476   7.470   3.503   9.218 -0.5408  1.5146  1.6729
    4SAPS  C219  477   7.461   3.304   9.326 -0.0577 -0.1544 -0.1718
    4SAPS  H19R  478   7.358   3.330   9.360 -0.0547  0.2549 -0.4708
    4SAPS  H19S  479   7.516   3.239   9.396  0.1671 -1.0263 -1.1343
    4SAPS  C220  480   7.463   3.226   9.192 -0.6679 -0.3625  0.2221
    4SAPS  H20R  481   7.449   3.306   9.116 -0.6695  0.8500  1.4382
    4SAPS  H20S  482   7.383   3.150   9.177  1.4553 -2.1400 -3.3192
    4SAPS  H20T  483   7.557   3.173   9.168 -0.1546  0.1725  0.9921
    4SAPS   C33  484   5.952   3.306   9.716 -0.2640  0.3242  0.3135
    4SAPS   H3X  485   6.036   3.234   9.718 -0.8587 -0.5705 -2.4819
    4SAPS   H3Y  486   5.970   3.413   9.741  0.0477 -0.0515  1.8283
    4SAPS   C34  487   5.893   3.293   9.567  0.0968  0.5679  0.3966
    4SAPS   H4X  488   5.978   3.318   9.501  0.8993  2.3710  2.0144
    4SAPS   H4Y  489   5.823   3.376   9.543 -1.3811 -0.9415 -0.7700
    4SAPS   C35  490   5.828   3.159   9.530 -0.3327  0.7810 -0.6958
    4SAPS   H5X  491   5.760   3.139   9.616 -1.0920 -1.7345 -1.7728
    4SAPS   H5Y  492   5.908   3.082   9.523 -1.2054 -0.3035  0.6884
    4SAPS   C36  493   5.753   3.155   9.399  0.5778 -0.3770  0.7911
    4SAPS   H6X  494   5.659   3.213   9.413 -1.2962 -2.5276 -1.7241
    4SAPS   H6Y  495   5.717   3.051   9.383  1.2758 -0.7523  1.5684
    4SAPS   C37  496   5.828   3.200   9.273 -0.2746  0.3539  1.0850
    4SAPS   H7X  497   5.933   3.164   9.269 -1.1030 -2.1092  0.1942
    4SAPS   H7Y  498   5.834   3.311   9.270 -0.2621  0.3280 -0.7354
    4SAPS   C38  499   5.759   3.135   9.149 -0.5453 -0.8872 -0.0313
    4SAPS   H8X  500   5.663   3.190   9.148 -0.6911 -1.1109 -1.7812
    4SAPS   H8Y  501   5.743   3.026   9.165 -1.3480 -0.5076  1.9613
    4SAPS   C39  502   5.835   3.165   9.013 -0.0426 -0.4181  0.0150
    4SAPS   H9X  503   5.793   3.124   8.918  1.8365  2.0174 -2.0236
    4SAPS   H9Y  504   5.936   3.119   9.012  0.7101  1.1579 -0.5662
    4SAPS  C310  505   5.839   3.316   8.993 -0.1853 -0.1214  0.3065
    4SAPS  H10X  506   5.883   3.367   9.081  0.9912 -2.0828  0.9092
    4SAPS  H10Y  507   5.735   3.354   8.982  0.6010  1.6658 -1.5029
    4SAPS  C311  508   5.922   3.346   8.871 -0.1138 -0.4143  0.0301
    4SAPS  H11X  509   5.863   3.306   8.785 -3.8569  1.1006  1.6412
    4SAPS  H11Y  510   6.020   3.296   8.864  0.3270  0.4391 -0.0709
    4SAPS  C312  511   5.945   3.499   8.843 -0.1361  0.1314  1.1830
    4SAPS  H12X  512   6.039   3.532   8.893  0.2246 -0.6883  1.0696
    4SAPS  H12Y  513   5.876   3.566   8.898  0.0436  3.1494 -1.9151
    4SAPS  C313  514   5.943   3.545   8.698 -0.5197 -0.1894  0.0141
    4SAPS  H13X  515   5.844   3.521   8.653 -0.6788  0.8170 -0.2067
    4SAPS  H13Y  516   6.015   3.486   8.639 -3.1019 -2.2770 -1.2562
    4SAPS  C314  517   5.967   3.700   8.680  0.4513 -0.2834  0.2190
    4SAPS  H14X  518   6.072   3.711   8.713  1.1655 -0.3973 -1.8968
    4SAPS  H14Y  519   5.899   3.753   8.750 -0.0413  0.0367 -0.4857
    4SAPS  C315  520   5.945   3.753   8.538 -0.4713  0.0680 -0.1136
    4SAPS  H15X  521   5.835   3.739   8.534 -0.6622  0.6727  1.8850
    4SAPS  H15Y  522   5.986   3.686   8.460  1.5378  2.0678 -0.8686
    4SAPS  C316  523   5.989   3.904   8.526  0.5601  0.3745  0.2900
    4SAPS  H16X  524   6.100   3.909   8.528  0.5508  1.2167 -0.7793
    4SAPS  H16Y  525   5.948   3.950   8.619  2.6678  1.6315  0.6635
    4SAPS  C317  526   5.936   3.960   8.396  0.3412 -0.0650  0.1925
    4SAPS  H17X  527   5.827   3.941   8.385  0.3169  0.9718 -1.7619
    4SAPS  H17Y  528   5.990   3.910   8.313  1.6515  1.2825  0.1822
    4SAPS  C318  529   5.965   4.114   8.384  0.1889  0.0675  0.5410
    4SAPS  H18X  530   6.071   4.143   8.401  0.9766 -1.4016 -1.5565
    4SAPS  H18Y  531   5.902   4.162   8.462 -1.9740 -0.3547 -0.8649
    4SAPS  H18Z  532   5.939   4.160   8.287  0.6248  1.3499  1.0116
    5SAPS     N  533   2.492   0.788  10.976  0.5515 -1.0447  0.3353
    5SAPS   HN1  534   2.467   0.725  11.055  0.9413 -1.0123  0.4882
    5SAPS   HN2  535   2.422   0.775  10.901  0.7645 -4.2287  0.5387
    5SAPS   HN3  536   2.581   0.760  10.930  0.7985 -1.7862  1.2307
    5SAPS   C12  537   2.507   0.931  11.026 -0.6758 -0.4612 -0.1251
    5SAPS  H12A  538   2.411   0.956  11.069 -0.2004  0.2214  0.5764
    5SAPS   C13  539   2.611   0.963  11.140  0.9455  0.6688  0.6150
    5SAPS  O13A  540   2.659   0.867  11.204 -0.0847  0.7760  0.1832
    5SAPS  O13B  541   2.592   1.073  11.197 -0.6486  0.0075  0.3876
    5SAPS   C11  542   2.541   1.028  10.901  0.1705  0.4874 -0.6372
    5SAPS  H11A  543   2.641   1.000  10.861  1.0794 -1.0142  2.3312
    5SAPS  H11B  544   2.543   1.131  10.941  3.7434 -0.1633  1.3125
    5SAPS     P  545   2.477   0.978  10.652  0.3607  0.1441 -0.3503
    5SAPS   O13  546   2.517   0.837  10.632  0.1161  0.2124 -0.1556
    5SAPS   O14  547   2.370   1.041  10.566  0.6331  0.1360 -0.3116
    5SAPS   O12  548   2.443   1.006  10.807  0.0905  0.6486 -0.4659
    5SAPS   O11  549   2.603   1.062  10.631 -0.1171 -1.1208 -0.0957
    5SAPS    C1  550   2.598   1.204  10.596  0.3207 -0.5515 -0.5337
    5SAPS    HA  551   2.493   1.238  10.586  0.7362  0.5159 -1.5435
    5SAPS    HB  552   2.640   1.265  10.678  0.4716  1.7676 -2.2400
    5SAPS    C2  553   2.662   1.231  10.460  0.5652  0.3393  0.0921
    5SAPS    HS  554   2.681   1.338  10.439  1.6294  0.1258 -0.1288
    5SAPS   O21  555   2.588   1.175  10.351  0.5249  0.4234 -0.1577
    5SAPS   C21  556   2.482   1.251  10.320 -0.2507  0.2445  0.4612
    5SAPS   O22  557   2.449   1.367  10.350  0.7766  0.1157  0.1817
    5SAPS   C22  558   2.389   1.160  10.235 -0.2630 -0.0393 -0.3827
    5SAPS   H2R  559   2.461   1.120  10.160 -0.2400  2.5710 -1.8600
    5SAPS   H2S  560   2.349   1.082  10.304 -2.0618  0.2838 -1.0043
    5SAPS    C3  561   2.809   1.178  10.460 -0.7908  0.4387 -0.6979
    5SAPS    HX  562   2.804   1.069  10.483  0.3948  0.6989  1.0067
    5SAPS    HY  563   2.869   1.218  10.545  0.4547 -0.4565 -1.1142
    5SAPS   O31  564   2.873   1.193  10.332 -0.5649 -0.5055  0.4903
    5SAPS   C31  565   2.911   1.316  10.306  0.5484 -1.0542  0.4655
    5SAPS   O32  566   2.894   1.416  10.376 -0.9035 -0.0436  0.6330
    5SAPS   C32  567   2.970   1.317  10.169  0.1871 -0.3756  0.2023
    5SAPS   H2X  568   2.974   1.213  10.132  2.0173 -1.2440  2.5748
    5SAPS   H2Y  569   3.076   1.349  10.176 -0.2293  0.7472  2.4572
    5SAPS   C23  570   2.261   1.222  10.177  0.2303 -0.0116 -0.2045
    5SAPS   H3R  571   2.198   1.271  10.254  1.0961  2.8047 -1.1955
    5SAPS   H3S  572   2.190   1.140  10.152 -1.4032  0.8340  1.4517
    5SAPS   C24  573   2.270   1.319  10.055  0.6873 -0.2986  0.2899
    5SAPS   H4R  574   2.304   1.252   9.973 -3.6238 -2.3574 -0.0893
    5SAPS   H4S  575   2.338   1.403  10.083 -0.1632  0.1566  1.0369
    5SAPS   C25  576   2.136   1.380  10.034  0.5199  0.0780  0.2869
    5SAPS   H5R  577   2.107   1.470  10.090 -1.7007 -0.3927 -0.0274
    5SAPS   C26  578   2.055   1.334   9.937 -0.1368 -0.4301  0.5353
    5SAPS   H6R  579   1.965   1.396   9.921  0.8973  0.5848 -1.7597
    5SAPS   C27  580   2.082   1.225   9.834  0.0140  0.3846  0.3404
    5SAPS   H7R  581   2.029   1.134   9.867  0.3070 -0.2561 -0.8760
    5SAPS   H7S  582   2.185   1.185   9.827 -1.0309 -2.3886 -0.3730
    5SAPS   C28  583   2.041   1.282   9.698  0.0387 -0.2430 -0.5952
    5SAPS   H8R  584   1.935   1.304   9.680  0.0860 -2.0668 -3.8525
    5SAPS   C29  585   2.122   1.302   9.593 -0.6070  0.6484  0.2258
    5SAPS   H9R  586   2.080   1.336   9.498  0.1813  1.5392  0.1817
    5SAPS  C210  587   2.271   1.268   9.578  0.5480  0.2804  0.0567
    5SAPS  H10R  588   2.284   1.248   9.469 -0.2221 -0.2802  0.0653
    5SAPS  H10S  589   2.306   1.175   9.628  0.7027 -0.2114 -0.9302
    5SAPS  C211  590   2.362   1.381   9.609  0.0324 -0.0287  0.2485
    5SAPS  H11R  591   2.360   1.402   9.717  0.5591  2.0463 -0.0965
    5SAPS  C212  592   2.420   1.458   9.519 -0.2839 -0.0609 -0.0071
    5SAPS  H12R  593   2.487   1.533   9.565 -1.1562  0.8758 -0.2082
    5SAPS  C213  594   2.406   1.462   9.369 -0.4349 -0.0579 -1.0652
    5SAPS  H13R  595   2.412   1.569   9.342  2.1099  0.5295  1.2877
    5SAPS  H13S  596   2.307   1.430   9.332 -0.5375 -0.4947 -0.4342
    5SAPS  C214  597   2.511   1.372   9.298 -0.0363 -0.4169 -0.3536
    5SAPS  H14R  598   2.553   1.285   9.352  2.2378  0.7180 -0.1666
    5SAPS  C215  599   2.573   1.394   9.183 -0.3167 -0.2491 -0.4041
    5SAPS  H15R  600   2.643   1.314   9.155  0.6278  1.0771 -1.9915
    5SAPS  C216  601   2.539   1.502   9.082 -0.5168 -0.4816 -0.1116
    5SAPS  H16R  602   2.624   1.570   9.059 -2.4444  3.1309  2.5509
    5SAPS  H16S  603   2.472   1.582   9.119 -1.5082 -0.9797 -0.8062
    5SAPS  C217  604   2.484   1.463   8.944 -0.1139 -0.4934 -0.1250
    5SAPS  H17R  605   2.462   1.557   8.890  0.6536 -1.2336 -1.7712
    5SAPS  H17S  606   2.394   1.401   8.959  0.1528 -0.5329  1.5692
    5SAPS  C218  607   2.587   1.386   8.861  0.5466 -0.6152 -0.0274
    5SAPS  H18R  608   2.677   1.451   8.852  1.1718 -1.5131 -0.4006
    5SAPS  H18S  609   2.612   1.284   8.896 -0.0157 -0.9864 -0.6711
    5SAPS  C219  610   2.530   1.367   8.719 -0.8402  0.0386 -0.2353
    5SAPS  H19R  611   2.510   1.462   8.666  0.2799 -0.2380 -1.2098
    5SAPS  H19S  612   2.438   1.306   8.724 -0.2656 -0.7456  1.3807
    5SAPS  C220  613   2.630   1.300   8.616 -0.7613  0.0657  0.1360
    5SAPS  H20R  614   2.716   1.369   8.608 -1.3676  0.8486  0.2503
    5SAPS  H20S  615   2.589   1.293   8.513  1.8844 -1.6244 -0.9225
    5SAPS  H20T  616   2.664   1.200   8.652 -1.4146 -0.5384 -0.8779
    5SAPS   C33  617   2.891   1.411  10.079  1.3200 -0.2160  0.5124
    5SAPS   H3X  618   2.909   1.514  10.116  0.3127  0.0496  0.3074
    5SAPS   H3Y  619   2.782   1.393  10.066  1.1630  1.9835 -2.4202
    5SAPS   C34  620   2.924   1.396   9.932 -0.2764 -0.2700 -0.1879
    5SAPS   H4X  621   2.900   1.294   9.896  0.3787 -0.8233  0.8843
    5SAPS   H4Y  622   3.032   1.420   9.922 -0.2680  1.6239  2.9851
    5SAPS   C35  623   2.846   1.493   9.848  0.3296 -0.7025  0.5240
    5SAPS   H5X  624   2.872   1.587   9.900  0.2039 -0.8897  0.9236
    5SAPS   H5Y  625   2.736   1.482   9.848 -0.2608  3.2057 -2.3430
    5SAPS   C36  626   2.902   1.516   9.703  0.2447  0.9712  0.4278
    5SAPS   H6X  627   2.864   1.442   9.629  2.3178  1.6806 -1.4401
    5SAPS   H6Y  628   3.011   1.495   9.698  0.0310  0.0430 -2.6330
    5SAPS   C37  629   2.880   1.665   9.651 -0.0146 -0.3369 -0.2531
    5SAPS   H7X  630   2.942   1.734   9.713 -0.3895 -1.2186  1.1722
    5SAPS   H7Y  631   2.773   1.695   9.663 -0.0924 -1.1279  1.3889
    5SAPS   C38  632   2.922   1.674   9.508  0.0035 -0.4288  0.2034
    5SAPS   H8X  633   3.025   1.633   9.499  0.4621  0.6446  0.3486
    5SAPS   H8Y  634   2.913   1.783   9.488 -0.0600 -0.2543  1.1764
    5SAPS   C39  635   2.837   1.595   9.405  0.6646  0.4942  0.6157
    5SAPS   H9X  636   2.729   1.604   9.429  0.4315 -1.7796  0.6398
    5SAPS   H9Y  637   2.851   1.487   9.427  0.8355  0.8508  2.3396
    5SAPS  C310  638   2.894   1.621   9.257  0.2050 -0.0416  0.6362
    5SAPS  H10X  639   2.927   1.727   9.248  2.7565 -0.8137 -0.1447
    5SAPS  H10Y  640   2.808   1.611   9.188 -0.0897 -0.4117  1.0505
    5SAPS  C311  641   3.004   1.515   9.238  0.1730 -0.1215 -0.3250
    5SAPS  H11X  642   2.956   1.415   9.243 -2.1485  0.9408 -0.1684
    5SAPS  H11Y  643   3.076   1.513   9.322  0.8073  2.9832 -0.6873
    5SAPS  C312  644   3.089   1.529   9.107  0.1711  0.3614 -0.1913
    5SAPS  H12X  645   3.179   1.468   9.130 -0.4133 -0.2498  0.5130
    5SAPS  H12Y  646   3.117   1.633   9.081  1.2810  0.3875  1.0447
    5SAPS  C313  647   3.018   1.461   8.985 -0.3691 -0.5073 -0.6865
    5SAPS  H13X  648   2.953   1.538   8.938 -0.1419 -1.0429 -1.9049
    5SAPS  H13Y  649   2.954   1.374   9.009 -3.0894  1.2307 -1.1465
    5SAPS  C314  650   3.125   1.432   8.883  0.0342  0.5542  0.2847
    5SAPS  H14X  651   3.203   1.378   8.941  1.5559  1.2510 -1.0437
    5SAPS  H14Y  652   3.188   1.521   8.861  3.1216 -1.2625  1.1124
    5SAPS  C315  653   3.071   1.360   8.763 -0.6480 -0.2317 -0.2134
    5SAPS  H15X  654   3.001   1.423   8.703 -1.9154 -0.3896  1.0354
    5SAPS  H15Y  655   3.017   1.273   8.806  1.5470 -1.3530  0.3760
    5SAPS  C316  656   3.169   1.296   8.662  0.0564 -0.4279 -0.8778
    5SAPS  H16X  657   3.112   1.244   8.582  2.3481 -0.9890 -2.2437
    5SAPS  H16Y  658   3.230   1.219   8.714  2.2603  0.7474 -1.5994
    5SAPS  C317  659   3.262   1.396   8.588 -0.0426  0.7083 -0.2563
    5SAPS  H17X  660   3.309   1.473   8.653 -0.3245  0.9197 -0.2997
    5SAPS  H17Y  661   3.198   1.453   8.517 -1.3621  1.8745  1.7614
    5SAPS  C318  662   3.371   1.331   8.513 -0.3487  0.1683  0.5766
    5SAPS  H18X  663   3.348   1.228   8.477 -1.5543  0.4516  0.5002
    5SAPS  H18Y  664   3.458   1.312   8.579  0.6142 -2.1296 -1.2193
    5SAPS  H18Z  665   3.406   1.386   8.424  0.4691  0.0453  0.8166
    6SAPS     N  666   1.442   0.421  10.661  0.6931 -0.3407 -0.2804
    6SAPS   HN1  667   1.445   0.516  10.619  0.7274 -0.4800 -0.5942
    6SAPS   HN2  668   1.537   0.387  10.684  1.4538  0.2593 -2.3128
    6SAPS   HN3  669   1.391   0.347  10.608  1.4873 -0.7242 -0.5266
    6SAPS   C12  670   1.366   0.421  10.791 -1.1648 -0.1115 -0.5889
    6SAPS  H12A  671   1.328   0.323  10.815  0.6904 -0.6447  0.3729
    6SAPS   C13  672   1.452   0.468  10.910 -0.2539 -0.0525  0.3888
    6SAPS  O13A  673   1.573   0.497  10.896 -0.2410  0.3150  0.0925
    6SAPS  O13B  674   1.398   0.465  11.022 -0.1149 -0.3312  0.2344
    6SAPS   C11  675   1.243   0.510  10.787  0.3017 -0.3341 -0.4172
    6SAPS  H11A  676   1.255   0.620  10.800 -0.6765 -0.4167  1.6369
    6SAPS  H11B  677   1.183   0.486  10.877 -0.7902  0.1044 -1.0068
    6SAPS     P  678   1.015   0.497  10.650  0.1547 -0.3114  0.3172
    6SAPS   O13  679   0.951   0.369  10.644 -0.5266 -0.3296  0.3485
    6SAPS   O14  680   0.958   0.596  10.742 -0.0240 -0.8082  0.1380
    6SAPS   O12  681   1.172   0.481  10.667 -0.0773  0.1983 -0.2063
    6SAPS   O11  682   1.008   0.543  10.506  0.3673 -0.0178  1.0561
    6SAPS    C1  683   1.118   0.612  10.433 -0.4704  0.5926  0.1470
    6SAPS    HA  684   1.072   0.705  10.395 -1.9088 -0.9411 -2.1086
    6SAPS    HB  685   1.210   0.629  10.495  0.3300 -0.4361 -0.7224
    6SAPS    C2  686   1.157   0.536  10.300 -0.9141 -0.0554  0.0304
    6SAPS    HS  687   1.219   0.611  10.245 -0.3074  0.2513  1.0864
    6SAPS   O21  688   1.043   0.478  10.230 -0.1706  0.1086 -0.0910
    6SAPS   C21  689   0.990   0.565  10.149  0.1860  0.0866  0.2893
    6SAPS   O22  690   1.016   0.684  10.138 -0.5496  0.1371  0.3563
    6SAPS   C22  691   0.878   0.494  10.069 -0.6569 -0.6535 -0.5394
    6SAPS   H2R  692   0.883   0.384  10.087  1.7117 -0.2314  2.0262
    6SAPS   H2S  693   0.783   0.529  10.115 -0.5218  0.2410 -0.9222
    6SAPS    C3  694   1.229   0.407  10.342 -0.1973  0.0478  0.7044
    6SAPS    HX  695   1.166   0.340  10.404 -2.1677  0.7530 -0.4541
    6SAPS    HY  696   1.318   0.426  10.405 -0.2175  1.7901  0.2490
    6SAPS   O31  697   1.276   0.348  10.220  0.3890 -0.2870  0.1749
    6SAPS   C31  698   1.242   0.222  10.202  0.4782  0.6759  0.4428
    6SAPS   O32  699   1.196   0.145  10.283 -0.3133 -0.0730  0.6184
    6SAPS   C32  700   1.287   0.180  10.058 -0.9597  0.2871  0.8782
    6SAPS   H2X  701   1.386   0.133  10.077 -1.0657  0.2407  1.3339
    6SAPS   H2Y  702   1.287   0.271   9.994  1.4246 -0.0404  0.3201
    6SAPS   C23  703   0.878   0.545   9.918  0.0183  0.5689 -0.7548
    6SAPS   H3R  704   0.983   0.562   9.883  0.7435 -1.7244  0.1335
    6SAPS   H3S  705   0.831   0.645   9.928 -1.5526 -0.4037  3.3644
    6SAPS   C24  706   0.794   0.450   9.838  0.2304  0.0468 -0.3468
    6SAPS   H4R  707   0.773   0.507   9.745  1.7275  1.2296 -0.0011
    6SAPS   H4S  708   0.695   0.432   9.884 -1.0152 -2.4121 -3.6336
    6SAPS   C25  709   0.853   0.311   9.817  0.0485 -0.5059 -0.0021
    6SAPS   H5R  710   0.851   0.240   9.902 -0.8978  1.2338  1.4984
    6SAPS   C26  711   0.897   0.260   9.704 -0.0563 -0.3097  0.9100
    6SAPS   H6R  712   0.949   0.164   9.713 -0.1028 -0.3748  0.5160
    6SAPS   C27  713   0.918   0.334   9.571  0.6103 -0.0245  0.6932
    6SAPS   H7R  714   1.012   0.393   9.571  0.6170 -0.0353  0.7642
    6SAPS   H7S  715   0.835   0.400   9.537  1.4216  0.9533  0.5679
    6SAPS   C28  716   0.924   0.227   9.467 -0.4745  0.5584 -0.0744
    6SAPS   H8R  717   0.868   0.134   9.487  0.4761  0.2385  1.1865
    6SAPS   C29  718   0.978   0.240   9.342 -0.4984  0.6252  0.8715
    6SAPS   H9R  719   0.988   0.156   9.271  2.0660  1.7443 -0.2251
    6SAPS  C210  720   1.029   0.373   9.288 -0.6357  0.1229  0.2787
    6SAPS  H10R  721   1.139   0.359   9.283 -0.4483  1.5012  0.2966
    6SAPS  H10S  722   1.032   0.453   9.364  2.3985 -0.7399  1.2357
    6SAPS  C211  723   0.964   0.411   9.150  0.4788  0.2710  0.2617
    6SAPS  H11R  724   0.861   0.447   9.158  0.4202 -0.1676  1.7264
    6SAPS  C212  725   1.012   0.384   9.034 -0.5766 -0.5550 -0.1980
    6SAPS  H12R  726   0.971   0.420   8.938  1.0333  0.0106 -0.6973
    6SAPS  C213  727   1.142   0.312   9.002  0.2997 -0.7916  0.1513
    6SAPS  H13R  728   1.108   0.226   8.941 -0.4102 -1.0064  0.8278
    6SAPS  H13S  729   1.187   0.269   9.094 -1.7080 -0.8291  1.1745
    6SAPS  C214  730   1.250   0.404   8.945 -0.3360  0.4195  0.2678
    6SAPS  H14R  731   1.309   0.461   9.018  1.3481 -0.9462  0.0265
    6SAPS  C215  732   1.273   0.421   8.814  0.0996  0.3836 -0.4429
    6SAPS  H15R  733   1.330   0.508   8.780 -0.7745  0.8435 -0.7749
    6SAPS  C216  734   1.201   0.346   8.702  0.2344 -0.0217  1.0313
    6SAPS  H16R  735   1.100   0.390   8.689 -0.7011 -1.9300  1.4483
    6SAPS  H16S  736   1.194   0.241   8.739  0.8724 -0.7138 -0.7103
    6SAPS  C217  737   1.286   0.345   8.576  0.1952  0.1273  0.0744
    6SAPS  H17R  738   1.388   0.333   8.619 -0.7305 -1.5961  1.9494
    6SAPS  H17S  739   1.274   0.446   8.532  0.8769 -0.8811 -2.5975
    6SAPS  C218  740   1.256   0.249   8.467  0.0546  0.0961  0.1407
    6SAPS  H18R  741   1.330   0.249   8.385 -0.2207  0.6680 -0.1125
    6SAPS  H18S  742   1.160   0.287   8.426 -0.0873  0.1518  0.5155
    6SAPS  C219  743   1.244   0.104   8.508  0.4729  0.8117  0.5462
    6SAPS  H19R  744   1.146   0.086   8.556 -0.4489 -1.3738 -1.9269
    6SAPS  H19S  745   1.329   0.075   8.573  1.3411  0.0728 -0.8729
    6SAPS  C220  746   1.255   0.016   8.385 -0.2511 -0.1231 -0.0079
    6SAPS  H20R  747   1.359   0.024   8.347  0.1481  0.0099  1.0811
    6SAPS  H20S  748   1.206   0.062   8.297  3.2472 -0.9414 -2.6191
    6SAPS  H20T  749   1.219  -0.086   8.410  0.4810  0.4309  3.8365
    6SAPS   C33  750   1.194   0.081   9.994  0.4199 -0.4074 -0.5626
    6SAPS   H3X  751   1.093   0.129   9.991  0.9438  0.8013  0.2693
    6SAPS   H3Y  752   1.187  -0.015  10.049  0.1481  0.0404  0.2107
    6SAPS   C34  753   1.241   0.048   9.855  0.1404  0.3826 -0.2078
    6SAPS   H4X  754   1.336  -0.009   9.855 -0.3313 -0.4422  0.8555
    6SAPS   H4Y  755   1.259   0.144   9.802 -2.4676 -0.5443 -3.0719
    6SAPS   C35  756   1.148  -0.040   9.770 -0.3360  0.5358  0.4268
    6SAPS   H5X  757   1.044  -0.002   9.778 -0.3994  0.3630  0.4413
    6SAPS   H5Y  758   1.144  -0.138   9.824  0.2058 -1.0092 -2.1935
    6SAPS   C36  759   1.200  -0.059   9.627 -0.2627  0.0581  0.1677
    6SAPS   H6X  760   1.305  -0.089   9.606 -0.7389  0.1583 -2.8049
    6SAPS   H6Y  761   1.203   0.044   9.587  0.6523 -0.0569 -0.0767
    6SAPS   C37  762   1.091  -0.129   9.529 -0.2453 -0.1303 -0.1557
    6SAPS   H7X  763   0.997  -0.073   9.548  0.2474  0.3342  1.0350
    6SAPS   H7Y  764   1.070  -0.236   9.551  0.6097 -0.1521  0.6466
    6SAPS   C38  765   1.129  -0.105   9.385 -0.5367 -0.2209  0.4084
    6SAPS   H8X  766   1.163   0.001   9.381  0.1029 -0.1890  4.0489
    6SAPS   H8Y  767   1.040  -0.118   9.321 -0.6080 -0.0079  0.4631
    6SAPS   C39  768   1.248  -0.191   9.323  0.0455 -0.3991 -0.2989
    6SAPS   H9X  769   1.206  -0.293   9.311 -0.3873 -0.5648  2.0925
    6SAPS   H9Y  770   1.328  -0.183   9.399 -2.4671  2.8501  2.3663
    6SAPS  C310  771   1.307  -0.144   9.195  0.2175 -0.1805 -0.0802
    6SAPS  H10X  772   1.369  -0.224   9.151  0.1492 -0.8019  0.9190
    6SAPS  H10Y  773   1.377  -0.063   9.227  0.6743 -1.4299  2.3425
    6SAPS  C311  774   1.215  -0.100   9.073  1.0373  0.1262 -0.2342
    6SAPS  H11X  775   1.127  -0.039   9.104  0.9177 -0.7994  1.4280
    6SAPS  H11Y  776   1.162  -0.193   9.043 -2.6515  1.1959  2.2101
    6SAPS  C312  777   1.305  -0.046   8.957 -0.0990  0.2250  0.7839
    6SAPS  H12X  778   1.373   0.023   9.012  0.7127 -0.1638  0.2635
    6SAPS  H12Y  779   1.235   0.018   8.899 -0.7251  0.4620  1.7592
    6SAPS  C313  780   1.373  -0.160   8.871  0.1049  0.0142 -0.0506
    6SAPS  H13X  781   1.293  -0.227   8.833  3.2749 -2.8623 -2.3477
    6SAPS  H13Y  782   1.434  -0.221   8.942  0.5423 -0.3388 -0.7165
    6SAPS  C314  783   1.459  -0.120   8.758  0.2541 -0.1224 -0.4373
    6SAPS  H14X  784   1.398  -0.085   8.673  1.1113 -1.4687 -1.6442
    6SAPS  H14Y  785   1.510  -0.213   8.724  0.5041  0.1981 -0.9430
    6SAPS  C315  786   1.567  -0.022   8.800 -0.0227 -0.8350  0.9311
    6SAPS  H15X  787   1.623  -0.066   8.885  0.9901 -2.3906 -0.4759
    6SAPS  H15Y  788   1.531   0.082   8.814  1.3675  0.1219 -1.9001
    6SAPS  C316  789   1.676  -0.008   8.688 -0.6831 -0.3674  0.3015
    6SAPS  H16X  790   1.655   0.069   8.611  0.3521 -1.3734 -1.0521
    6SAPS  H16Y  791   1.674  -0.104   8.631  2.7508  0.5117 -1.5885
    6SAPS  C317  792   1.813   0.037   8.745  0.0308  0.4850 -0.1331
    6SAPS  H17X  793   1.830  -0.028   8.833 -0.3739  0.2198 -0.2517
    6SAPS  H17Y  794   1.802   0.142   8.781 -0.0391  0.0761  1.0954
    6SAPS  C318  795   1.928   0.030   8.648  0.0335  0.0515 -0.0387
    6SAPS  H18X  796   1.896   0.074   8.551 -1.0462  2.1997  1.1931
    6SAPS  H18Y  797   1.947  -0.079   8.645 -0.3459 -0.0615  1.1086
    6SAPS  H18Z  798   2.017   0.080   8.692  0.2599  0.6888 -1.1976
    7SAPS     N  799   3.615   1.615  10.898 -0.5301  0.0069 -0.4730
    7SAPS   HN1  800   3.614   1.579  10.995 -0.4008  0.5892 -0.2513
    7SAPS   HN2  801   3.527   1.591  10.847 -0.4053  1.5893 -1.5169
    7SAPS   HN3  802   3.700   1.581  10.850  0.4851  2.5463 -0.6221
    7SAPS   C12  803   3.628   1.759  10.926  0.1342 -0.0938 -0.5043
    7SAPS  H12A  804   3.529   1.795  10.947  0.7907  1.7631 -0.4326
    7SAPS   C13  805   3.698   1.796  11.066 -0.3352  0.3312 -0.1034
    7SAPS  O13A  806   3.722   1.698  11.140  0.0462 -0.1877 -0.9814
    7SAPS  O13B  807   3.688   1.912  11.112 -0.2090  0.9030  0.4635
    7SAPS   C11  808   3.690   1.839  10.804 -0.5718 -0.7546 -0.2988
    7SAPS  H11A  809   3.780   1.789  10.764 -0.7523 -0.3534 -1.2363
    7SAPS  H11B  810   3.727   1.933  10.850  2.1983 -0.4728 -2.8465
    7SAPS     P  811   3.546   2.010  10.666 -0.3894 -0.1014  0.1981
    7SAPS   O13  812   3.478   2.076  10.782  0.5309  0.0539 -0.2104
    7SAPS   O14  813   3.655   2.091  10.593 -0.6272  0.3192 -0.0635
    7SAPS   O12  814   3.592   1.867  10.704  0.4785 -0.5951 -0.3209
    7SAPS   O11  815   3.432   1.973  10.560 -0.1761  0.6219 -0.1192
    7SAPS    C1  816   3.452   1.856  10.475 -0.6449 -0.2651 -0.2255
    7SAPS    HA  817   3.507   1.770  10.519  3.2656  2.0952  0.0629
    7SAPS    HB  818   3.354   1.816  10.444  0.2659 -2.1163 -0.8492
    7SAPS    C2  819   3.519   1.886  10.332 -0.6591 -0.3420  0.3889
    7SAPS    HS  820   3.630   1.898  10.335 -0.6808  0.7117 -1.5169
    7SAPS   O21  821   3.468   2.010  10.285 -0.2275 -0.2588 -0.0171
    7SAPS   C21  822   3.528   2.078  10.186  0.9329  0.6305 -0.1853
    7SAPS   O22  823   3.649   2.059  10.157  0.2823  0.2030 -0.2104
    7SAPS   C22  824   3.448   2.186  10.120  0.6993 -0.2993  0.2765
    7SAPS   H2R  825   3.346   2.182  10.165  0.5900 -0.8713 -0.0080
    7SAPS   H2S  826   3.493   2.276  10.167  1.8877 -0.5565 -0.3192
    7SAPS    C3  827   3.482   1.769  10.230  0.8486  0.0369  0.0032
    7SAPS    HX  828   3.378   1.787  10.196 -0.2612 -1.0657  2.5533
    7SAPS    HY  829   3.476   1.677  10.292  0.9977 -1.2124 -1.7475
    7SAPS   O31  830   3.557   1.761  10.108  0.7465 -0.4946 -0.4255
    7SAPS   C31  831   3.683   1.720  10.126 -0.7553  0.4122  0.0992
    7SAPS   O32  832   3.734   1.686  10.230  0.6156  0.3844 -0.1714
    7SAPS   C32  833   3.758   1.742   9.994  0.0078  0.2506  0.5281
    7SAPS   H2X  834   3.853   1.793  10.023  0.4072 -1.5174  2.5987
    7SAPS   H2Y  835   3.695   1.799   9.923 -2.6924  0.3080  2.7831
    7SAPS   C23  836   3.464   2.186   9.963 -0.9333  0.1591 -0.2851
    7SAPS   H3R  837   3.436   2.087   9.921  0.4813 -0.7929  0.9363
    7SAPS   H3S  838   3.572   2.201   9.945 -1.1403 -0.5211 -2.4152
    7SAPS   C24  839   3.375   2.300   9.899  0.2369 -0.2017  0.1961
    7SAPS   H4R  840   3.270   2.280   9.932  0.4544 -0.9166  0.4856
    7SAPS   H4S  841   3.382   2.284   9.789  0.5976  0.4691  0.1178
    7SAPS   C25  842   3.417   2.438   9.923  0.1307 -0.0320 -0.2258
    7SAPS   H5R  843   3.431   2.472  10.027  2.3216 -0.2767 -0.3841
    7SAPS   C26  844   3.424   2.542   9.837  0.8705  0.2120 -0.0488
    7SAPS   H6R  845   3.466   2.632   9.884 -0.6717  1.1383 -0.3758
    7SAPS   C27  846   3.386   2.537   9.687  0.2693 -0.7676 -0.3227
    7SAPS   H7R  847   3.387   2.638   9.640  0.2668 -0.5828  0.0709
    7SAPS   H7S  848   3.280   2.504   9.679  0.1652 -0.9154  1.2598
    7SAPS   C28  849   3.485   2.469   9.601  0.6123  0.0226 -0.0802
    7SAPS   H8R  850   3.557   2.411   9.660 -1.2744  0.7139  3.1014
    7SAPS   C29  851   3.475   2.457   9.466 -0.3151 -0.1557  0.1461
    7SAPS   H9R  852   3.548   2.391   9.417 -0.6694 -0.0763 -0.5029
    7SAPS  C210  853   3.365   2.528   9.389 -0.4375 -0.2068 -0.2039
    7SAPS  H10R  854   3.320   2.599   9.462  0.8717  0.3503  0.0751
    7SAPS  H10S  855   3.279   2.459   9.370 -1.0407  0.5461 -0.2698
    7SAPS  C211  856   3.427   2.599   9.265 -0.8559 -0.2141 -0.7757
    7SAPS  H11R  857   3.510   2.669   9.282  0.6859 -1.8287 -1.3981
    7SAPS  C212  858   3.383   2.579   9.141  0.8182  0.0117  0.6019
    7SAPS  H12R  859   3.419   2.639   9.057  0.5540 -0.9269 -0.1939
    7SAPS  C213  860   3.273   2.492   9.081 -0.5260  0.5413 -0.3885
    7SAPS  H13R  861   3.202   2.465   9.163  0.1563  0.3127  0.1356
    7SAPS  H13S  862   3.311   2.392   9.051 -1.3144  0.2367 -0.3977
    7SAPS  C214  863   3.182   2.557   8.987 -0.8010 -0.4467  0.2447
    7SAPS  H14R  864   3.158   2.663   9.007 -0.8262  0.0478 -2.1082
    7SAPS  C215  865   3.142   2.507   8.873  0.4306 -0.1280 -0.3325
    7SAPS  H15R  866   3.073   2.572   8.816 -1.1996 -0.6822  0.9253
    7SAPS  C216  867   3.172   2.371   8.820  0.1200 -0.2067  0.2112
    7SAPS  H16R  868   3.078   2.316   8.838  0.2469 -0.5476 -0.1376
    7SAPS  H16S  869   3.247   2.319   8.884 -1.5334 -1.1420  1.4526
    7SAPS  C217  870   3.195   2.354   8.671  0.4618 -0.3166 -0.1353
    7SAPS  H17R  871   3.248   2.259   8.647 -0.7980 -0.5668 -2.1478
    7SAPS  H17S  872   3.259   2.436   8.633  2.2818  0.4901  4.1298
    7SAPS  C218  873   3.067   2.351   8.589  1.1538 -0.0259 -0.2770
    7SAPS  H18R  874   3.007   2.444   8.604  0.0764 -0.6029 -0.8569
    7SAPS  H18S  875   3.016   2.259   8.625 -1.8061  1.7085  0.2785
    7SAPS  C219  876   3.101   2.343   8.432 -0.2530  0.4003 -0.5819
    7SAPS  H19R  877   3.003   2.319   8.383 -0.8140  0.7480  0.3470
    7SAPS  H19S  878   3.174   2.261   8.416  0.0840  0.5035  0.3805
    7SAPS  C220  879   3.148   2.474   8.372 -0.1369  0.0103  0.0992
    7SAPS  H20R  880   3.075   2.554   8.398  0.2434  0.0333  1.1454
    7SAPS  H20S  881   3.163   2.474   8.262  0.5265 -0.9932  0.1755
    7SAPS  H20T  882   3.238   2.501   8.431 -1.2723  3.0556  0.6758
    7SAPS   C33  883   3.794   1.609   9.922 -0.0380 -1.0603 -0.0544
    7SAPS   H3X  884   3.702   1.548   9.930 -0.0622 -0.7995  1.9979
    7SAPS   H3Y  885   3.881   1.565   9.976 -0.4790 -0.3219  1.2769
    7SAPS   C34  886   3.827   1.625   9.770 -0.3279 -0.1153 -0.1541
    7SAPS   H4X  887   3.915   1.688   9.744  0.9934 -2.3561 -1.3535
    7SAPS   H4Y  888   3.740   1.681   9.731 -0.2008  2.2227  2.5589
    7SAPS   C35  889   3.837   1.501   9.697 -0.2232 -0.5486 -0.0288
    7SAPS   H5X  890   3.750   1.439   9.726  0.1113  0.0979  2.6809
    7SAPS   H5Y  891   3.931   1.446   9.722  2.0232  1.5142 -3.2525
    7SAPS   C36  892   3.829   1.539   9.544  0.2180 -0.1317 -0.0017
    7SAPS   H6X  893   3.905   1.611   9.508 -0.8362  0.6108 -0.8107
    7SAPS   H6Y  894   3.730   1.586   9.526  0.1737 -0.0910  0.3386
    7SAPS   C37  895   3.831   1.413   9.451  0.6489  0.0123  0.2871
    7SAPS   H7X  896   3.743   1.348   9.471  0.9937  0.3231  3.1718
    7SAPS   H7Y  897   3.918   1.351   9.481  1.1769  0.5892 -0.0234
    7SAPS   C38  898   3.839   1.459   9.298 -0.1574  0.4057 -0.3320
    7SAPS   H8X  899   3.769   1.541   9.274 -1.9981 -0.3191  2.1723
    7SAPS   H8Y  900   3.817   1.369   9.236  2.3805  0.6617 -1.7277
    7SAPS   C39  901   3.982   1.497   9.246  0.3167 -0.6671 -0.3031
    7SAPS   H9X  902   4.050   1.409   9.252  0.8274 -0.3427 -1.1918
    7SAPS   H9Y  903   4.025   1.583   9.301  1.3859  0.8031 -3.2128
    7SAPS  C310  904   3.971   1.555   9.099  0.1414 -0.4424 -0.4069
    7SAPS  H10X  905   4.072   1.595   9.073 -0.2566  1.1130  0.3056
    7SAPS  H10Y  906   3.897   1.637   9.087  0.3484 -0.3198 -0.8775
    7SAPS  C311  907   3.924   1.451   8.999  0.1866  0.5763  0.3229
    7SAPS  H11X  908   3.923   1.498   8.898  2.7504  0.5522  0.2192
    7SAPS  H11Y  909   3.825   1.409   9.028  0.0406 -1.5409 -2.7594
    7SAPS  C312  910   4.024   1.334   8.989  0.0280 -0.3304 -0.7949
    7SAPS  H12X  911   4.008   1.267   9.077 -2.2461  0.1593 -0.7647
    7SAPS  H12Y  912   4.127   1.375   8.979  0.2892 -1.2169 -1.9347
    7SAPS  C313  913   4.003   1.259   8.861  0.8039  0.2653  0.5035
    7SAPS  H13X  914   4.069   1.170   8.870  0.7200  0.2362  0.8546
    7SAPS  H13Y  915   4.039   1.313   8.771  1.2083  1.8262  1.5631
    7SAPS  C314  916   3.852   1.219   8.828  0.2519  0.0677 -0.0774
    7SAPS  H14X  917   3.785   1.307   8.813  1.1865  0.4481 -2.5209
    7SAPS  H14Y  918   3.808   1.165   8.915  1.2408  3.5313  2.8345
    7SAPS  C315  919   3.853   1.129   8.704 -0.3119 -0.4484  0.0385
    7SAPS  H15X  920   3.919   1.040   8.712  1.7897  0.9208 -1.0376
    7SAPS  H15Y  921   3.903   1.191   8.626 -0.8882  0.5599  0.4469
    7SAPS  C316  922   3.719   1.077   8.649 -0.2514  0.0131 -0.1334
    7SAPS  H16X  923   3.723   1.006   8.564 -3.9751  1.7284 -2.0012
    7SAPS  H16Y  924   3.664   1.162   8.603 -2.2541 -0.8856  0.4893
    7SAPS  C317  925   3.624   1.017   8.755 -0.5038 -0.8805 -0.5501
    7SAPS  H17X  926   3.613   1.081   8.845  2.6766 -2.7589  1.3799
    7SAPS  H17Y  927   3.667   0.919   8.785  0.6399  0.0669  1.0595
    7SAPS  C318  928   3.483   0.997   8.697 -0.7410 -0.3541 -0.0576
    7SAPS  H18X  929   3.450   1.091   8.647  2.1982  0.0040 -1.5700
    7SAPS  H18Y  930   3.415   0.979   8.783  0.7764  1.6390  1.6675
    7SAPS  H18Z  931   3.473   0.913   8.625  1.1781 -0.4966 -0.2088
    8SAPS     N  932   1.823   3.272  11.216  0.4555 -0.2278  0.1410
    8SAPS   HN1  933   1.845   3.326  11.301  0.5536 -0.5495  0.3236
    8SAPS   HN2  934   1.763   3.189  11.236  0.1896 -0.2471 -0.6859
    8SAPS   HN3  935   1.910   3.229  11.178 -1.1730 -3.1725 -0.6579
    8SAPS   C12  936   1.749   3.355  11.114 -0.1662  0.0334 -0.6322
    8SAPS  H12A  937   1.650   3.378  11.150 -0.3678 -0.2034 -1.0272
    8SAPS   C13  938   1.815   3.491  11.074  0.6506  0.2536  0.5139
    8SAPS  O13A  939   1.919   3.528  11.135  0.3165 -0.1568 -0.1196
    8SAPS  O13B  940   1.737   3.574  11.019  0.2740 -0.4945  0.3373
    8SAPS   C11  941   1.737   3.253  10.999  0.0658 -0.1012  0.9561
    8SAPS  H11A  942   1.842   3.228  10.971 -0.2890  0.4448 -0.9633
    8SAPS  H11B  943   1.687   3.304  10.915 -2.1032 -1.8791  1.0829
    8SAPS     P  944   1.501   3.111  11.019 -0.3237  0.5713  0.1933
    8SAPS   O13  945   1.461   2.980  11.078  0.0096 -0.4017  0.5148
    8SAPS   O14  946   1.435   3.239  11.065  0.0952  0.2064  0.1378
    8SAPS   O12  947   1.655   3.131  11.036 -0.3623  0.3143  0.3992
    8SAPS   O11  948   1.489   3.107  10.862  0.0820  0.7722 -0.2913
    8SAPS    C1  949   1.583   3.070  10.759 -0.4283  0.4252 -0.0011
    8SAPS    HA  950   1.534   3.086  10.660 -0.6100  1.8772  0.3069
    8SAPS    HB  951   1.670   3.138  10.756 -0.2158  0.1204 -2.0879
    8SAPS    C2  952   1.621   2.918  10.754 -0.3060 -0.5123  0.0788
    8SAPS    HS  953   1.678   2.881  10.841 -0.0541  0.7170  0.4578
    8SAPS   O21  954   1.690   2.902  10.628 -0.3905 -0.1624 -0.9694
    8SAPS   C21  955   1.786   2.809  10.617 -0.1159  0.2764 -0.5072
    8SAPS   O22  956   1.827   2.737  10.707  0.3645 -0.5853  0.2512
    8SAPS   C22  957   1.842   2.825  10.475 -0.0708 -0.3043  0.6799
    8SAPS   H2R  958   1.814   2.920  10.425 -1.4191 -1.4915 -0.9188
    8SAPS   H2S  959   1.953   2.820  10.482 -0.0712  0.9332  2.3221
    8SAPS    C3  960   1.500   2.820  10.756  0.7110 -0.1996 -0.4863
    8SAPS    HX  961   1.442   2.830  10.851  1.5250  0.5335 -0.0547
    8SAPS    HY  962   1.541   2.717  10.758  2.1268  0.2682 -2.4689
    8SAPS   O31  963   1.403   2.848  10.648 -0.3037 -0.0149  0.3764
    8SAPS   C31  964   1.410   2.763  10.544 -0.6603 -0.2061  0.6895
    8SAPS   O32  965   1.499   2.677  10.527  0.1373 -0.5523 -0.0455
    8SAPS   C32  966   1.315   2.806  10.443  1.1206  1.2503  0.8020
    8SAPS   H2X  967   1.228   2.862  10.482  0.8075  2.0226 -0.9371
    8SAPS   H2Y  968   1.260   2.719  10.401 -0.5137  1.2834  2.7222
    8SAPS   C23  969   1.795   2.711  10.381  0.3036 -0.0669  0.2798
    8SAPS   H3R  970   1.685   2.722  10.371  0.2960  0.1046  0.5606
    8SAPS   H3S  971   1.832   2.621  10.435  2.1924  1.1434  1.1162
    8SAPS   C24  972   1.871   2.710  10.242  0.4745 -0.5279 -0.4007
    8SAPS   H4R  973   1.976   2.687  10.269  0.4696 -0.2642 -0.1478
    8SAPS   H4S  974   1.874   2.820  10.227  1.6820 -0.3390  0.9763
    8SAPS   C25  975   1.814   2.630  10.133  0.1858 -0.0974 -0.0801
    8SAPS   H5R  976   1.704   2.623  10.131  0.2864 -2.2521 -0.6275
    8SAPS   C26  977   1.889   2.562  10.046 -0.8025  0.0536 -0.5709
    8SAPS   H6R  978   1.861   2.493   9.965 -0.1383 -0.1367 -0.6473
    8SAPS   C27  979   2.042   2.569  10.048  0.3738 -0.2625  0.4009
    8SAPS   H7R  980   2.085   2.662  10.091  0.0020 -0.4688  1.2455
    8SAPS   H7S  981   2.083   2.560   9.945  1.8046 -1.1350  1.0112
    8SAPS   C28  982   2.105   2.456  10.119 -0.5769  0.7032 -0.3993
    8SAPS   H8R  983   2.131   2.458  10.226  2.0295 -1.0097 -0.9167
    8SAPS   C29  984   2.146   2.344  10.061 -0.0409  0.5933 -0.0551
    8SAPS   H9R  985   2.190   2.268  10.128  0.8369  1.4023  0.3194
    8SAPS  C210  986   2.139   2.298   9.919 -0.1425 -0.4565  0.0163
    8SAPS  H10R  987   2.233   2.330   9.869  0.6580  0.2637  1.9139
    8SAPS  H10S  988   2.057   2.354   9.868  1.0782  1.3786 -0.0488
    8SAPS  C211  989   2.109   2.155   9.898  0.6441  0.1943 -0.0399
    8SAPS  H11R  990   2.128   2.102   9.993  1.3614  1.0110  0.2818
    8SAPS  C212  991   2.080   2.088   9.782 -0.0817  0.1812 -1.1234
    8SAPS  H12R  992   2.078   1.978   9.778 -1.0836  0.0443  1.4270
    8SAPS  C213  993   2.069   2.160   9.640  0.1246 -0.1170 -0.1277
    8SAPS  H13R  994   2.040   2.266   9.655 -2.3355 -0.5165 -1.5454
    8SAPS  H13S  995   2.001   2.105   9.572 -0.0277  0.5515 -0.5270
    8SAPS  C214  996   2.204   2.164   9.568  0.3605  0.4241 -0.4093
    8SAPS  H14R  997   2.297   2.157   9.626  0.3766  1.0096 -0.3538
    8SAPS  C215  998   2.214   2.173   9.432  0.4657 -0.1000 -0.6276
    8SAPS  H15R  999   2.305   2.141   9.378 -0.7311 -0.4068 -2.5779
    8SAPS  C216 1000   2.103   2.189   9.328 -0.6083  0.1009 -0.9476
    8SAPS  H16R 1001   2.006   2.212   9.376  0.2847  2.0366  0.0368
    8SAPS  H16S 1002   2.093   2.089   9.279  0.7555 -0.4249 -0.2114
    8SAPS  C217 1003   2.136   2.292   9.218 -1.2229  0.3283 -0.6433
    8SAPS  H17R 1004   2.169   2.388   9.263  1.5691 -1.3989  1.3650
    8SAPS  H17S 1005   2.055   2.304   9.143 -1.6328 -0.6506 -0.3747
    8SAPS  C218 1006   2.266   2.247   9.143 -0.3057 -0.3625 -0.2966
    8SAPS  H18R 1007   2.265   2.147   9.094 -0.5121  0.1015 -1.2506
    8SAPS  H18S 1008   2.353   2.249   9.212 -1.8541 -0.6413  1.7703
    8SAPS  C219 1009   2.299   2.335   9.027  0.7370 -0.1820 -0.6899
    8SAPS  H19R 1010   2.321   2.437   9.065  0.6746 -0.8035  1.0948
    8SAPS  H19S 1011   2.205   2.352   8.971 -0.1736 -1.4147  0.4060
    8SAPS  C220 1012   2.419   2.279   8.945  0.6895 -0.1219 -0.2000
    8SAPS  H20R 1013   2.504   2.268   9.016  0.6834  1.1512  0.0234
    8SAPS  H20S 1014   2.438   2.353   8.864  0.6488  0.9810  0.7602
    8SAPS  H20T 1015   2.392   2.178   8.907 -0.6684  0.1279  0.0352
    8SAPS   C33 1016   1.376   2.881  10.327 -0.6317 -0.4779 -0.8223
    8SAPS   H3X 1017   1.480   2.849  10.303  0.6267  1.8922  1.0300
    8SAPS   H3Y 1018   1.393   2.989  10.345  0.5633 -0.7607 -0.1180
    8SAPS   C34 1019   1.289   2.863  10.198  0.2761  0.4890  0.6838
    8SAPS   H4X 1020   1.195   2.913  10.231  1.4984  3.4537  0.0242
    8SAPS   H4Y 1021   1.272   2.757  10.173 -1.6067  1.4353 -2.5726
    8SAPS   C35 1022   1.350   2.933  10.069 -0.2255 -0.1311 -0.5418
    8SAPS   H5X 1023   1.435   2.873  10.030  0.2671 -0.4569  0.9612
    8SAPS   H5Y 1024   1.391   3.033  10.096  0.2104 -1.0237  2.4932
    8SAPS   C36 1025   1.249   2.941   9.951  0.3219  0.4428 -0.4275
    8SAPS   H6X 1026   1.166   3.012   9.967 -1.2891 -1.0937 -1.6608
    8SAPS   H6Y 1027   1.202   2.842   9.933  0.2914  0.2778  0.4988
    8SAPS   C37 1028   1.323   2.991   9.824  0.0532  0.2577 -0.2768
    8SAPS   H7X 1029   1.405   2.926   9.789  2.3786  2.5545  0.5284
    8SAPS   H7Y 1030   1.367   3.088   9.857 -2.1487  1.6214 -1.1279
    8SAPS   C38 1031   1.244   3.001   9.692  0.0996  0.1307  0.5942
    8SAPS   H8X 1032   1.202   3.104   9.683 -1.7758 -0.6103  0.4407
    8SAPS   H8Y 1033   1.164   2.924   9.701 -0.7453  1.0523  1.1689
    8SAPS   C39 1034   1.340   2.987   9.571 -0.1065 -0.8616  0.0595
    8SAPS   H9X 1035   1.406   2.898   9.586  0.2550 -0.6529 -0.2624
    8SAPS   H9Y 1036   1.414   3.070   9.578 -0.3809 -0.6713  0.7401
    8SAPS  C310 1037   1.270   2.980   9.432  0.2105  0.5167  0.3164
    8SAPS  H10X 1038   1.197   3.060   9.405 -1.4925 -1.5239 -1.4725
    8SAPS  H10Y 1039   1.198   2.897   9.446 -0.4584  1.2252  1.1473
    8SAPS  C311 1040   1.362   2.979   9.297  0.5219 -0.0269 -0.8616
    8SAPS  H11X 1041   1.449   3.047   9.306  1.4676 -1.2877 -0.0272
    8SAPS  H11Y 1042   1.299   3.007   9.209  0.7800  1.6700 -0.5389
    8SAPS  C312 1043   1.414   2.833   9.272 -0.2994  0.2022  0.5355
    8SAPS  H12X 1044   1.334   2.755   9.271  0.0041 -0.1166  0.6085
    8SAPS  H12Y 1045   1.477   2.812   9.361  1.3231  0.0088 -0.6304
    8SAPS  C313 1046   1.518   2.822   9.154  0.6933  0.4456  0.4151
    8SAPS  H13X 1047   1.573   2.726   9.154 -1.1627 -0.7053 -1.4295
    8SAPS  H13Y 1048   1.588   2.908   9.160  0.7497  0.3962  0.4654
    8SAPS  C314 1049   1.446   2.852   9.016  0.5148  0.6398 -0.0554
    8SAPS  H14X 1050   1.422   2.961   9.010  2.0499  0.9359 -1.5354
    8SAPS  H14Y 1051   1.342   2.814   9.015  0.9013 -0.4413 -1.5383
    8SAPS  C315 1052   1.526   2.813   8.897  0.1048  0.4279 -0.6222
    8SAPS  H15X 1053   1.469   2.841   8.805  1.6811  2.2013 -1.1345
    8SAPS  H15Y 1054   1.534   2.702   8.888 -0.4409  0.3914 -0.6869
    8SAPS  C316 1055   1.660   2.882   8.888 -0.7256  0.0618  0.3147
    8SAPS  H16X 1056   1.719   2.851   8.976  2.2835  1.3061 -1.1194
    8SAPS  H16Y 1057   1.637   2.991   8.885 -0.1750  0.1740  0.0907
    8SAPS  C317 1058   1.734   2.837   8.762 -0.0956  0.6666 -0.2240
    8SAPS  H17X 1059   1.658   2.838   8.682 -0.0879  1.3584 -0.2298
    8SAPS  H17Y 1060   1.762   2.729   8.771  0.0021  0.4044 -2.9809
    8SAPS  C318 1061   1.866   2.910   8.722  0.7234 -0.3826 -0.4014
    8SAPS  H18X 1062   1.896   2.886   8.618 -3.1977  0.3985 -1.8972
    8SAPS  H18Y 1063   1.942   2.883   8.798  0.1589  0.6057  0.5394
    8SAPS  H18Z 1064   1.843   3.017   8.739  0.3942 -0.5258  0.0949
    9SAPS     N 1065   4.268   5.225   6.169  1.1021 -0.0339  0.2468
    9SAPS   HN1 1066   4.332   5.287   6.221  0.2809 -0.5833  2.0008
    9SAPS   HN2 1067   4.193   5.284   6.128  0.3954 -1.5450 -0.7279
    9SAPS   HN3 1068   4.224   5.166   6.243 -0.4464 -1.3000 -1.5686
    9SAPS   C12 1069   4.334   5.130   6.076 -0.3015 -0.4388  0.0920
    9SAPS  H12A 1070   4.259   5.057   6.047 -1.3404  1.2191 -1.6321
    9SAPS   C13 1071   4.378   5.191   5.940  0.3037  0.5937 -1.0117
    9SAPS  O13A 1072   4.359   5.314   5.927 -0.2442  0.0878 -0.4095
    9SAPS  O13B 1073   4.426   5.123   5.845 -0.4136 -0.0585  0.2639
    9SAPS   C11 1074   4.468   5.083   6.137  0.3741 -0.7199  0.4565
    9SAPS  H11A 1075   4.522   5.179   6.151 -1.4924  0.5508 -0.5451
    9SAPS  H11B 1076   4.522   5.028   6.057  0.2522 -1.1093  0.6409
    9SAPS     P 1077   4.553   5.010   6.373 -0.3677  0.1653 -0.2041
    9SAPS   O13 1078   4.535   4.886   6.454  0.1636 -0.3249 -0.2792
    9SAPS   O14 1079   4.687   5.036   6.318  0.5343  0.3438 -0.1437
    9SAPS   O12 1080   4.445   5.007   6.253  0.4494  0.1613 -0.6450
    9SAPS   O11 1081   4.506   5.138   6.444 -0.2505  0.1237  0.1162
    9SAPS    C1 1082   4.591   5.226   6.522  0.1528 -0.0040 -0.5168
    9SAPS    HA 1083   4.679   5.256   6.461 -0.3302  0.4388 -1.0073
    9SAPS    HB 1084   4.540   5.318   6.558  1.3941  0.0776  1.1850
    9SAPS    C2 1085   4.651   5.172   6.659 -0.7139 -0.1539  0.3556
    9SAPS    HS 1086   4.707   5.079   6.635  0.4041 -0.0933  2.5475
    9SAPS   O21 1087   4.541   5.157   6.748  0.3673 -0.2590 -0.2994
    9SAPS   C21 1088   4.541   5.042   6.806  0.5409 -0.5273  0.5798
    9SAPS   O22 1089   4.620   4.951   6.811 -0.1839  0.4628  0.2123
    9SAPS   C22 1090   4.393   5.025   6.876 -0.5575  0.6112  0.3660
    9SAPS   H2R 1091   4.352   5.128   6.871 -0.1740  0.7192 -1.6544
    9SAPS   H2S 1092   4.342   4.952   6.809 -0.4091 -0.1136  1.0252
    9SAPS    C3 1093   4.757   5.272   6.708  0.0219  0.1049 -0.1053
    9SAPS    HX 1094   4.707   5.368   6.730 -2.6692 -1.7586  2.8090
    9SAPS    HY 1095   4.836   5.284   6.631  0.5990 -1.6765  0.1645
    9SAPS   O31 1096   4.823   5.231   6.832  0.3501  0.1959 -0.2763
    9SAPS   C31 1097   4.900   5.124   6.824 -0.0565  0.4502  0.0566
    9SAPS   O32 1098   4.934   5.070   6.719 -0.4721  0.2389  0.0792
    9SAPS   C32 1099   4.941   5.074   6.962 -0.2724  0.0377  0.2944
    9SAPS   H2X 1100   4.891   5.147   7.029  1.8310  1.3897  0.4748
    9SAPS   H2Y 1101   5.051   5.072   6.978 -0.1708 -1.4162 -0.4325
    9SAPS   C23 1102   4.407   4.967   7.020  0.0472 -0.3432 -0.2723
    9SAPS   H3R 1103   4.471   4.877   7.018 -0.8396 -1.0552  1.3874
    9SAPS   H3S 1104   4.300   4.950   7.045 -0.2931  0.9685 -0.6899
    9SAPS   C24 1105   4.474   5.062   7.118  0.5314 -0.9437  0.0439
    9SAPS   H4R 1106   4.584   5.047   7.112  0.8430 -1.1734  4.0955
    9SAPS   H4S 1107   4.443   5.027   7.218  1.1707 -1.5643  0.0306
    9SAPS   C25 1108   4.451   5.212   7.102  0.1378 -0.6437  0.1758
    9SAPS   H5R 1109   4.356   5.245   7.058 -0.5438 -0.9994  1.3260
    9SAPS   C26 1110   4.546   5.310   7.129 -0.0017 -0.8922  0.0562
    9SAPS   H6R 1111   4.509   5.414   7.124 -1.9324 -1.5320  0.3927
    9SAPS   C27 1112   4.694   5.297   7.172 -0.6344  0.6838 -0.5947
    9SAPS   H7R 1113   4.761   5.306   7.084 -0.1588 -0.5921 -0.3925
    9SAPS   H7S 1114   4.710   5.195   7.214 -0.6846  0.8286 -0.2170
    9SAPS   C28 1115   4.740   5.397   7.277  0.3019 -0.1910 -0.2630
    9SAPS   H8R 1116   4.806   5.478   7.244  0.6900 -1.1395 -1.9118
    9SAPS   C29 1117   4.698   5.389   7.407  0.7290  0.2755  0.5688
    9SAPS   H9R 1118   4.728   5.463   7.482 -0.7526 -0.8006  2.3155
    9SAPS  C210 1119   4.608   5.279   7.462  0.0666  0.5288 -0.2151
    9SAPS  H10R 1120   4.527   5.257   7.389  0.7685 -0.1528 -0.8013
    9SAPS  H10S 1121   4.553   5.314   7.552  1.7652 -0.5863  1.3307
    9SAPS  C211 1122   4.683   5.150   7.499 -0.1072 -0.0090  0.2712
    9SAPS  H11R 1123   4.664   5.071   7.426 -0.6238  0.5328 -0.1914
    9SAPS  C212 1124   4.751   5.133   7.614 -0.3167  0.0892  0.0507
    9SAPS  H12R 1125   4.792   5.034   7.640  0.6492  0.4866  0.0630
    9SAPS  C213 1126   4.751   5.229   7.727 -0.5577 -0.4736 -0.2526
    9SAPS  H13R 1127   4.736   5.182   7.827  1.6109  2.8186  1.8303
    9SAPS  H13S 1128   4.669   5.303   7.717  0.4041  0.4079 -1.9680
    9SAPS  C214 1129   4.881   5.304   7.733 -0.2700  0.5526 -0.0878
    9SAPS  H14R 1130   4.933   5.315   7.637  0.1003 -0.0762  0.0349
    9SAPS  C215 1131   4.940   5.355   7.842 -0.3707 -0.2455  0.2149
    9SAPS  H15R 1132   5.042   5.396   7.834 -0.5072  0.3506  1.3640
    9SAPS  C216 1133   4.886   5.355   7.983 -0.2560  0.7027 -0.0787
    9SAPS  H16R 1134   4.917   5.269   8.046  0.7242  1.5864  0.6707
    9SAPS  H16S 1135   4.775   5.349   7.970 -0.1647  0.7608 -0.9444
    9SAPS  C217 1136   4.916   5.486   8.061 -0.6346  0.9893 -0.4290
    9SAPS  H17R 1137   4.867   5.569   8.006  0.8240  1.8862 -0.3997
    9SAPS  H17S 1138   5.026   5.499   8.066 -0.7471  1.6770  0.7312
    9SAPS  C218 1139   4.865   5.489   8.211 -0.3030  0.5090 -0.0895
    9SAPS  H18R 1140   4.900   5.400   8.268 -1.2466 -0.5526 -1.1074
    9SAPS  H18S 1141   4.754   5.490   8.206 -0.3571  1.0880  0.9360
    9SAPS  C219 1142   4.910   5.616   8.284  0.4450 -0.1975  0.4585
    9SAPS  H19R 1143   4.858   5.710   8.258 -0.1047 -0.0050  2.1778
    9SAPS  H19S 1144   5.018   5.637   8.268  0.7841  0.0338  2.7314
    9SAPS  C220 1145   4.893   5.612   8.439 -0.5618  0.0042  0.0324
    9SAPS  H20R 1146   4.953   5.528   8.480  0.8654  1.0387  0.1658
    9SAPS  H20S 1147   4.790   5.579   8.465  0.0703 -0.6403  1.8773
    9SAPS  H20T 1148   4.924   5.707   8.488  2.5908 -0.7881 -0.2135
    9SAPS   C33 1149   4.898   4.938   7.003  0.4152 -0.0027 -0.1403
    9SAPS   H3X 1150   4.954   4.864   6.941  1.6189  0.8978 -0.1677
    9SAPS   H3Y 1151   4.791   4.925   6.979  0.1681 -0.0070  0.9422
    9SAPS   C34 1152   4.919   4.917   7.158 -0.3903 -0.1470  0.7392
    9SAPS   H4X 1153   4.873   5.006   7.208 -0.5015 -0.9717  2.1656
    9SAPS   H4Y 1154   5.021   4.903   7.199 -0.7136 -0.9594  1.2771
    9SAPS   C35 1155   4.847   4.795   7.193  0.2773  0.0604  0.0985
    9SAPS   H5X 1156   4.902   4.713   7.140  1.5916  0.4742  0.7900
    9SAPS   H5Y 1157   4.741   4.796   7.159  0.6260 -2.0751 -1.2571
    9SAPS   C36 1158   4.854   4.765   7.342  0.4605  0.7895 -0.2792
    9SAPS   H6X 1159   4.790   4.836   7.399 -0.0578 -1.0192  1.5425
    9SAPS   H6Y 1160   4.959   4.766   7.379  0.6058  1.5492 -0.6972
    9SAPS   C37 1161   4.792   4.624   7.369 -0.1283  0.7560  0.8501
    9SAPS   H7X 1162   4.840   4.542   7.311 -1.0780  0.5211  0.3733
    9SAPS   H7Y 1163   4.684   4.625   7.344 -0.4037 -2.6633  1.4940
    9SAPS   C38 1164   4.795   4.581   7.515 -0.2955  0.4533 -0.2497
    9SAPS   H8X 1165   4.897   4.578   7.558 -0.6434 -0.3382  0.5612
    9SAPS   H8Y 1166   4.758   4.476   7.524  2.2235 -0.5573 -0.9582
    9SAPS   C39 1167   4.701   4.657   7.609 -0.0556 -0.3543 -0.2050
    9SAPS   H9X 1168   4.600   4.619   7.581 -0.0737  1.0466 -2.3332
    9SAPS   H9Y 1169   4.712   4.765   7.587  0.4993  0.3231  2.9597
    9SAPS  C310 1170   4.718   4.637   7.762  0.0438 -0.1918  0.1498
    9SAPS  H10X 1171   4.826   4.639   7.787 -0.0250 -2.2862  0.8412
    9SAPS  H10Y 1172   4.693   4.530   7.779  0.0591 -0.2135  0.0357
    9SAPS  C311 1173   4.630   4.738   7.843 -0.1152  0.6815  0.6087
    9SAPS  H11X 1174   4.610   4.700   7.945  0.8251  0.2453  0.6374
    9SAPS  H11Y 1175   4.541   4.766   7.783  1.5597  1.7254 -1.5261
    9SAPS  C312 1176   4.703   4.874   7.881 -0.2835  0.9466 -0.9701
    9SAPS  H12X 1177   4.750   4.907   7.786  2.1438  1.2485  0.2650
    9SAPS  H12Y 1178   4.793   4.841   7.935 -0.7919 -0.9182 -1.1949
    9SAPS  C313 1179   4.624   4.979   7.953  0.0285  0.3963 -0.3253
    9SAPS  H13X 1180   4.546   5.028   7.892 -0.0471  1.6523  0.7340
    9SAPS  H13Y 1181   4.699   5.060   7.966  2.7079 -2.0153  0.3300
    9SAPS  C314 1182   4.568   4.931   8.092  0.3195  0.4880 -0.2518
    9SAPS  H14X 1183   4.651   4.884   8.149 -1.2598 -2.4554 -0.2123
    9SAPS  H14Y 1184   4.499   4.847   8.071  2.3378 -0.7895 -2.1916
    9SAPS  C315 1185   4.489   5.034   8.172  0.3026 -0.1020  0.5381
    9SAPS  H15X 1186   4.430   4.985   8.252  0.4081 -1.1755 -0.0158
    9SAPS  H15Y 1187   4.411   5.072   8.103 -0.8968 -0.1989  1.8077
    9SAPS  C316 1188   4.568   5.148   8.238 -0.1737 -0.2178 -0.4508
    9SAPS  H16X 1189   4.612   5.214   8.161  2.0737 -1.7869 -0.6205
    9SAPS  H16Y 1190   4.645   5.107   8.306 -0.1798  1.9389  0.9449
    9SAPS  C317 1191   4.487   5.227   8.345  0.9695  0.1753 -0.4420
    9SAPS  H17X 1192   4.443   5.149   8.410  1.3045  0.4724  0.1442
    9SAPS  H17Y 1193   4.408   5.281   8.287  0.5676 -1.3123 -1.3261
    9SAPS  C318 1194   4.577   5.321   8.421  0.3583 -0.0930 -0.1901
    9SAPS  H18X 1195   4.622   5.396   8.352  0.1692 -0.0052 -0.2182
    9SAPS  H18Y 1196   4.663   5.262   8.460  0.6329 -0.7554 -1.7327
    9SAPS  H18Z 1197   4.520   5.375   8.499 -1.5731  0.0380 -1.6108
   10SAPS     N 1198   5.281   3.852   6.078  0.0759 -0.2965  0.3700
   10SAPS   HN1 1199   5.219   3.934   6.061  0.4697 -0.1142 -0.2287
   10SAPS   HN2 1200   5.299   3.807   5.986  2.2600 -0.8283  0.9929
   10SAPS   HN3 1201   5.221   3.792   6.138  2.7243 -1.5871  1.9311
   10SAPS   C12 1202   5.395   3.889   6.159 -0.1933  0.1131  0.1086
   10SAPS  H12A 1203   5.478   3.825   6.131  0.5537  1.4889 -0.9256
   10SAPS   C13 1204   5.451   4.029   6.136  0.5815  1.1047  0.4232
   10SAPS  O13A 1205   5.402   4.099   6.044 -0.0967 -0.1676  0.6190
   10SAPS  O13B 1206   5.549   4.064   6.194  0.1934 -0.3046 -0.1056
   10SAPS   C11 1207   5.363   3.881   6.318  0.3882  0.3077 -0.3631
   10SAPS  H11A 1208   5.278   3.951   6.337 -2.4797 -3.0429  0.0532
   10SAPS  H11B 1209   5.443   3.915   6.388  0.0293  0.7046 -0.1330
   10SAPS     P 1210   5.395   3.633   6.400  0.0684 -0.4883 -0.0616
   10SAPS   O13 1211   5.310   3.526   6.464 -0.5829  0.0437  0.6515
   10SAPS   O14 1212   5.486   3.595   6.292  0.2353  0.1848 -0.4525
   10SAPS   O12 1213   5.306   3.754   6.359  0.5328 -0.5708 -0.3421
   10SAPS   O11 1214   5.489   3.689   6.511 -0.3848 -0.2758  0.1654
   10SAPS    C1 1215   5.441   3.753   6.628 -0.4743  0.2515 -0.2512
   10SAPS    HA 1216   5.460   3.862   6.622  0.4342  0.1422  0.4636
   10SAPS    HB 1217   5.333   3.733   6.648 -1.0504  0.0801 -3.1366
   10SAPS    C2 1218   5.524   3.717   6.749  0.9908  0.1045 -0.6709
   10SAPS    HS 1219   5.489   3.774   6.837 -0.4718 -1.7684  0.0197
   10SAPS   O21 1220   5.665   3.736   6.721 -0.2699 -0.6626  0.0367
   10SAPS   C21 1221   5.708   3.860   6.748 -0.2995 -0.0497 -0.1516
   10SAPS   O22 1222   5.644   3.956   6.786  0.3020 -0.7745  0.1754
   10SAPS   C22 1223   5.859   3.874   6.717  0.6944  0.1184  0.2445
   10SAPS   H2R 1224   5.869   3.866   6.607 -0.8069  0.8998  0.0239
   10SAPS   H2S 1225   5.900   3.973   6.747 -0.2111  0.3816  0.6505
   10SAPS    C3 1226   5.489   3.565   6.781 -0.1584  0.4344 -0.3196
   10SAPS    HX 1227   5.545   3.540   6.874 -0.2390  2.6133  0.3695
   10SAPS    HY 1228   5.516   3.491   6.703 -0.7647 -2.0560  1.6716
   10SAPS   O31 1229   5.352   3.554   6.810  0.9729 -0.2442  0.9114
   10SAPS   C31 1230   5.308   3.434   6.861 -0.4702 -0.3013 -0.3915
   10SAPS   O32 1231   5.384   3.343   6.892  0.7194  0.1099  0.1555
   10SAPS   C32 1232   5.162   3.425   6.867  0.1418 -0.1903 -0.1866
   10SAPS   H2X 1233   5.136   3.323   6.902 -0.8869 -0.3989 -1.4894
   10SAPS   H2Y 1234   5.135   3.434   6.760  1.8840  0.8243 -0.5843
   10SAPS   C23 1235   5.943   3.763   6.783  0.7627  0.2107  0.2386
   10SAPS   H3R 1236   6.045   3.753   6.739  0.5268  0.8822 -0.4791
   10SAPS   H3S 1237   5.883   3.671   6.768 -0.3012  0.6848  1.4274
   10SAPS   C24 1238   5.992   3.790   6.923 -0.2475 -0.1440 -0.0122
   10SAPS   H4R 1239   6.050   3.884   6.930  0.4876 -0.5265 -0.7712
   10SAPS   H4S 1240   6.065   3.710   6.953  0.0298  1.2892  3.7536
   10SAPS   C25 1241   5.874   3.797   7.014 -0.5841  0.4120  0.3900
   10SAPS   H5R 1242   5.830   3.897   7.030 -0.6627  0.3286  0.6968
   10SAPS   C26 1243   5.815   3.692   7.067  0.6582 -0.2773  0.0892
   10SAPS   H6R 1244   5.740   3.717   7.142 -0.8597 -0.5853 -1.2746
   10SAPS   C27 1245   5.843   3.544   7.050 -0.2302  0.4012  0.1951
   10SAPS   H7R 1246   5.940   3.521   7.099  0.6998  2.7769 -0.4035
   10SAPS   H7S 1247   5.848   3.525   6.941  0.2544  1.2741  0.0609
   10SAPS   C28 1248   5.728   3.464   7.103 -0.2930 -0.2740 -0.6797
   10SAPS   H8R 1249   5.630   3.498   7.065  0.1232  1.2312 -0.4810
   10SAPS   C29 1250   5.740   3.378   7.207  0.2644  0.5823 -0.4448
   10SAPS   H9R 1251   5.658   3.310   7.234 -0.4386  1.0439 -1.3737
   10SAPS  C210 1252   5.871   3.349   7.279 -0.1135  0.1443 -0.4254
   10SAPS  H10R 1253   5.854   3.380   7.384 -1.1510  2.8383 -1.2898
   10SAPS  H10S 1254   5.964   3.404   7.252 -0.1049  1.1487  1.4924
   10SAPS  C211 1255   5.907   3.199   7.268 -0.3457 -0.0979 -0.0571
   10SAPS  H11R 1256   5.911   3.157   7.166 -1.3068 -2.2055  0.6970
   10SAPS  C212 1257   5.941   3.122   7.377  0.2709 -0.8836  0.8334
   10SAPS  H12R 1258   5.960   3.015   7.364  0.4307 -1.0626  2.3648
   10SAPS  C213 1259   5.943   3.158   7.521 -0.6280 -0.4883 -0.8034
   10SAPS  H13R 1260   5.837   3.140   7.547 -0.6953  0.7367 -0.1308
   10SAPS  H13S 1261   5.958   3.268   7.535 -1.5527 -0.6860  2.9414
   10SAPS  C214 1262   6.040   3.077   7.603 -0.4885  0.2065  0.6517
   10SAPS  H14R 1263   6.038   2.971   7.573 -0.0645  0.3048  0.2630
   10SAPS  C215 1264   6.111   3.112   7.712 -0.8223  0.2465 -0.8704
   10SAPS  H15R 1265   6.185   3.044   7.756  0.2887  0.7441 -1.8948
   10SAPS  C216 1266   6.113   3.252   7.776  0.2897 -0.6193  0.2291
   10SAPS  H16R 1267   6.086   3.325   7.696  0.4237 -0.1957  0.5668
   10SAPS  H16S 1268   6.217   3.289   7.788 -0.1658  0.9079 -0.2879
   10SAPS  C217 1269   6.047   3.265   7.910 -0.3345 -0.8205 -0.0048
   10SAPS  H17R 1270   5.941   3.254   7.879  0.3785 -0.4006 -2.9279
   10SAPS  H17S 1271   6.062   3.369   7.944 -1.5673 -0.7828  0.4927
   10SAPS  C218 1272   6.090   3.165   8.021 -0.4717 -0.1668 -0.3656
   10SAPS  H18R 1273   6.197   3.183   8.045 -0.3098 -0.7096 -0.6515
   10SAPS  H18S 1274   6.091   3.068   7.966 -1.0052  0.9971 -2.5381
   10SAPS  C219 1275   6.010   3.164   8.153  0.3096  0.1422  0.4516
   10SAPS  H19R 1276   5.927   3.094   8.130 -1.7633  2.4871  0.3516
   10SAPS  H19S 1277   5.962   3.261   8.176 -0.3493  0.5695 -2.3438
   10SAPS  C220 1278   6.094   3.119   8.277  0.3180 -0.1543  0.6310
   10SAPS  H20R 1279   6.182   3.181   8.305  0.6661  0.1662 -1.0498
   10SAPS  H20S 1280   6.147   3.024   8.258  1.7114  0.9110 -1.2882
   10SAPS  H20T 1281   6.036   3.112   8.371  0.1147  1.2618  0.6385
   10SAPS   C33 1282   5.089   3.536   6.952 -0.4520  0.4022  0.6081
   10SAPS   H3X 1283   4.981   3.510   6.944 -0.7793  1.8463  0.0805
   10SAPS   H3Y 1284   5.101   3.631   6.896 -0.4393 -1.6225 -3.1800
   10SAPS   C34 1285   5.141   3.530   7.094  0.1282  0.3504 -0.3838
   10SAPS   H4X 1286   5.247   3.565   7.096  0.5558 -0.9256  0.6150
   10SAPS   H4Y 1287   5.125   3.425   7.125  0.8401  0.3925  0.1622
   10SAPS   C35 1288   5.080   3.617   7.207 -0.5606  0.0692 -0.2897
   10SAPS   H5X 1289   4.969   3.619   7.204 -0.7574 -1.5269  2.3315
   10SAPS   H5Y 1290   5.102   3.726   7.201 -0.6160  0.1972  1.2900
   10SAPS   C36 1291   5.132   3.563   7.341  0.6388  0.1034  0.4810
   10SAPS   H6X 1292   5.243   3.561   7.341  0.6990  1.3914 -1.0868
   10SAPS   H6Y 1293   5.092   3.464   7.372  0.6774  0.4461  1.6581
   10SAPS   C37 1294   5.080   3.641   7.461  0.1074  0.2266 -0.3229
   10SAPS   H7X 1295   4.971   3.652   7.445 -0.1683  1.6155  2.0065
   10SAPS   H7Y 1296   5.123   3.743   7.462 -0.0130  0.2786 -0.4683
   10SAPS   C38 1297   5.119   3.571   7.595 -1.2956 -0.2566  0.5261
   10SAPS   H8X 1298   5.228   3.552   7.594 -0.8586  1.9662  0.0101
   10SAPS   H8Y 1299   5.067   3.475   7.616 -0.1848 -0.2934  3.5660
   10SAPS   C39 1300   5.091   3.663   7.713 -0.3861  0.2867 -0.2147
   10SAPS   H9X 1301   4.984   3.695   7.709 -1.6772 -3.6044 -1.6601
   10SAPS   H9Y 1302   5.161   3.749   7.712 -0.7646  0.6301  1.1070
   10SAPS  C310 1303   5.122   3.596   7.846 -0.3763 -0.2180  0.6630
   10SAPS  H10X 1304   5.231   3.580   7.855  0.1215  2.4704  0.2097
   10SAPS  H10Y 1305   5.075   3.496   7.855  1.0526 -0.9528  0.1554
   10SAPS  C311 1306   5.075   3.674   7.966  0.3897 -0.2010  0.7233
   10SAPS  H11X 1307   5.096   3.783   7.958  1.7350 -0.4034  1.3395
   10SAPS  H11Y 1308   5.132   3.652   8.058  0.2891  1.0297  1.0982
   10SAPS  C312 1309   4.930   3.624   8.013  0.2360 -0.3048  0.1967
   10SAPS  H12X 1310   4.937   3.514   8.024 -0.0495 -0.5906 -1.9812
   10SAPS  H12Y 1311   4.855   3.637   7.931 -0.1291 -0.1124  0.5575
   10SAPS  C313 1312   4.891   3.683   8.143 -0.1145  0.1600  0.1607
   10SAPS  H13X 1313   4.953   3.646   8.228 -0.1509  0.3354  0.2649
   10SAPS  H13Y 1314   4.783   3.662   8.156 -0.4260  1.4658 -0.1938
   10SAPS  C314 1315   4.909   3.839   8.149  0.0686  0.0359  0.6725
   10SAPS  H14X 1316   4.849   3.881   8.065  0.8926 -0.8401 -0.3898
   10SAPS  H14Y 1317   5.015   3.871   8.139  0.5448 -1.5172  0.5228
   10SAPS  C315 1318   4.853   3.899   8.280 -0.0413 -0.3875  0.2640
   10SAPS  H15X 1319   4.746   3.882   8.258 -0.3275  0.9320  0.5295
   10SAPS  H15Y 1320   4.853   4.010   8.285 -3.0244 -0.3487  1.1276
   10SAPS  C316 1321   4.902   3.830   8.414  0.8988 -0.8832  0.2172
   10SAPS  H16X 1322   4.868   3.725   8.424 -1.9645 -0.2342 -1.3924
   10SAPS  H16Y 1323   4.867   3.890   8.500 -0.7347  0.7975 -1.5201
   10SAPS  C317 1324   5.054   3.831   8.446 -0.0083 -0.0719  0.0756
   10SAPS  H17X 1325   5.086   3.933   8.419  1.9945 -0.7561 -0.3127
   10SAPS  H17Y 1326   5.117   3.755   8.395  1.9660 -0.2104  2.5293
   10SAPS  C318 1327   5.074   3.807   8.604 -0.7067 -0.0788  0.0942
   10SAPS  H18X 1328   5.181   3.809   8.633 -0.2564 -2.6209 -1.1254
   10SAPS  H18Y 1329   5.026   3.708   8.619 -1.1566 -0.2394 -2.0646
   10SAPS  H18Z 1330   5.018   3.877   8.669  0.2159  0.3355  0.4589
   11SAPS     N 1331   1.389   1.260   5.715  0.1263 -0.3031  0.7691
   11SAPS   HN1 1332   1.392   1.181   5.648  1.0859  0.0474  0.3674
   11SAPS   HN2 1333   1.454   1.253   5.796 -1.7725 -0.9701  2.2762
   11SAPS   HN3 1334   1.293   1.267   5.752 -0.1188 -3.0966  0.8898
   11SAPS   C12 1335   1.434   1.366   5.623  0.6116  0.6038  0.1330
   11SAPS  H12A 1336   1.539   1.386   5.637  0.7384 -0.2859  0.4974
   11SAPS   C13 1337   1.414   1.322   5.477 -0.4484 -0.3206 -0.0298
   11SAPS  O13A 1338   1.347   1.218   5.444  0.7854  0.0970  0.9845
   11SAPS  O13B 1339   1.448   1.402   5.385  0.9951 -0.3841 -0.0972
   11SAPS   C11 1340   1.360   1.497   5.661 -0.0968  0.4004 -0.8748
   11SAPS  H11A 1341   1.256   1.482   5.625 -0.6944  0.9123  0.5447
   11SAPS  H11B 1342   1.407   1.575   5.599  0.5118  0.2294 -0.6399
   11SAPS     P 1343   1.407   1.638   5.873  0.2339 -0.2557  0.9429
   11SAPS   O13 1344   1.550   1.650   5.858 -0.3029 -0.1706 -0.8230
   11SAPS   O14 1345   1.334   1.759   5.837  0.3471  0.5489  0.4414
   11SAPS   O12 1346   1.352   1.510   5.800 -0.0425 -0.3424  0.3177
   11SAPS   O11 1347   1.374   1.592   6.017  0.0915  0.1285 -0.5662
   11SAPS    C1 1348   1.447   1.480   6.074 -1.1316  0.8235 -0.6500
   11SAPS    HA 1349   1.467   1.396   6.004  2.6468  0.3566  0.7455
   11SAPS    HB 1350   1.547   1.515   6.107 -1.1090  0.0801  0.0908
   11SAPS    C2 1351   1.370   1.427   6.205 -1.1043 -0.1806  0.2011
   11SAPS    HS 1352   1.263   1.414   6.180 -1.4538  3.2153 -0.6871
   11SAPS   O21 1353   1.387   1.519   6.313 -0.2837 -0.0208 -0.6603
   11SAPS   C21 1354   1.295   1.614   6.324 -0.4021 -0.3564 -0.5747
   11SAPS   O22 1355   1.192   1.620   6.260 -0.0081 -0.0330 -0.2009
   11SAPS   C22 1356   1.333   1.711   6.441  0.0808  0.7463  0.1203
   11SAPS   H2R 1357   1.402   1.659   6.510 -1.2832 -2.2374 -0.5529
   11SAPS   H2S 1358   1.382   1.788   6.378 -0.1526 -0.5118 -1.6820
   11SAPS    C3 1359   1.426   1.293   6.248  1.1556  0.4908 -0.2095
   11SAPS    HX 1360   1.521   1.305   6.304  1.4766  0.3542 -0.7229
   11SAPS    HY 1361   1.442   1.228   6.160 -1.3189 -1.0755  0.4123
   11SAPS   O31 1362   1.318   1.218   6.318  0.0905 -0.0160 -0.4995
   11SAPS   C31 1363   1.368   1.145   6.417  0.1223 -0.6283  0.3265
   11SAPS   O32 1364   1.479   1.092   6.420 -0.1269 -0.3699  0.1743
   11SAPS   C32 1365   1.267   1.141   6.532 -0.9019 -0.4486  1.0302
   11SAPS   H2X 1366   1.179   1.198   6.498 -2.1816 -2.5375  0.6286
   11SAPS   H2Y 1367   1.309   1.198   6.617  0.4981  0.7310 -0.3828
   11SAPS   C23 1368   1.209   1.762   6.513  0.1704 -0.2603  0.3594
   11SAPS   H3R 1369   1.130   1.776   6.436  1.8910 -0.0203 -1.4739
   11SAPS   H3S 1370   1.243   1.864   6.544  0.0912  0.2936 -1.2514
   11SAPS   C24 1371   1.179   1.683   6.634  0.9810  0.0855 -0.1906
   11SAPS   H4R 1372   1.110   1.736   6.703  1.9381 -0.8856  1.5740
   11SAPS   H4S 1373   1.273   1.675   6.693  1.2150 -3.3149 -0.8267
   11SAPS   C25 1374   1.125   1.544   6.608 -0.1672  0.5371 -0.3504
   11SAPS   H5R 1375   1.077   1.521   6.511  0.9091 -0.0037 -0.7709
   11SAPS   C26 1376   1.143   1.444   6.699  0.1495 -0.2077  0.3735
   11SAPS   H6R 1377   1.117   1.341   6.670 -0.8939 -0.3531  1.7250
   11SAPS   C27 1378   1.203   1.463   6.838 -0.4659 -0.3006  0.9517
   11SAPS   H7R 1379   1.295   1.523   6.821 -0.9456  0.3122  0.4485
   11SAPS   H7S 1380   1.243   1.373   6.889 -0.5995  0.1772  1.9198
   11SAPS   C28 1381   1.118   1.537   6.941  0.3750  0.2634  0.4674
   11SAPS   H8R 1382   1.045   1.602   6.890 -1.0225 -0.0627  1.9656
   11SAPS   C29 1383   1.113   1.538   7.078 -0.8748 -0.0332 -0.9382
   11SAPS   H9R 1384   1.049   1.609   7.133 -1.1461 -0.7447 -0.3182
   11SAPS  C210 1385   1.202   1.459   7.174  0.6946 -0.0845  0.4370
   11SAPS  H10R 1386   1.257   1.535   7.234  0.0290  1.1318 -0.4501
   11SAPS  H10S 1387   1.286   1.415   7.116 -0.6676  0.0419 -1.7179
   11SAPS  C211 1388   1.117   1.371   7.265  0.4048 -0.2543  0.6173
   11SAPS  H11R 1389   1.083   1.281   7.212  3.1338 -1.2045  0.3372
   11SAPS  C212 1390   1.067   1.409   7.384 -0.2589 -0.4670  1.0607
   11SAPS  H12R 1391   1.026   1.333   7.452 -1.3068  0.0930  1.0583
   11SAPS  C213 1392   1.102   1.540   7.448 -0.2862 -0.6140  0.1549
   11SAPS  H13R 1393   1.122   1.620   7.375 -2.1029 -1.6519 -1.6083
   11SAPS  H13S 1394   1.199   1.515   7.494  0.2560 -0.5883 -0.9409
   11SAPS  C214 1395   0.991   1.594   7.540  0.4139 -0.1274 -0.5847
   11SAPS  H14R 1396   0.891   1.615   7.499 -0.2384  2.6931  2.0427
   11SAPS  C215 1397   0.993   1.587   7.676 -0.1742 -0.0536  0.3937
   11SAPS  H15R 1398   0.905   1.613   7.736 -0.2280 -1.0797  0.7849
   11SAPS  C216 1399   1.110   1.532   7.754 -0.0384  0.4650 -0.2444
   11SAPS  H16R 1400   1.129   1.592   7.845 -0.7016  0.4854 -0.1155
   11SAPS  H16S 1401   1.204   1.537   7.694 -0.9758 -0.6198 -1.9170
   11SAPS  C217 1402   1.072   1.395   7.819 -0.4942 -0.4072  0.0200
   11SAPS  H17R 1403   1.158   1.367   7.883  0.0368  1.7012  0.2987
   11SAPS  H17S 1404   1.045   1.322   7.740 -1.8600 -1.2111  1.1687
   11SAPS  C218 1405   0.952   1.399   7.914 -0.0071  0.7125 -0.4016
   11SAPS  H18R 1406   0.858   1.405   7.854  0.2435  0.8621 -0.7855
   11SAPS  H18S 1407   0.953   1.498   7.964 -0.9570  0.7259 -0.3799
   11SAPS  C219 1408   0.946   1.281   8.005  0.1534 -0.3924  0.1403
   11SAPS  H19R 1409   1.027   1.280   8.082 -1.1861 -0.5456  1.5850
   11SAPS  H19S 1410   0.966   1.194   7.940  2.1796  0.9382 -1.1246
   11SAPS  C220 1411   0.810   1.259   8.071 -0.9218 -0.0146 -0.0370
   11SAPS  H20R 1412   0.740   1.235   7.988 -1.0736  1.4644 -0.3547
   11SAPS  H20S 1413   0.769   1.335   8.139  2.5018  1.3270  0.7514
   11SAPS  H20T 1414   0.827   1.164   8.126  1.6584 -0.2893 -1.1339
   11SAPS   C33 1415   1.222   0.999   6.560  0.3595 -0.1876 -0.2488
   11SAPS   H3X 1416   1.312   0.936   6.577 -0.0308 -0.0868  2.8351
   11SAPS   H3Y 1417   1.161   0.949   6.482  0.8433  1.7338 -1.9155
   11SAPS   C34 1418   1.143   1.002   6.691 -0.3174  0.7761 -0.2078
   11SAPS   H4X 1419   1.093   0.905   6.713 -1.9294  1.2632 -1.5101
   11SAPS   H4Y 1420   1.064   1.077   6.666 -1.5207 -0.0392  0.9484
   11SAPS   C35 1421   1.219   1.045   6.817  0.5538  0.1730  0.1129
   11SAPS   H5X 1422   1.255   1.150   6.810 -0.0276  0.3501 -0.4141
   11SAPS   H5Y 1423   1.308   0.979   6.825  0.9565  0.7011  0.0093
   11SAPS   C36 1424   1.133   1.027   6.944 -0.0296 -0.0702 -0.2761
   11SAPS   H6X 1425   1.090   0.925   6.933  1.4457 -0.5487 -2.2688
   11SAPS   H6Y 1426   1.044   1.094   6.952  0.5111  0.7263 -0.7849
   11SAPS   C37 1427   1.199   1.044   7.077  0.3002  0.2558  0.2535
   11SAPS   H7X 1428   1.230   1.150   7.086 -1.1348  0.7004  0.1332
   11SAPS   H7Y 1429   1.289   0.979   7.085  0.4727  0.4463 -0.1030
   11SAPS   C38 1430   1.118   0.992   7.195  0.5456  0.3538  0.3154
   11SAPS   H8X 1431   1.077   0.889   7.189 -1.0259  0.9310  0.6292
   11SAPS   H8Y 1432   1.030   1.060   7.188 -0.8480 -1.5055 -1.7281
   11SAPS   C39 1433   1.190   0.999   7.331 -0.5968  0.0849  0.5022
   11SAPS   H9X 1434   1.248   1.094   7.333  0.4123 -0.3514 -2.5558
   11SAPS   H9Y 1435   1.267   0.922   7.349 -0.0577  0.4693 -0.1076
   11SAPS  C310 1436   1.094   0.985   7.453 -0.3167 -0.4179 -0.3277
   11SAPS  H10X 1437   0.999   0.937   7.420  0.3091 -1.4465 -0.6967
   11SAPS  H10Y 1438   1.073   1.087   7.489  3.1577  0.3976 -0.2600
   11SAPS  C311 1439   1.148   0.904   7.574 -0.4217 -0.6289  0.8850
   11SAPS  H11X 1440   1.241   0.946   7.617  1.1546 -1.5110 -1.5147
   11SAPS  H11Y 1441   1.174   0.802   7.538 -2.4486 -0.8049 -0.2576
   11SAPS  C312 1442   1.032   0.896   7.670 -0.4657 -0.3668 -0.6203
   11SAPS  H12X 1443   0.943   0.878   7.606  1.2684 -1.2583 -2.9249
   11SAPS  H12Y 1444   1.023   0.994   7.722  0.3835 -1.5411  1.9107
   11SAPS  C313 1445   1.046   0.800   7.787 -0.3777 -0.1102  0.1836
   11SAPS  H13X 1446   1.153   0.811   7.812 -0.7939  1.8826  1.3145
   11SAPS  H13Y 1447   1.024   0.693   7.765  0.4148 -0.5740  1.5411
   11SAPS  C314 1448   0.956   0.841   7.900 -0.4283 -0.5134  0.4267
   11SAPS  H14X 1449   0.983   0.946   7.924  3.1050 -0.9534 -1.0030
   11SAPS  H14Y 1450   0.996   0.786   7.988  1.3601  0.0559  0.0174
   11SAPS  C315 1451   0.811   0.803   7.867  0.6024  0.2196  0.0656
   11SAPS  H15X 1452   0.806   0.692   7.858  0.3930 -0.1998  3.7532
   11SAPS  H15Y 1453   0.794   0.844   7.765 -1.8690  1.6495  0.9683
   11SAPS  C316 1454   0.713   0.856   7.976  0.1319  0.0307  0.1806
   11SAPS  H16X 1455   0.612   0.832   7.938 -0.3357  0.3442  1.2099
   11SAPS  H16Y 1456   0.718   0.967   7.978  0.1324  0.0601 -0.7944
   11SAPS  C317 1457   0.728   0.796   8.112  0.5149 -0.3410 -0.2949
   11SAPS  H17X 1458   0.831   0.797   8.153  0.3822 -1.7700  0.1068
   11SAPS  H17Y 1459   0.693   0.691   8.108 -0.3312 -0.0980  0.4178
   11SAPS  C318 1460   0.637   0.869   8.206  0.2609 -0.4519  0.0765
   11SAPS  H18X 1461   0.594   0.822   8.297 -0.3590  0.8731  0.4971
   11SAPS  H18Y 1462   0.545   0.898   8.151 -0.9076 -2.6081  0.7623
   11SAPS  H18Z 1463   0.699   0.955   8.238  0.8991 -1.2439  1.0229
   12SAPS     N 1464   0.530   2.316   5.814  0.2046  0.4762  0.1026
   12SAPS   HN1 1465   0.570   2.336   5.720 -0.2471 -1.1968 -0.4869
   12SAPS   HN2 1466   0.520   2.404   5.868 -1.2646  0.0017  0.6361
   12SAPS   HN3 1467   0.590   2.254   5.872  1.1730  0.3999 -0.9350
   12SAPS   C12 1468   0.397   2.249   5.787  0.6193 -0.3464  0.8871
   12SAPS  H12A 1469   0.332   2.327   5.753 -0.2827 -1.0307  1.0139
   12SAPS   C13 1470   0.384   2.136   5.680 -0.0391 -0.4371  0.3427
   12SAPS  O13A 1471   0.481   2.116   5.602 -0.3089 -0.1978  0.2187
   12SAPS  O13B 1472   0.277   2.066   5.678  0.0004  0.5959  0.3151
   12SAPS   C11 1473   0.344   2.216   5.926 -0.2965 -0.0070  0.1014
   12SAPS  H11A 1474   0.425   2.156   5.972  0.1243  1.6717  1.6501
   12SAPS  H11B 1475   0.257   2.147   5.924  0.0626 -0.5004  1.0350
   12SAPS     P 1476   0.180   2.396   6.021 -0.0682 -0.2418  0.1323
   12SAPS   O13 1477   0.183   2.543   5.997 -0.1155  0.1651 -0.4552
   12SAPS   O14 1478   0.074   2.319   5.945 -0.2680  0.4862  0.6331
   12SAPS   O12 1479   0.326   2.339   5.996 -0.1597  0.5511  0.3939
   12SAPS   O11 1480   0.166   2.371   6.173 -0.1230  0.1749  0.5323
   12SAPS    C1 1481   0.274   2.409   6.264 -0.5011 -0.1020 -0.2056
   12SAPS    HA 1482   0.354   2.463   6.210 -0.7561 -0.2267 -0.7197
   12SAPS    HB 1483   0.248   2.482   6.344  1.4010 -1.2142  1.5465
   12SAPS    C2 1484   0.339   2.287   6.328 -0.5211 -0.4202 -0.1841
   12SAPS    HS 1485   0.394   2.250   6.239  2.2225  3.0977 -0.1852
   12SAPS   O21 1486   0.240   2.198   6.391 -0.1037 -0.0613  0.7191
   12SAPS   C21 1487   0.294   2.077   6.414 -0.2291 -0.1060 -0.5477
   12SAPS   O22 1488   0.404   2.039   6.386  0.0095 -0.3075 -0.6336
   12SAPS   C22 1489   0.180   1.976   6.449 -0.4200  0.3588  0.3324
   12SAPS   H2R 1490   0.100   2.037   6.496 -0.7831 -1.0141  1.5687
   12SAPS   H2S 1491   0.155   1.934   6.349 -0.2101  0.0248  0.4188
   12SAPS    C3 1492   0.448   2.330   6.429  0.5136 -0.1523 -0.3870
   12SAPS    HX 1493   0.511   2.386   6.356 -1.3245  1.0798 -1.0906
   12SAPS    HY 1494   0.510   2.245   6.466  1.2333  0.4964 -0.0646
   12SAPS   O31 1495   0.406   2.421   6.533 -0.0834 -0.2925  0.1806
   12SAPS   C31 1496   0.359   2.356   6.641 -0.1024 -0.0057  0.0320
   12SAPS   O32 1497   0.364   2.236   6.663  0.1120 -0.3843  0.0411
   12SAPS   C32 1498   0.325   2.460   6.738  0.4021  0.0773 -0.0211
   12SAPS   H2X 1499   0.234   2.508   6.698  1.8118  0.5331 -2.9449
   12SAPS   H2Y 1500   0.400   2.542   6.730 -1.2486  1.7237  0.8140
   12SAPS   C23 1501   0.220   1.861   6.553 -0.1288 -0.0153  0.1923
   12SAPS   H3R 1502   0.284   1.777   6.518  1.6674  0.5040  2.0549
   12SAPS   H3S 1503   0.121   1.814   6.573 -1.4321  2.9443  1.2724
   12SAPS   C24 1504   0.267   1.937   6.676  0.6650  0.3043 -0.2959
   12SAPS   H4R 1505   0.230   2.041   6.680 -1.6444 -0.4731 -0.2268
   12SAPS   H4S 1506   0.376   1.956   6.668  0.6856  0.8732  1.0262
   12SAPS   C25 1507   0.228   1.856   6.794 -0.4777  0.1175 -0.9729
   12SAPS   H5R 1508   0.168   1.765   6.778  1.7271 -1.9135  1.6068
   12SAPS   C26 1509   0.282   1.860   6.913  1.2292  0.1332 -0.6518
   12SAPS   H6R 1510   0.258   1.787   6.993  0.6053  0.2116 -0.7591
   12SAPS   C27 1511   0.388   1.952   6.954 -0.7355 -0.6456  0.9674
   12SAPS   H7R 1512   0.425   2.004   6.863 -1.4401 -3.1871 -0.8736
   12SAPS   H7S 1513   0.474   1.903   7.005  0.7086  0.2598 -0.4678
   12SAPS   C28 1514   0.323   2.046   7.049 -0.1408 -0.3720 -0.4979
   12SAPS   H8R 1515   0.241   2.104   7.005  0.7898  0.9713 -0.4957
   12SAPS   C29 1516   0.344   2.048   7.184  0.9597 -0.0295 -0.4413
   12SAPS   H9R 1517   0.280   2.116   7.242  0.8558  0.9235 -1.6403
   12SAPS  C210 1518   0.436   1.970   7.273 -0.2494  0.5388  0.7214
   12SAPS  H10R 1519   0.494   1.899   7.211 -1.5706  1.9874 -2.4054
   12SAPS  H10S 1520   0.372   1.917   7.345  0.7231 -0.4361  0.8896
   12SAPS  C211 1521   0.523   2.059   7.349  0.2121  0.7739 -0.1913
   12SAPS  H11R 1522   0.517   2.168   7.333 -0.6536  0.6279 -0.9998
   12SAPS  C212 1523   0.620   2.010   7.433  0.2306  0.1136  0.6861
   12SAPS  H12R 1524   0.683   2.078   7.492 -1.3971  2.8990 -0.5957
   12SAPS  C213 1525   0.665   1.864   7.458  0.4676  0.0356  0.0305
   12SAPS  H13R 1526   0.776   1.856   7.457  0.5301  0.3155 -3.0666
   12SAPS  H13S 1527   0.629   1.798   7.377 -3.3390  1.4986  0.3358
   12SAPS  C214 1528   0.610   1.808   7.592 -0.4704  0.0003 -0.1813
   12SAPS  H14R 1529   0.515   1.753   7.588  1.1094 -3.0836  1.3316
   12SAPS  C215 1530   0.681   1.818   7.709  0.4617  0.3616 -0.0116
   12SAPS  H15R 1531   0.642   1.763   7.795 -1.2599  0.3426 -0.7535
   12SAPS  C216 1532   0.808   1.891   7.735 -0.1313  0.4441  0.4845
   12SAPS  H16R 1533   0.811   1.991   7.688 -2.1443  1.3629  2.1733
   12SAPS  H16S 1534   0.894   1.834   7.693 -0.7582 -1.1664  1.3054
   12SAPS  C217 1535   0.850   1.909   7.884  0.7491 -0.1899  0.5423
   12SAPS  H17R 1536   0.771   1.979   7.919  0.5460 -0.7723  1.2950
   12SAPS  H17S 1537   0.946   1.964   7.890  1.3870 -1.4158  3.1321
   12SAPS  C218 1538   0.865   1.783   7.971 -0.1798  0.3501 -0.4916
   12SAPS  H18R 1539   0.950   1.722   7.932 -0.3242 -0.4394  0.3813
   12SAPS  H18S 1540   0.770   1.726   7.978 -0.5380  0.9449 -0.5228
   12SAPS  C219 1541   0.896   1.817   8.124  0.0955 -0.4449  0.6648
   12SAPS  H19R 1542   1.001   1.848   8.141  0.2517  0.2541 -1.3169
   12SAPS  H19S 1543   0.875   1.726   8.184  0.1257 -1.6027 -1.0088
   12SAPS  C220 1544   0.813   1.930   8.188  0.0666 -0.7636 -0.7934
   12SAPS  H20R 1545   0.837   1.929   8.296  0.1445 -2.5549 -0.7950
   12SAPS  H20S 1546   0.703   1.927   8.168 -0.1492 -0.7295  0.3232
   12SAPS  H20T 1547   0.832   2.033   8.150 -1.3191 -1.2863 -3.0851
   12SAPS   C33 1548   0.303   2.407   6.877 -0.4413  0.2468  0.3968
   12SAPS   H3X 1549   0.382   2.345   6.922 -1.2795 -0.7682  0.5032
   12SAPS   H3Y 1550   0.218   2.336   6.881  0.8976 -1.6201 -1.8925
   12SAPS   C34 1551   0.286   2.530   6.970 -0.1486  0.1796 -0.2670
   12SAPS   H4X 1552   0.192   2.579   6.938  1.0977  3.0296  0.1625
   12SAPS   H4Y 1553   0.374   2.596   6.958  1.0922 -1.1809  0.8093
   12SAPS   C35 1554   0.287   2.497   7.117 -0.2255 -0.5035 -0.0212
   12SAPS   H5X 1555   0.218   2.411   7.123 -1.7382  0.4740 -2.0561
   12SAPS   H5Y 1556   0.236   2.578   7.174 -1.9338 -1.0490 -0.7212
   12SAPS   C36 1557   0.418   2.468   7.178 -0.5057  0.5298 -0.1458
   12SAPS   H6X 1558   0.494   2.549   7.174 -0.4138  0.4684  0.3183
   12SAPS   H6Y 1559   0.458   2.376   7.129 -0.2444 -0.6058  2.0466
   12SAPS   C37 1560   0.408   2.443   7.325 -0.0287  0.2325 -0.7037
   12SAPS   H7X 1561   0.349   2.350   7.342  1.7060 -0.4007  2.6266
   12SAPS   H7Y 1562   0.337   2.511   7.378 -0.5730 -1.1187  0.3666
   12SAPS   C38 1563   0.542   2.432   7.410 -0.0532 -0.0054 -0.3735
   12SAPS   H8X 1564   0.585   2.532   7.433  1.3874 -0.7816  0.4525
   12SAPS   H8Y 1565   0.616   2.368   7.356  0.5932 -0.1925  0.7093
   12SAPS   C39 1566   0.527   2.383   7.550  0.3299  0.8733 -0.2584
   12SAPS   H9X 1567   0.467   2.290   7.538  0.1686  1.2177 -2.4681
   12SAPS   H9Y 1568   0.465   2.455   7.607 -0.8012  0.8170 -1.3813
   12SAPS  C310 1569   0.663   2.362   7.627  0.1144  0.0024  0.6909
   12SAPS  H10X 1570   0.719   2.456   7.610 -0.3533 -0.1338 -2.1820
   12SAPS  H10Y 1571   0.718   2.292   7.560 -1.6593 -2.2880  1.4900
   12SAPS  C311 1572   0.655   2.321   7.775  0.1893  0.0047  0.7428
   12SAPS  H11X 1573   0.616   2.217   7.785 -1.5763  0.5899  0.2574
   12SAPS  H11Y 1574   0.582   2.392   7.818 -0.1297 -0.9934  1.8927
   12SAPS  C312 1575   0.791   2.319   7.838  0.0153  0.0440  0.3550
   12SAPS  H12X 1576   0.832   2.421   7.828 -0.6259  0.1615 -1.4975
   12SAPS  H12Y 1577   0.858   2.244   7.790  0.3541  0.3516  0.3493
   12SAPS  C313 1578   0.785   2.277   7.989  0.1844  0.5303 -0.0642
   12SAPS  H13X 1579   0.891   2.277   8.022  0.5688 -1.0824 -1.1888
   12SAPS  H13Y 1580   0.731   2.180   7.989 -2.7538  2.0278  0.6303
   12SAPS  C314 1581   0.707   2.380   8.070  0.1391 -0.1745  0.2833
   12SAPS  H14X 1582   0.603   2.387   8.030  0.2690  1.1045  0.1274
   12SAPS  H14Y 1583   0.752   2.480   8.051 -2.2543  0.8683 -0.3345
   12SAPS  C315 1584   0.700   2.347   8.224  0.1471 -0.0330  0.0553
   12SAPS  H15X 1585   0.807   2.354   8.255  1.0267 -1.4482 -2.3632
   12SAPS  H15Y 1586   0.668   2.241   8.238  1.6094 -1.4192 -4.9474
   12SAPS  C316 1587   0.608   2.448   8.305 -0.2378 -1.1866  0.2355
   12SAPS  H16X 1588   0.501   2.437   8.277 -0.3041  0.4513 -0.2289
   12SAPS  H16Y 1589   0.655   2.543   8.272 -1.5608 -0.4203  0.5186
   12SAPS  C317 1590   0.631   2.432   8.459  0.0353  0.2087 -0.5662
   12SAPS  H17X 1591   0.593   2.525   8.506  1.8371  0.7291 -0.0575
   12SAPS  H17Y 1592   0.740   2.428   8.480 -0.2425  0.6207  1.1039
   12SAPS  C318 1593   0.556   2.314   8.513  0.1400  0.0865  0.7218
   12SAPS  H18X 1594   0.448   2.333   8.497  0.2641 -1.2563 -2.3941
   12SAPS  H18Y 1595   0.567   2.317   8.624 -0.4364  0.8140  0.7676
   12SAPS  H18Z 1596   0.587   2.215   8.474 -0.3653  0.5341 -0.8586
   13SAPS     N 1597   6.401   6.492   5.897  0.5835  0.1151  0.4157
   13SAPS   HN1 1598   6.416   6.461   5.799  0.3644  2.9761 -0.6101
   13SAPS   HN2 1599   6.493   6.525   5.933  1.2894 -0.9158 -0.3675
   13SAPS   HN3 1600   6.355   6.420   5.956 -0.1298  0.9528  0.9080
   13SAPS   C12 1601   6.310   6.606   5.889  0.1065  0.6138  0.3208
   13SAPS  H12A 1602   6.361   6.673   5.822 -2.3609  1.4581 -0.8200
   13SAPS   C13 1603   6.170   6.579   5.828 -0.3912  0.3081 -0.0974
   13SAPS  O13A 1604   6.129   6.466   5.788 -0.3180 -0.0210  0.6275
   13SAPS  O13B 1605   6.085   6.673   5.846  0.6578  0.0335 -0.1192
   13SAPS   C11 1606   6.298   6.677   6.028  0.0604 -0.2870  0.6498
   13SAPS  H11A 1607   6.218   6.629   6.089  1.4394  0.0888  2.8740
   13SAPS  H11B 1608   6.264   6.781   6.009  2.1779  0.9167  2.8160
   13SAPS     P 1609   6.461   6.804   6.195 -0.2062  0.3959  0.0756
   13SAPS   O13 1610   6.611   6.789   6.219 -0.8116 -0.1868 -0.4173
   13SAPS   O14 1611   6.408   6.935   6.150 -0.0686 -0.0676  0.1189
   13SAPS   O12 1612   6.417   6.682   6.105 -0.4083  0.5416  0.3805
   13SAPS   O11 1613   6.385   6.769   6.328  0.3828 -0.1201  0.0964
   13SAPS    C1 1614   6.355   6.638   6.374  0.1608 -0.5258 -0.4853
   13SAPS    HA 1615   6.256   6.610   6.333 -1.3488  0.7916  1.9766
   13SAPS    HB 1616   6.437   6.565   6.358  0.4625 -1.2151  3.2949
   13SAPS    C2 1617   6.341   6.638   6.530 -0.3501 -0.0151 -0.8838
   13SAPS    HS 1618   6.257   6.708   6.549 -2.1195 -1.7953 -1.8691
   13SAPS   O21 1619   6.472   6.675   6.587  0.1192  0.7554  0.0734
   13SAPS   C21 1620   6.472   6.798   6.640 -0.0157  0.2590  0.2428
   13SAPS   O22 1621   6.369   6.858   6.668 -0.3976  0.7760  0.0392
   13SAPS   C22 1622   6.616   6.849   6.669  0.0695 -0.1040  0.4776
   13SAPS   H2R 1623   6.659   6.767   6.731 -0.2772 -0.0763  0.7603
   13SAPS   H2S 1624   6.670   6.862   6.573  0.6412 -4.4736 -0.0284
   13SAPS    C3 1625   6.300   6.498   6.579  1.0907  0.3640  0.1913
   13SAPS    HX 1626   6.296   6.505   6.690 -1.3682 -1.7487  0.3237
   13SAPS    HY 1627   6.378   6.425   6.547  0.5616  0.6214 -1.8207
   13SAPS   O31 1628   6.164   6.462   6.527 -0.0971 -0.3017  0.0731
   13SAPS   C31 1629   6.123   6.334   6.516  0.2562 -0.4874  0.3521
   13SAPS   O32 1630   6.190   6.238   6.546  0.3443 -0.4371 -0.2123
   13SAPS   C32 1631   5.996   6.338   6.433 -0.2554  0.3776 -0.3277
   13SAPS   H2X 1632   6.026   6.316   6.329 -0.0355 -0.8176 -0.0188
   13SAPS   H2Y 1633   5.946   6.437   6.429 -1.8326 -0.3190  0.9954
   13SAPS   C23 1634   6.603   6.976   6.753  0.2067 -0.2266 -0.7495
   13SAPS   H3R 1635   6.528   6.966   6.834  0.5539  0.7821 -0.2836
   13SAPS   H3S 1636   6.559   7.051   6.684  0.1495 -0.3915 -0.8927
   13SAPS   C24 1637   6.738   7.026   6.809  0.2977 -0.1108 -0.5177
   13SAPS   H4R 1638   6.727   7.136   6.821  0.0262 -0.0943 -0.8933
   13SAPS   H4S 1639   6.818   7.009   6.734 -1.4015 -0.6655 -2.2924
   13SAPS   C25 1640   6.766   6.955   6.937  0.3040 -0.5920 -0.1402
   13SAPS   H5R 1641   6.764   6.845   6.928 -1.6037 -0.6742  0.8273
   13SAPS   C26 1642   6.765   7.004   7.062 -0.2702  0.2074 -0.2827
   13SAPS   H6R 1643   6.757   6.932   7.145 -1.8447  1.2594  0.5355
   13SAPS   C27 1644   6.731   7.150   7.088 -0.5589  0.5237 -0.5442
   13SAPS   H7R 1645   6.729   7.156   7.199  1.1154  0.5204 -0.4971
   13SAPS   H7S 1646   6.625   7.166   7.056 -0.4520  1.7323 -0.3405
   13SAPS   C28 1647   6.824   7.266   7.054 -0.2102 -0.2580 -0.0714
   13SAPS   H8R 1648   6.930   7.248   7.079 -0.6928 -0.9863  1.5451
   13SAPS   C29 1649   6.789   7.385   7.018 -0.1514 -0.8940  0.5583
   13SAPS   H9R 1650   6.875   7.443   6.984 -0.8336  0.3887  0.9542
   13SAPS  C210 1651   6.645   7.438   6.998 -1.3675  0.3641 -0.0860
   13SAPS  H10R 1652   6.588   7.343   7.007  1.5177 -1.4340  0.2648
   13SAPS  H10S 1653   6.629   7.465   6.892  0.0406 -1.9966 -0.9810
   13SAPS  C211 1654   6.606   7.547   7.086  0.1519 -0.5721  0.6701
   13SAPS  H11R 1655   6.682   7.627   7.086 -0.1917 -0.2408  0.4914
   13SAPS  C212 1656   6.495   7.552   7.159 -0.2094  0.0397  0.7970
   13SAPS  H12R 1657   6.477   7.638   7.225 -0.0266 -1.7005  3.2546
   13SAPS  C213 1658   6.388   7.443   7.166 -0.2706  0.0897  0.0736
   13SAPS  H13R 1659   6.370   7.402   7.064  0.3196  1.3129 -0.5351
   13SAPS  H13S 1660   6.290   7.483   7.200  0.3398  0.3854  1.5579
   13SAPS  C214 1661   6.428   7.332   7.264 -0.3001 -0.7781 -0.0423
   13SAPS  H14R 1662   6.491   7.253   7.222 -1.8067 -1.7244 -0.6003
   13SAPS  C215 1663   6.386   7.323   7.391 -0.0526  0.3871 -0.1559
   13SAPS  H15R 1664   6.436   7.242   7.447 -0.6700 -0.0391 -0.2161
   13SAPS  C216 1665   6.304   7.417   7.469  0.4756  0.6656 -0.5889
   13SAPS  H16R 1666   6.203   7.372   7.479  0.0790  1.5941 -0.2615
   13SAPS  H16S 1667   6.290   7.513   7.413  3.0355  0.8014 -1.0910
   13SAPS  C217 1668   6.356   7.457   7.616 -0.4131 -0.4433  0.3358
   13SAPS  H17R 1669   6.279   7.518   7.668  0.0670 -0.3516  0.9549
   13SAPS  H17S 1670   6.447   7.520   7.603 -0.7645  0.4973  2.1114
   13SAPS  C218 1671   6.369   7.335   7.702 -0.4193 -0.2851 -0.5764
   13SAPS  H18R 1672   6.447   7.263   7.668 -0.1993 -0.5969  0.5503
   13SAPS  H18S 1673   6.277   7.273   7.698 -1.0512  0.6857 -1.5380
   13SAPS  C219 1674   6.386   7.365   7.854 -0.0412  0.0578  0.1202
   13SAPS  H19R 1675   6.470   7.437   7.861  0.0896  0.0788 -1.4396
   13SAPS  H19S 1676   6.419   7.269   7.900 -1.5619 -0.5785 -0.0739
   13SAPS  C220 1677   6.267   7.424   7.928 -0.1659  0.4807 -0.1818
   13SAPS  H20R 1678   6.218   7.511   7.878 -2.1813 -1.7390 -2.3478
   13SAPS  H20S 1679   6.279   7.441   8.037 -0.3869 -0.4003 -0.0133
   13SAPS  H20T 1680   6.188   7.346   7.917 -1.6069  1.5866  1.6155
   13SAPS   C33 1681   5.889   6.239   6.477 -0.1867  0.2376 -0.5013
   13SAPS   H3X 1682   5.933   6.138   6.467  0.7403  0.0344  3.7768
   13SAPS   H3Y 1683   5.805   6.254   6.406  0.5167  2.2233 -1.0050
   13SAPS   C34 1684   5.834   6.271   6.616 -0.3554  0.1016 -1.0916
   13SAPS   H4X 1685   5.795   6.375   6.610  0.9074  0.8023  1.5293
   13SAPS   H4Y 1686   5.914   6.269   6.692 -0.4076 -1.4558 -1.0491
   13SAPS   C35 1687   5.725   6.174   6.668 -1.0226 -0.2282 -0.1156
   13SAPS   H5X 1688   5.782   6.079   6.667 -0.5340  0.0517  0.4250
   13SAPS   H5Y 1689   5.639   6.168   6.599  0.0978 -1.4692 -1.4651
   13SAPS   C36 1690   5.690   6.213   6.813 -0.3621 -0.0212 -0.5546
   13SAPS   H6X 1691   5.637   6.308   6.787  0.8169  1.0855  0.9199
   13SAPS   H6Y 1692   5.781   6.241   6.870  1.9188  0.9942 -4.3271
   13SAPS   C37 1693   5.606   6.104   6.889 -0.2013  0.1491 -0.1269
   13SAPS   H7X 1694   5.671   6.016   6.904 -0.3108  0.4568  2.6792
   13SAPS   H7Y 1695   5.519   6.074   6.826  0.1328 -0.1565 -0.4435
   13SAPS   C38 1696   5.559   6.157   7.033 -0.7711 -0.2845 -0.2534
   13SAPS   H8X 1697   5.483   6.085   7.071 -0.3779 -0.3190  0.4834
   13SAPS   H8Y 1698   5.505   6.252   7.016  0.1937 -0.0973 -2.7449
   13SAPS   C39 1699   5.668   6.175   7.139  0.0458  0.4022 -0.2407
   13SAPS   H9X 1700   5.751   6.224   7.085 -0.6312  1.2506 -0.5476
   13SAPS   H9Y 1701   5.713   6.078   7.169  1.4912  0.6456 -1.5394
   13SAPS  C310 1702   5.609   6.245   7.270  0.3751 -0.1830  0.3172
   13SAPS  H10X 1703   5.529   6.180   7.311 -0.3316  0.3580 -0.1525
   13SAPS  H10Y 1704   5.563   6.340   7.234 -1.0538 -1.7022 -2.2456
   13SAPS  C311 1705   5.705   6.262   7.379 -0.3485 -0.2249  1.0841
   13SAPS  H11X 1706   5.767   6.349   7.348  0.6086 -0.6503  1.7374
   13SAPS  H11Y 1707   5.773   6.175   7.378  0.0177 -0.0349 -2.0203
   13SAPS  C312 1708   5.651   6.285   7.519 -0.5941  0.2918 -0.0749
   13SAPS  H12X 1709   5.555   6.233   7.536 -0.0147 -2.3532 -3.7907
   13SAPS  H12Y 1710   5.621   6.391   7.533 -0.3881  0.1835  1.4361
   13SAPS  C313 1711   5.747   6.226   7.636  0.3039  0.1571 -0.0083
   13SAPS  H13X 1712   5.842   6.283   7.628  0.3175  0.2151  0.5289
   13SAPS  H13Y 1713   5.761   6.117   7.621 -0.1861 -0.2309  1.9677
   13SAPS  C314 1714   5.677   6.246   7.775  0.3189 -0.1271 -0.5564
   13SAPS  H14X 1715   5.625   6.155   7.811 -0.2975  0.2336 -0.5244
   13SAPS  H14Y 1716   5.598   6.323   7.770 -0.2093 -0.6242  0.0050
   13SAPS  C315 1717   5.780   6.299   7.876  0.0210  0.2145  0.0500
   13SAPS  H15X 1718   5.797   6.405   7.850 -2.3957  0.6125 -0.1879
   13SAPS  H15Y 1719   5.877   6.245   7.877  0.4675  0.9924 -0.2221
   13SAPS  C316 1720   5.728   6.301   8.016  0.1117 -0.3366 -0.1634
   13SAPS  H16X 1721   5.682   6.205   8.046 -0.3012  0.2974  1.3341
   13SAPS  H16Y 1722   5.640   6.368   8.027 -0.6395 -0.5191 -3.9019
   13SAPS  C317 1723   5.826   6.340   8.122 -0.4038  0.1960 -0.5435
   13SAPS  H17X 1724   5.857   6.446   8.112 -1.3486  0.7203  1.4942
   13SAPS  H17Y 1725   5.905   6.263   8.110  0.2310  1.0191 -1.7355
   13SAPS  C318 1726   5.781   6.328   8.272  0.2103  0.1557  0.2156
   13SAPS  H18X 1727   5.692   6.393   8.284 -0.4905 -0.7616  0.1152
   13SAPS  H18Y 1728   5.869   6.353   8.334 -0.7165  2.5864  0.6639
   13SAPS  H18Z 1729   5.764   6.218   8.278  0.0917  0.2233  1.3122
   14SAPS     N 1730   1.236   6.789   5.899  0.4929 -0.5497 -0.2669
   14SAPS   HN1 1731   1.165   6.815   5.970 -0.1563 -0.2761 -1.0019
   14SAPS   HN2 1732   1.241   6.686   5.886  0.2233 -0.4804 -0.9535
   14SAPS   HN3 1733   1.324   6.817   5.947  0.8285 -2.1102  0.0763
   14SAPS   C12 1734   1.212   6.857   5.773  0.4528  0.2979 -0.1112
   14SAPS  H12A 1735   1.289   6.832   5.701 -1.1081 -1.4131 -1.2745
   14SAPS   C13 1736   1.080   6.817   5.707  0.5310 -0.3575  0.2627
   14SAPS  O13A 1737   1.010   6.727   5.761 -0.1974 -0.7180  0.7764
   14SAPS  O13B 1738   1.068   6.848   5.581  0.1937  0.0101  0.4034
   14SAPS   C11 1739   1.216   7.006   5.795  0.1891 -0.1662  0.5959
   14SAPS  H11A 1740   1.209   7.057   5.696  0.5415  1.4913  1.3770
   14SAPS  H11B 1741   1.308   7.046   5.845 -0.5275  0.9072  1.0964
   14SAPS     P 1742   1.040   7.196   5.871 -0.3733  0.1631 -0.0692
   14SAPS   O13 1743   1.137   7.296   5.824  0.2427 -0.8922 -0.3576
   14SAPS   O14 1744   0.921   7.173   5.791 -0.4991  0.4053 -0.7772
   14SAPS   O12 1745   1.103   7.047   5.873  0.1389 -0.6757 -0.6978
   14SAPS   O11 1746   1.003   7.235   6.017 -0.0407  0.3200 -0.1121
   14SAPS    C1 1747   1.084   7.209   6.136  0.4964 -0.8403  0.5503
   14SAPS    HA 1748   1.186   7.190   6.094 -0.2396 -3.8595 -0.0948
   14SAPS    HB 1749   1.075   7.295   6.206  0.5408 -1.9883  2.0144
   14SAPS    C2 1750   1.053   7.081   6.213  0.1900  0.0950  0.1160
   14SAPS    HS 1751   1.042   7.002   6.135 -0.0959 -0.3842  0.6344
   14SAPS   O21 1752   0.929   7.102   6.279 -0.0966 -0.1462 -0.6067
   14SAPS   C21 1753   0.870   6.982   6.326 -0.3738  0.1587  0.0865
   14SAPS   O22 1754   0.923   6.874   6.301  0.2956  0.3119 -0.4164
   14SAPS   C22 1755   0.731   7.001   6.381  0.5265  0.3774 -0.0061
   14SAPS   H2R 1756   0.669   7.058   6.308  1.2629 -0.2190 -1.1307
   14SAPS   H2S 1757   0.690   6.901   6.408 -0.5559  0.9621  0.5978
   14SAPS    C3 1758   1.164   7.045   6.318 -0.9298  0.2017 -0.4344
   14SAPS    HX 1759   1.268   7.044   6.281 -0.9180 -0.8675 -0.4202
   14SAPS    HY 1760   1.152   6.941   6.355 -1.2231  0.1624 -0.6353
   14SAPS   O31 1761   1.141   7.127   6.435 -0.1307 -0.2760  0.4066
   14SAPS   C31 1762   1.218   7.243   6.430 -0.0271  0.2312 -0.3528
   14SAPS   O32 1763   1.291   7.269   6.341  0.2850 -0.2116  0.5879
   14SAPS   C32 1764   1.209   7.317   6.562 -0.1215  1.2779 -0.2358
   14SAPS   H2X 1765   1.178   7.248   6.643 -0.0988  1.1353 -0.3472
   14SAPS   H2Y 1766   1.132   7.395   6.545  1.4812  2.7597 -1.0087
   14SAPS   C23 1767   0.721   7.076   6.515  0.1515  0.6469  1.5465
   14SAPS   H3R 1768   0.616   7.079   6.552  0.0267  0.2905  1.2246
   14SAPS   H3S 1769   0.753   7.182   6.505  1.5817  0.0790 -0.4606
   14SAPS   C24 1770   0.799   6.993   6.627 -0.1938  0.1500 -0.2983
   14SAPS   H4R 1771   0.909   6.993   6.613 -0.2951 -0.1596 -1.1204
   14SAPS   H4S 1772   0.767   6.888   6.613 -0.5028  0.1141  0.5763
   14SAPS   C25 1773   0.777   7.055   6.759  0.6061 -0.0369  0.1519
   14SAPS   H5R 1774   0.686   7.116   6.772  1.1911  0.3138  3.3465
   14SAPS   C26 1775   0.856   7.056   6.864  0.7229  0.2695 -0.0670
   14SAPS   H6R 1776   0.822   7.125   6.943  0.3199  0.8327 -0.7241
   14SAPS   C27 1777   0.986   6.995   6.867 -0.6566  1.1063  0.8579
   14SAPS   H7R 1778   1.051   7.048   6.794  1.1404 -1.1161  0.7289
   14SAPS   H7S 1779   0.964   6.891   6.835 -0.8071  1.6831 -1.0409
   14SAPS   C28 1780   1.052   6.998   7.001 -0.0196 -0.4587 -0.0697
   14SAPS   H8R 1781   1.001   7.045   7.086  3.5024 -0.6235  2.3016
   14SAPS   C29 1782   1.170   6.937   7.027 -0.8356 -0.1246  0.4159
   14SAPS   H9R 1783   1.211   6.942   7.129  0.4599  3.4971 -0.1328
   14SAPS  C210 1784   1.263   6.868   6.924 -0.0496 -0.1851 -0.1036
   14SAPS  H10R 1785   1.195   6.799   6.870 -0.8502 -0.2297  0.9378
   14SAPS  H10S 1786   1.347   6.816   6.976 -0.8892  0.6208  2.1830
   14SAPS  C211 1787   1.311   6.967   6.822 -0.0381 -0.4109  0.5494
   14SAPS  H11R 1788   1.283   7.073   6.830  3.3848  0.5978  0.7144
   14SAPS  C212 1789   1.372   6.937   6.704  0.3587 -0.1820 -0.0637
   14SAPS  H12R 1790   1.395   7.014   6.628 -3.2113 -0.7118 -1.9103
   14SAPS  C213 1791   1.405   6.796   6.665  0.0771  0.1277  0.1596
   14SAPS  H13R 1792   1.319   6.748   6.613  0.7371 -0.3283 -0.5364
   14SAPS  H13S 1793   1.420   6.731   6.754 -0.8988  1.6806  1.5113
   14SAPS  C214 1794   1.522   6.781   6.575  0.2973 -0.2293  0.9611
   14SAPS  H14R 1795   1.494   6.810   6.473 -1.8123  0.0486  1.5648
   14SAPS  C215 1796   1.646   6.746   6.595 -0.0895 -0.2239  0.0998
   14SAPS  H15R 1797   1.710   6.757   6.505 -0.8516  1.2317 -0.2894
   14SAPS  C216 1798   1.704   6.688   6.723 -0.3874 -0.0908 -0.3328
   14SAPS  H16R 1799   1.806   6.650   6.702  0.4599  2.6462 -1.7821
   14SAPS  H16S 1800   1.637   6.607   6.756 -0.8376  0.8353  1.1433
   14SAPS  C217 1801   1.726   6.782   6.846 -0.4486  0.1433  0.4822
   14SAPS  H17R 1802   1.630   6.835   6.862 -0.6594 -0.8158  2.7694
   14SAPS  H17S 1803   1.797   6.860   6.813 -1.4624  1.4680  1.3067
   14SAPS  C218 1804   1.765   6.702   6.972 -0.3276  0.5078  0.5616
   14SAPS  H18R 1805   1.865   6.658   6.953 -1.1850 -0.5995 -1.7043
   14SAPS  H18S 1806   1.686   6.624   6.979 -1.1949  1.3146 -0.0201
   14SAPS  C219 1807   1.767   6.783   7.102  0.2224  0.7465 -0.1982
   14SAPS  H19R 1808   1.665   6.825   7.113 -0.5186 -1.0623  0.2501
   14SAPS  H19S 1809   1.838   6.866   7.079 -0.4673  1.2372 -0.5880
   14SAPS  C220 1810   1.806   6.706   7.222 -0.2499 -0.2024  0.1422
   14SAPS  H20R 1811   1.903   6.654   7.210  0.6362  0.6939  2.7484
   14SAPS  H20S 1812   1.735   6.628   7.256 -1.0166  0.4821  0.1460
   14SAPS  H20T 1813   1.809   6.778   7.307 -2.4921 -1.3587  1.2951
   14SAPS   C33 1814   1.344   7.390   6.602 -0.4977  0.4250  0.1306
   14SAPS   H3X 1815   1.371   7.460   6.519  1.2052 -0.8667 -0.4683
   14SAPS   H3Y 1816   1.426   7.315   6.596 -0.5279  0.2646  1.4881
   14SAPS   C34 1817   1.334   7.464   6.736 -0.9187  0.0153 -0.5757
   14SAPS   H4X 1818   1.332   7.381   6.810  0.9648 -1.2664 -1.8776
   14SAPS   H4Y 1819   1.242   7.526   6.741  1.2633  3.3648  0.9391
   14SAPS   C35 1820   1.454   7.557   6.771  0.4451  0.2402 -0.2435
   14SAPS   H5X 1821   1.448   7.645   6.703  0.5426 -0.1437 -0.7505
   14SAPS   H5Y 1822   1.553   7.508   6.761  1.5182  2.4416 -0.9504
   14SAPS   C36 1823   1.444   7.597   6.918  0.3615 -1.0625  0.1571
   14SAPS   H6X 1824   1.436   7.505   6.980 -0.4840 -1.0286  0.1033
   14SAPS   H6Y 1825   1.351   7.656   6.931  0.2445 -1.4560  1.2250
   14SAPS   C37 1826   1.575   7.666   6.964 -0.1918  0.3428  0.3120
   14SAPS   H7X 1827   1.551   7.774   6.975 -1.9277 -0.2539  3.8608
   14SAPS   H7Y 1828   1.658   7.661   6.890  0.5266 -0.3995  1.1509
   14SAPS   C38 1829   1.615   7.610   7.095  0.0493  0.1723  0.7551
   14SAPS   H8X 1830   1.719   7.644   7.120  0.8977 -0.6622 -1.4321
   14SAPS   H8Y 1831   1.625   7.500   7.087 -0.2611  0.2924 -2.7761
   14SAPS   C39 1832   1.528   7.640   7.220 -0.2565  0.7765 -0.1893
   14SAPS   H9X 1833   1.421   7.629   7.194  0.0214 -2.0758 -0.4264
   14SAPS   H9Y 1834   1.551   7.743   7.255  1.1346 -0.0942  1.6058
   14SAPS  C310 1835   1.566   7.565   7.346  0.0765  0.4556  0.0167
   14SAPS  H10X 1836   1.676   7.549   7.352 -0.1127 -1.7655 -1.2063
   14SAPS  H10Y 1837   1.536   7.459   7.331  1.4754  0.1263 -0.6232
   14SAPS  C311 1838   1.495   7.610   7.473 -1.0684 -0.8825 -0.4475
   14SAPS  H11X 1839   1.391   7.641   7.448 -1.4379 -1.4335  0.3609
   14SAPS  H11Y 1840   1.527   7.706   7.519 -0.8645 -1.3312  0.3704
   14SAPS  C312 1841   1.513   7.512   7.588  0.0239 -0.3214  0.3601
   14SAPS  H12X 1842   1.621   7.517   7.611  0.6388 -1.2356 -2.0133
   14SAPS  H12Y 1843   1.493   7.407   7.558 -2.2241 -0.9404  3.5215
   14SAPS  C313 1844   1.427   7.538   7.713  1.1001 -0.0693 -0.3522
   14SAPS  H13X 1845   1.320   7.559   7.693  1.3453  2.1760  0.4522
   14SAPS  H13Y 1846   1.463   7.625   7.771  0.0294 -1.4735  2.5974
   14SAPS  C314 1847   1.416   7.412   7.807  0.3920  0.1375 -0.1999
   14SAPS  H14X 1848   1.520   7.392   7.841  0.3804 -0.7827 -0.6812
   14SAPS  H14Y 1849   1.381   7.319   7.758 -0.6606 -0.6693  1.9630
   14SAPS  C315 1850   1.323   7.419   7.933  0.1869  0.2720  0.4666
   14SAPS  H15X 1851   1.310   7.311   7.955  2.0255 -0.0773  0.0645
   14SAPS  H15Y 1852   1.221   7.455   7.910  1.4445  1.8894 -3.3332
   14SAPS  C316 1853   1.389   7.500   8.053 -0.1907 -0.2706  0.6814
   14SAPS  H16X 1854   1.368   7.609   8.043  0.3258 -0.2159  0.1694
   14SAPS  H16Y 1855   1.497   7.482   8.068 -0.1799  1.5728  3.4634
   14SAPS  C317 1856   1.324   7.467   8.188  0.4117  0.5597  0.3118
   14SAPS  H17X 1857   1.369   7.538   8.261 -0.0516  4.4268 -2.8380
   14SAPS  H17Y 1858   1.320   7.366   8.233 -0.3401  0.8618  0.9483
   14SAPS  C318 1859   1.181   7.517   8.191 -0.0867 -0.2483  0.5984
   14SAPS  H18X 1860   1.124   7.493   8.283 -1.7461  2.3330  0.3695
   14SAPS  H18Y 1861   1.123   7.468   8.110  0.3799 -0.0897  0.1595
   14SAPS  H18Z 1862   1.177   7.628   8.178  1.3493  0.1295  2.9352
   15SAPS     N 1863   6.610   1.216   5.835  0.2254  1.0119  0.2426
   15SAPS   HN1 1864   6.520   1.252   5.797 -0.6282 -1.2519 -0.0626
   15SAPS   HN2 1865   6.575   1.157   5.912 -0.7977  0.6865 -0.4450
   15SAPS   HN3 1866   6.666   1.298   5.866 -0.6085  1.1445  1.4635
   15SAPS   C12 1867   6.677   1.134   5.728 -0.2944  0.6252 -0.6523
   15SAPS  H12A 1868   6.643   1.033   5.745  0.2116  0.5562 -0.0289
   15SAPS   C13 1869   6.635   1.171   5.586 -0.3482  0.4145 -0.2740
   15SAPS  O13A 1870   6.532   1.244   5.573  0.1082 -0.0902 -0.2623
   15SAPS  O13B 1871   6.697   1.126   5.489 -0.1472 -0.2786 -0.1848
   15SAPS   C11 1872   6.832   1.135   5.737  0.5651  0.2037 -0.5493
   15SAPS  H11A 1873   6.862   1.232   5.693 -1.4469  0.8445 -0.6095
   15SAPS  H11B 1874   6.867   1.053   5.671 -0.9919  0.2504 -1.4920
   15SAPS     P 1875   7.045   1.103   5.879  0.2659  0.1950  0.3908
   15SAPS   O13 1876   7.077   0.970   5.813  0.2816  0.2964 -0.8505
   15SAPS   O14 1877   7.103   1.225   5.816  0.1969 -0.3077 -0.5136
   15SAPS   O12 1878   6.884   1.121   5.874 -0.1554  0.6419 -0.2377
   15SAPS   O11 1879   7.081   1.094   6.030  0.4532 -0.3332  0.0184
   15SAPS    C1 1880   7.059   1.193   6.131  0.2838 -0.2277 -0.2206
   15SAPS    HA 1881   7.150   1.245   6.168  0.3924 -1.3726  1.2317
   15SAPS    HB 1882   7.004   1.280   6.090  1.4988 -0.0065 -1.4321
   15SAPS    C2 1883   6.979   1.151   6.259  0.3228  0.0503  0.3018
   15SAPS    HS 1884   6.953   1.238   6.322 -0.5218  0.2238 -0.2611
   15SAPS   O21 1885   7.042   1.043   6.327 -0.1668  0.5317 -0.4749
   15SAPS   C21 1886   7.114   1.080   6.425 -0.5637  0.0194 -0.0925
   15SAPS   O22 1887   7.141   1.195   6.462 -0.6105  0.1773  0.0392
   15SAPS   C22 1888   7.169   0.957   6.492  0.1328  0.0978 -0.1875
   15SAPS   H2R 1889   7.082   0.889   6.506 -0.0721  0.7309  1.9856
   15SAPS   H2S 1890   7.242   0.920   6.417 -1.7695 -2.9459 -0.7395
   15SAPS    C3 1891   6.844   1.094   6.216 -0.3313 -0.2853 -0.3116
   15SAPS    HX 1892   6.855   0.994   6.169 -3.0705 -0.7625 -0.1146
   15SAPS    HY 1893   6.795   1.156   6.138  0.8733  0.8150 -0.2191
   15SAPS   O31 1894   6.749   1.085   6.316 -0.7595  0.4161 -0.2509
   15SAPS   C31 1895   6.757   0.965   6.388  0.7945 -0.4208  0.5698
   15SAPS   O32 1896   6.796   0.860   6.345  0.0585 -0.2552 -0.2009
   15SAPS   C32 1897   6.694   0.977   6.527  0.6878  0.1146  0.2808
   15SAPS   H2X 1898   6.596   0.925   6.521 -0.2669  1.7877  0.6115
   15SAPS   H2Y 1899   6.678   1.086   6.541  0.8124  0.1917 -0.1462
   15SAPS   C23 1900   7.243   0.987   6.629 -0.5197 -0.5212 -0.0904
   15SAPS   H3R 1901   7.165   1.019   6.702  0.2289 -0.2147  0.5872
   15SAPS   H3S 1902   7.316   1.070   6.615 -1.7282  0.5913  0.0437
   15SAPS   C24 1903   7.308   0.863   6.686 -0.2807 -0.1764 -0.1739
   15SAPS   H4R 1904   7.367   0.897   6.774  0.0822  1.3254 -0.9657
   15SAPS   H4S 1905   7.376   0.819   6.610 -1.6639  0.3886 -1.8014
   15SAPS   C25 1906   7.212   0.752   6.720 -0.0138 -0.5210  0.2746
   15SAPS   H5R 1907   7.186   0.696   6.629 -0.7761  0.8343 -0.3705
   15SAPS   C26 1908   7.159   0.712   6.840 -0.3542 -0.1557  0.4087
   15SAPS   H6R 1909   7.087   0.629   6.844 -0.1550 -0.2916  1.2466
   15SAPS   C27 1910   7.189   0.785   6.970 -0.8140  0.6927  0.0503
   15SAPS   H7R 1911   7.144   0.886   6.965 -0.0020  1.0235 -2.3976
   15SAPS   H7S 1912   7.299   0.803   6.978 -0.6553 -0.7593  1.8045
   15SAPS   C28 1913   7.151   0.717   7.093 -0.8067  0.4181 -0.3100
   15SAPS   H8R 1914   7.117   0.783   7.175 -2.7409 -1.7025  0.6917
   15SAPS   C29 1915   7.156   0.588   7.135  0.9940  0.5267 -0.3647
   15SAPS   H9R 1916   7.110   0.567   7.233 -1.2076 -1.5394 -1.7365
   15SAPS  C210 1917   7.201   0.456   7.064  0.4361  0.2722 -0.1707
   15SAPS  H10R 1918   7.155   0.449   6.963 -1.0046 -0.0278  0.4952
   15SAPS  H10S 1919   7.170   0.370   7.127 -0.0479  1.0688  0.6954
   15SAPS  C211 1920   7.352   0.450   7.041  0.1281  0.5350 -0.6616
   15SAPS  H11R 1921   7.387   0.524   6.967  2.2764  0.5066  0.2733
   15SAPS  C212 1922   7.451   0.390   7.103  0.7875 -0.0022 -0.3360
   15SAPS  H12R 1923   7.555   0.400   7.070  0.6018  1.7951 -0.4732
   15SAPS  C213 1924   7.440   0.306   7.224  0.8014 -0.6577 -0.4406
   15SAPS  H13R 1925   7.341   0.255   7.231 -0.2655  1.4655  1.1704
   15SAPS  H13S 1926   7.444   0.373   7.312 -0.4552 -0.1720 -0.7220
   15SAPS  C214 1927   7.553   0.197   7.226  0.5833  0.2939  0.6310
   15SAPS  H14R 1928   7.553   0.153   7.125  0.8726  1.3977  0.1353
   15SAPS  C215 1929   7.634   0.163   7.327 -0.8318  0.2036 -0.3376
   15SAPS  H15R 1930   7.703   0.080   7.308 -0.6493 -0.4071  2.6491
   15SAPS  C216 1931   7.630   0.223   7.466  0.4012  0.4868 -0.8119
   15SAPS  H16R 1932   7.570   0.316   7.459  0.0278  0.5130  1.7727
   15SAPS  H16S 1933   7.732   0.240   7.505  1.1751  1.5861 -3.1394
   15SAPS  C217 1934   7.565   0.127   7.572  0.1894 -0.4159  0.1878
   15SAPS  H17R 1935   7.570   0.169   7.675  0.4400  0.2648 -0.0923
   15SAPS  H17S 1936   7.615   0.028   7.582  0.2539 -0.2629  1.5659
   15SAPS  C218 1937   7.412   0.106   7.544 -0.7852 -0.0009  0.1801
   15SAPS  H18R 1938   7.416   0.047   7.450  1.2199 -0.2698  0.3982
   15SAPS  H18S 1939   7.356   0.202   7.535  1.2168  1.2536  0.3744
   15SAPS  C219 1940   7.352   0.025   7.664 -0.0763  0.1538 -0.3013
   15SAPS  H19R 1941   7.433  -0.045   7.694 -0.2521 -0.4987 -1.2934
   15SAPS  H19S 1942   7.269  -0.035   7.621 -0.7267 -0.2616  1.4600
   15SAPS  C220 1943   7.307   0.103   7.786  0.5902  0.3383  0.0263
   15SAPS  H20R 1944   7.387   0.179   7.803  0.1677  0.7900  0.0299
   15SAPS  H20S 1945   7.297   0.040   7.877  1.2597  0.9144  0.5096
   15SAPS  H20T 1946   7.209   0.145   7.754  1.0880  0.4251 -1.4564
   15SAPS   C33 1947   6.781   0.923   6.637  0.2762  0.0509 -0.1428
   15SAPS   H3X 1948   6.862   0.994   6.661  1.3471 -2.2044  3.9004
   15SAPS   H3Y 1949   6.830   0.831   6.599 -1.7103 -0.3582 -1.8768
   15SAPS   C34 1950   6.709   0.904   6.772 -0.3665 -0.5699  0.0636
   15SAPS   H4X 1951   6.780   0.844   6.833  0.1236  0.5036  0.5790
   15SAPS   H4Y 1952   6.623   0.834   6.759  1.1522 -2.6463  0.7648
   15SAPS   C35 1953   6.678   1.039   6.840 -0.4602 -0.1734 -0.2733
   15SAPS   H5X 1954   6.587   1.087   6.798 -2.2851 -1.3340  2.1561
   15SAPS   H5Y 1955   6.762   1.103   6.804 -1.6013  0.9091 -1.1013
   15SAPS   C36 1956   6.677   1.035   6.994  0.0315  0.2797  0.1031
   15SAPS   H6X 1957   6.775   0.990   7.022 -0.4694 -1.5800 -0.9303
   15SAPS   H6Y 1958   6.604   0.954   7.015  0.3842  0.1594  0.8834
   15SAPS   C37 1959   6.653   1.174   7.061  0.6126  0.0364  0.4728
   15SAPS   H7X 1960   6.556   1.209   7.020  1.8628  0.6374 -2.1536
   15SAPS   H7Y 1961   6.730   1.251   7.039  0.0253  1.0462  1.7992
   15SAPS   C38 1962   6.647   1.163   7.210  0.2306 -0.6817 -0.1419
   15SAPS   H8X 1963   6.750   1.152   7.250  0.3530  3.1673  1.0503
   15SAPS   H8Y 1964   6.583   1.076   7.235 -0.2606 -0.4679 -0.6326
   15SAPS   C39 1965   6.590   1.286   7.278 -0.1722  0.1297  0.2524
   15SAPS   H9X 1966   6.481   1.290   7.262  0.0112  0.1125 -1.0513
   15SAPS   H9Y 1967   6.633   1.380   7.238 -1.4721  1.4333  1.8103
   15SAPS  C310 1968   6.616   1.286   7.428  0.1801 -0.1167 -0.5252
   15SAPS  H10X 1969   6.724   1.276   7.454 -0.1036 -0.1303  0.7258
   15SAPS  H10Y 1970   6.572   1.189   7.461  3.8324 -1.7040  0.1888
   15SAPS  C311 1971   6.561   1.400   7.509 -0.4317 -0.3953 -0.4730
   15SAPS  H11X 1972   6.455   1.429   7.489 -0.3128  0.4406  0.0338
   15SAPS  H11Y 1973   6.620   1.492   7.488  0.5411 -0.5203  1.5269
   15SAPS  C312 1974   6.571   1.369   7.665 -0.2540 -0.1500  0.1520
   15SAPS  H12X 1975   6.488   1.308   7.707 -0.6398  0.0031 -0.3805
   15SAPS  H12Y 1976   6.561   1.474   7.700  1.4717  0.3063 -0.6666
   15SAPS  C313 1977   6.708   1.311   7.709 -0.6530 -0.1344  0.3415
   15SAPS  H13X 1978   6.789   1.361   7.651  0.7027 -0.8926  1.5148
   15SAPS  H13Y 1979   6.706   1.201   7.689 -5.0543 -0.0208 -0.7946
   15SAPS  C314 1980   6.741   1.331   7.850  0.0447 -0.2856  0.5310
   15SAPS  H14X 1981   6.665   1.293   7.922  0.3299 -0.6746  0.6298
   15SAPS  H14Y 1982   6.740   1.441   7.869  0.1780 -0.3877  1.1556
   15SAPS  C315 1983   6.880   1.275   7.886 -0.0286 -0.4277  0.2102
   15SAPS  H15X 1984   6.956   1.283   7.806  2.3903  0.7644  2.4741
   15SAPS  H15Y 1985   6.867   1.169   7.915 -3.1511  0.1324  1.2851
   15SAPS  C316 1986   6.942   1.356   7.998 -0.2321  0.4974 -0.1170
   15SAPS  H16X 1987   6.868   1.376   8.078 -0.7836 -0.4292 -0.3817
   15SAPS  H16Y 1988   6.974   1.454   7.956  0.9556  0.4512  0.6330
   15SAPS  C317 1989   7.068   1.287   8.059  0.6827  0.4652  0.9446
   15SAPS  H17X 1990   7.151   1.311   7.990 -1.1837  1.3335 -1.0994
   15SAPS  H17Y 1991   7.057   1.176   8.070  1.4381  0.6089  3.9939
   15SAPS  C318 1992   7.098   1.356   8.199  0.4119  0.4235 -0.0701
   15SAPS  H18X 1993   7.027   1.317   8.275  0.5706 -0.9441 -0.5961
   15SAPS  H18Y 1994   7.085   1.466   8.184 -0.2179  0.3541 -0.0872
   15SAPS  H18Z 1995   7.200   1.335   8.236  0.5774 -0.7213 -1.1198
   16SAPS     N 1996   2.372   3.100   6.071  0.0873  0.4623 -0.5799
   16SAPS   HN1 1997   2.383   3.111   5.968  2.3423  1.7514 -0.2666
   16SAPS   HN2 1998   2.284   3.151   6.094 -0.8853 -1.0150 -0.9215
   16SAPS   HN3 1999   2.445   3.158   6.118  1.4472 -2.5765  1.4064
   16SAPS   C12 2000   2.366   2.959   6.129  0.4551  0.0031 -0.0152
   16SAPS  H12A 2001   2.263   2.928   6.124  0.3248  0.5420 -0.7671
   16SAPS   C13 2002   2.469   2.857   6.062  0.2373 -0.0865  0.4217
   16SAPS  O13A 2003   2.516   2.890   5.947 -0.2797  0.0017 -0.0218
   16SAPS  O13B 2004   2.454   2.736   6.090  0.1572  0.1081  0.5984
   16SAPS   C11 2005   2.398   2.963   6.284  0.3019 -0.4339 -0.2177
   16SAPS  H11A 2006   2.494   3.015   6.301  0.0698  0.1879 -0.7204
   16SAPS  H11B 2007   2.399   2.858   6.320 -1.0792  0.3452  2.3442
   16SAPS     P 2008   2.169   2.980   6.418  0.2418  0.3150  0.0347
   16SAPS   O13 2009   2.113   3.084   6.511  0.2689 -0.4152 -0.2703
   16SAPS   O14 2010   2.078   2.944   6.310 -0.3021  0.1862 -0.1785
   16SAPS   O12 2011   2.300   3.038   6.358  0.0665  0.1757 -0.4744
   16SAPS   O11 2012   2.210   2.852   6.503 -0.2224 -0.2576 -0.1665
   16SAPS    C1 2013   2.320   2.843   6.588 -0.3620  0.4805 -0.1684
   16SAPS    HA 2014   2.354   2.739   6.568 -2.1185 -0.2775  0.5127
   16SAPS    HB 2015   2.397   2.921   6.571 -0.7715  1.0262  0.4170
   16SAPS    C2 2016   2.273   2.843   6.737 -0.2722 -0.5328  0.0544
   16SAPS    HS 2017   2.230   2.942   6.766 -0.9855  0.5315 -3.9856
   16SAPS   O21 2018   2.387   2.797   6.820 -0.4131 -0.0070 -0.0140
   16SAPS   C21 2019   2.477   2.894   6.839  0.0091  1.2848 -0.1253
   16SAPS   O22 2020   2.470   3.005   6.793 -0.1211 -0.0478  0.2918
   16SAPS   C22 2021   2.602   2.843   6.917  0.7251 -0.0557 -0.3158
   16SAPS   H2R 2022   2.565   2.775   6.996  1.2866 -0.4120 -0.3536
   16SAPS   H2S 2023   2.663   2.789   6.841  1.1618 -0.8198  0.5573
   16SAPS    C3 2024   2.156   2.745   6.753 -0.3715  0.0548 -0.5662
   16SAPS    HX 2025   2.198   2.644   6.740 -1.1264 -0.0823 -2.1995
   16SAPS    HY 2026   2.083   2.759   6.670  0.1952 -1.3467 -1.3360
   16SAPS   O31 2027   2.098   2.749   6.890 -0.2087 -0.0264 -0.4005
   16SAPS   C31 2028   1.980   2.804   6.906 -0.2697 -0.1101 -0.0475
   16SAPS   O32 2029   1.912   2.844   6.816  0.9971  0.2603  0.2125
   16SAPS   C32 2030   1.948   2.809   7.059 -0.8060  0.1228  0.1254
   16SAPS   H2X 2031   2.015   2.887   7.100 -1.3016 -0.5884  2.3833
   16SAPS   H2Y 2032   1.965   2.703   7.087  2.0848 -0.0655 -1.8295
   16SAPS   C23 2033   2.681   2.957   6.990  0.1363  0.3681  0.9339
   16SAPS   H3R 2034   2.606   3.037   7.008  1.0998  1.7581 -0.8478
   16SAPS   H3S 2035   2.758   2.995   6.919  0.3466 -0.3838  0.7466
   16SAPS   C24 2036   2.760   2.913   7.110 -0.0811  0.2727  0.0464
   16SAPS   H4R 2037   2.832   2.834   7.081  0.9640  1.2390 -0.0644
   16SAPS   H4S 2038   2.683   2.870   7.177  0.6901 -0.3149  0.5671
   16SAPS   C25 2039   2.829   3.021   7.185  0.2420 -0.4794 -0.0523
   16SAPS   H5R 2040   2.878   3.098   7.124  1.7290 -0.2729  1.3241
   16SAPS   C26 2041   2.819   3.040   7.319 -0.2802 -0.4998 -0.8205
   16SAPS   H6R 2042   2.852   3.136   7.362  1.0733 -2.4300  2.8727
   16SAPS   C27 2043   2.740   2.957   7.423 -0.2471 -0.2058  0.4907
   16SAPS   H7R 2044   2.685   2.869   7.383  0.0588  0.0231 -0.4596
   16SAPS   H7S 2045   2.669   3.014   7.487 -1.0110 -1.2602  0.6040
   16SAPS   C28 2046   2.851   2.913   7.514  1.3801  0.1754  0.1025
   16SAPS   H8R 2047   2.917   2.844   7.460 -0.7791 -1.3280 -0.7625
   16SAPS   C29 2048   2.867   2.936   7.646  0.3362 -0.8904 -0.0444
   16SAPS   H9R 2049   2.963   2.897   7.683 -0.0988 -0.7226  1.3178
   16SAPS  C210 2050   2.770   3.012   7.734 -0.0533 -0.0610 -0.0292
   16SAPS  H10R 2051   2.745   3.114   7.699  1.0329  1.0306  2.1558
   16SAPS  H10S 2052   2.827   3.028   7.828 -0.4150 -0.2015  0.2181
   16SAPS  C211 2053   2.635   2.942   7.755  0.2938  0.4371 -0.9189
   16SAPS  H11R 2054   2.584   2.921   7.660 -3.5749  2.4294  0.5186
   16SAPS  C212 2055   2.596   2.910   7.886  0.7165  0.2454 -0.2003
   16SAPS  H12R 2056   2.507   2.849   7.904  0.4665  0.6421 -0.0607
   16SAPS  C213 2057   2.662   2.947   8.016  0.7058 -0.7902 -0.4844
   16SAPS  H13R 2058   2.587   2.973   8.094  2.5098 -0.6794  1.3122
   16SAPS  H13S 2059   2.723   3.040   8.012  1.1384 -1.0619 -0.2744
   16SAPS  C214 2060   2.763   2.840   8.050 -0.7328  0.7060  0.1310
   16SAPS  H14R 2061   2.840   2.817   7.975 -0.8339  0.0313  0.2246
   16SAPS  C215 2062   2.775   2.769   8.168  0.3630  0.4280 -0.3716
   16SAPS  H15R 2063   2.829   2.673   8.165 -0.2594  0.0412  0.4233
   16SAPS  C216 2064   2.694   2.780   8.296  0.0305  0.3489  0.0659
   16SAPS  H16R 2065   2.651   2.681   8.321 -0.4044  0.0701 -1.7173
   16SAPS  H16S 2066   2.606   2.844   8.275  0.8283  1.3254 -0.4266
   16SAPS  C217 2067   2.766   2.838   8.420 -0.5201  0.1191  1.0055
   16SAPS  H17R 2068   2.683   2.890   8.475 -1.3300 -0.4276  0.3240
   16SAPS  H17S 2069   2.834   2.921   8.393  1.8992 -1.7855  0.9937
   16SAPS  C218 2070   2.832   2.735   8.513 -0.1486  0.0432  0.1040
   16SAPS  H18R 2071   2.930   2.706   8.469  1.1503  0.6129  2.4438
   16SAPS  H18S 2072   2.770   2.643   8.524  1.8111 -1.0826  2.9368
   16SAPS  C219 2073   2.877   2.789   8.649 -0.4972  0.2017 -0.3612
   16SAPS  H19R 2074   2.904   2.697   8.706 -0.2624  0.8684  0.6194
   16SAPS  H19S 2075   2.810   2.847   8.715  1.7451 -0.6424  2.8730
   16SAPS  C220 2076   2.988   2.887   8.628  0.0573 -0.3639  0.7523
   16SAPS  H20R 2077   2.951   2.985   8.592  2.0670 -0.3653 -1.6720
   16SAPS  H20S 2078   3.062   2.854   8.551 -1.7719 -1.2462 -0.7244
   16SAPS  H20T 2079   3.046   2.904   8.721 -0.6532 -1.1706  1.3636
   16SAPS   C33 2080   1.797   2.842   7.079  0.4321  0.4443 -0.5160
   16SAPS   H3X 2081   1.733   2.764   7.034  1.7721 -1.3263  0.5292
   16SAPS   H3Y 2082   1.780   2.939   7.027  0.1071 -0.0364 -1.3114
   16SAPS   C34 2083   1.751   2.864   7.221 -0.8178  0.1129 -0.8010
   16SAPS   H4X 2084   1.643   2.887   7.218 -0.9189 -0.0748  0.6983
   16SAPS   H4Y 2085   1.808   2.951   7.260  2.9846 -0.6412 -3.9680
   16SAPS   C35 2086   1.761   2.733   7.311 -0.2472 -0.1798  0.0283
   16SAPS   H5X 2087   1.862   2.708   7.348 -0.1101 -0.6146 -0.6241
   16SAPS   H5Y 2088   1.730   2.644   7.252  1.8727 -0.2931 -0.9963
   16SAPS   C36 2089   1.681   2.756   7.437  0.3938  0.3772 -0.3091
   16SAPS   H6X 2090   1.571   2.746   7.424 -0.2169  2.6940  2.0736
   16SAPS   H6Y 2091   1.692   2.860   7.477  1.0979  0.4539 -0.6929
   16SAPS   C37 2092   1.723   2.671   7.555  0.1816  0.1967  0.2151
   16SAPS   H7X 2093   1.828   2.689   7.584  0.2976 -1.1868  0.7533
   16SAPS   H7Y 2094   1.721   2.566   7.519  0.6100  0.6059 -1.0497
   16SAPS   C38 2095   1.624   2.676   7.662 -0.0865 -0.7514  0.5669
   16SAPS   H8X 2096   1.524   2.645   7.628 -0.8228  1.3657  0.6267
   16SAPS   H8Y 2097   1.599   2.780   7.693 -0.8822 -0.8860  0.3854
   16SAPS   C39 2098   1.660   2.604   7.786  0.1801  0.5048  0.3639
   16SAPS   H9X 2099   1.671   2.495   7.765 -2.3448  0.2470  0.0661
   16SAPS   H9Y 2100   1.584   2.611   7.867  1.5278  1.6769  1.5973
   16SAPS  C310 2101   1.783   2.645   7.853 -0.3747 -0.1013  0.2791
   16SAPS  H10X 2102   1.780   2.756   7.850 -0.1696 -0.1196 -2.3148
   16SAPS  H10Y 2103   1.862   2.604   7.787 -0.6162 -0.2841  0.1004
   16SAPS  C311 2104   1.802   2.584   7.994 -0.5731  0.2066  0.4773
   16SAPS  H11X 2105   1.912   2.573   7.993 -0.8005 -2.9061 -0.0873
   16SAPS  H11Y 2106   1.771   2.479   8.014 -1.5612  0.3842 -0.0548
   16SAPS  C312 2107   1.748   2.670   8.103  0.3611 -0.1621 -0.6347
   16SAPS  H12X 2108   1.639   2.654   8.089  0.2823 -0.6759  0.4472
   16SAPS  H12Y 2109   1.769   2.778   8.090 -1.6416  0.0588 -2.6177
   16SAPS  C313 2110   1.789   2.624   8.252  0.3273  0.2857 -0.0550
   16SAPS  H13X 2111   1.748   2.523   8.277  0.1947 -0.0443 -1.4810
   16SAPS  H13Y 2112   1.738   2.701   8.312  1.8286  0.4546  1.0615
   16SAPS  C314 2113   1.940   2.635   8.279  0.0052 -1.0902  0.1701
   16SAPS  H14X 2114   1.979   2.725   8.228 -1.1125  0.8814  2.6007
   16SAPS  H14Y 2115   1.985   2.556   8.215 -0.0512  0.1242 -1.4425
   16SAPS  C315 2116   1.983   2.641   8.425 -0.1360 -0.1083 -0.1044
   16SAPS  H15X 2117   1.934   2.715   8.492 -0.7433 -0.3779 -0.2447
   16SAPS  H15Y 2118   2.091   2.662   8.443  0.4307 -2.7321 -0.0870
   16SAPS  C316 2119   1.967   2.498   8.480 -0.1977  0.0778  0.8551
   16SAPS  H16X 2120   2.014   2.427   8.409  0.0672  0.9172  0.1693
   16SAPS  H16Y 2121   1.857   2.479   8.478  0.0611 -1.5432  0.4057
   16SAPS  C317 2122   2.005   2.465   8.622  0.3812  0.2795 -0.3383
   16SAPS  H17X 2123   1.969   2.363   8.647  0.7363 -0.9425 -4.1593
   16SAPS  H17Y 2124   1.940   2.524   8.690 -0.6256  0.2133 -1.2268
   16SAPS  C318 2125   2.158   2.468   8.659 -0.7071  0.0901 -0.0725
   16SAPS  H18X 2126   2.215   2.556   8.623  2.3575 -1.9976 -0.7218
   16SAPS  H18Y 2127   2.205   2.382   8.607 -1.3448 -0.5692  0.4114
   16SAPS  H18Z 2128   2.179   2.475   8.768  1.0100  2.3251 -0.4788
   17SAPC     N 2129   6.133   0.658  10.482  0.0511 -0.0565  0.2501
   17SAPC   C12 2130   6.099   0.715  10.346  0.6332  0.0978 -0.5970
   17SAPC  H12A 2131   5.993   0.736  10.349  0.2016 -1.9607  0.2486
   17SAPC  H12B 2132   6.136   0.653  10.266  1.5115  2.2877 -1.9753
   17SAPC   C13 2133   6.070   0.747  10.588  0.5360 -0.1032 -0.4912
   17SAPC  H13A 2134   6.090   0.711  10.688 -0.8839 -0.6198 -0.3693
   17SAPC  H13B 2135   6.102   0.850  10.586 -0.0381  0.1356  0.9834
   17SAPC  H13C 2136   5.963   0.758  10.576  0.7182  0.4799 -1.7485
   17SAPC   C14 2137   6.075   0.515  10.493  0.5606  0.0192  0.6159
   17SAPC  H14A 2138   6.095   0.464  10.399  2.8474 -1.0779  1.6190
   17SAPC  H14B 2139   6.139   0.464  10.563  2.9155  1.3766 -0.4166
   17SAPC  H14C 2140   5.973   0.524  10.526  0.1030 -1.2620 -0.3430
   17SAPC   C15 2141   6.280   0.658  10.502  0.4497  0.6418  0.3944
   17SAPC  H15A 2142   6.327   0.755  10.508  3.2964 -0.3827 -2.4068
   17SAPC  H15B 2143   6.314   0.617  10.596 -1.1484 -0.7659  0.4242
   17SAPC  H15C 2144   6.335   0.613  10.421  1.8138 -0.3874  1.8343
   17SAPC   C11 2145   6.161   0.858  10.318 -0.0185  0.3932 -0.2870
   17SAPC  H11A 2146   6.141   0.888  10.213  0.4889  2.2300  0.1029
   17SAPC  H11B 2147   6.271   0.857  10.333 -0.4909 -1.7652  5.1385
   17SAPC     P 2148   6.164   1.103  10.417 -0.1845  0.4417 -0.1576
   17SAPC   O13 2149   6.070   1.205  10.472  0.1566  0.1198  0.5034
   17SAPC   O14 2150   6.291   1.079  10.486 -0.1566 -0.1905  0.1549
   17SAPC   O12 2151   6.096   0.959  10.404 -0.1499 -0.5410  0.4839
   17SAPC   O11 2152   6.193   1.139  10.267 -0.4443  0.6057  0.4550
   17SAPC    C1 2153   6.087   1.191  10.186  0.4296 -0.2317  0.5116
   17SAPC    HA 2154   5.986   1.149  10.200  0.9165 -1.0602  1.7098
   17SAPC    HB 2155   6.077   1.298  10.214 -1.4245 -0.6089  1.4438
   17SAPC    C2 2156   6.136   1.180  10.039 -0.6428 -0.5549  0.4380
   17SAPC    HS 2157   6.200   1.269  10.019 -2.4399  0.9701  1.2381
   17SAPC   O21 2158   6.033   1.165   9.941  0.0923  0.0677  0.2228
   17SAPC   C21 2159   5.972   1.270   9.899  0.3607  0.4258 -1.6677
   17SAPC   O22 2160   6.006   1.380   9.950 -0.1243  0.2897  0.5860
   17SAPC   C22 2161   5.869   1.244   9.795  0.8341  0.4318  0.2555
   17SAPC   H2R 2162   5.913   1.157   9.741 -0.8604 -0.0615 -0.3995
   17SAPC   H2S 2163   5.775   1.212   9.845  0.2226  0.0311 -1.1028
   17SAPC    C3 2164   6.231   1.057  10.020  0.0834  0.1834 -0.0355
   17SAPC    HX 2165   6.165   0.968  10.026  2.6287 -1.9000 -0.6111
   17SAPC    HY 2166   6.321   1.052  10.085  2.3581 -1.2537 -3.0095
   17SAPC   O31 2167   6.289   1.043   9.888 -0.0201 -0.1332 -0.1537
   17SAPC   C31 2168   6.404   1.105   9.870  0.0529 -0.3929  0.0428
   17SAPC   O32 2169   6.482   1.149   9.954 -0.0769  0.0556  0.2874
   17SAPC   C32 2170   6.433   1.100   9.715 -0.4953  0.7902 -0.7046
   17SAPC   H2X 2171   6.348   1.153   9.668  0.6804  0.7082 -3.0903
   17SAPC   H2Y 2172   6.435   0.990   9.700 -1.0408  0.7726 -0.6673
   17SAPC   C23 2173   5.849   1.360   9.700  0.3364 -0.2964  0.4327
   17SAPC   H3R 2174   5.950   1.386   9.660 -1.0271  3.3205 -1.0723
   17SAPC   H3S 2175   5.813   1.453   9.749  0.5228  1.7608 -3.0149
   17SAPC   C24 2176   5.753   1.335   9.582 -0.4128  0.4127 -0.0771
   17SAPC   H4R 2177   5.672   1.266   9.617 -1.5560  1.3301 -0.8242
   17SAPC   H4S 2178   5.806   1.272   9.507 -0.0433 -2.0457  2.0920
   17SAPC   C25 2179   5.689   1.460   9.538 -0.0749 -0.3173 -0.3847
   17SAPC   H5R 2180   5.636   1.518   9.614  1.3469  0.1798  0.2524
   17SAPC   C26 2181   5.686   1.506   9.412  0.1902  0.0567  0.4062
   17SAPC   H6R 2182   5.638   1.604   9.401  1.4889  0.5565 -1.2768
   17SAPC   C27 2183   5.730   1.441   9.286 -0.9255  0.0390  0.2787
   17SAPC   H7R 2184   5.741   1.332   9.308  0.7365 -0.5206 -2.7946
   17SAPC   H7S 2185   5.829   1.481   9.257 -1.3763  0.4214 -0.7600
   17SAPC   C28 2186   5.630   1.444   9.174  1.0524 -0.5977 -0.8844
   17SAPC   H8R 2187   5.634   1.540   9.121  0.3316  0.6779  1.2768
   17SAPC   C29 2188   5.554   1.342   9.122  0.3203 -0.4417 -0.3516
   17SAPC   H9R 2189   5.487   1.383   9.046  1.0785  0.8930 -0.3253
   17SAPC  C210 2190   5.553   1.193   9.160  0.3195  0.7568 -0.2003
   17SAPC  H10R 2191   5.451   1.154   9.181  0.0599  2.1499  1.2925
   17SAPC  H10S 2192   5.604   1.187   9.258 -0.6816 -0.9775  0.2609
   17SAPC  C211 2193   5.624   1.105   9.061  0.2294  0.3293 -0.6073
   17SAPC  H11R 2194   5.732   1.127   9.053  1.3658 -3.0805  2.4431
   17SAPC  C212 2195   5.568   1.013   8.981 -0.1613  0.9337 -0.2423
   17SAPC  H12R 2196   5.627   0.972   8.897 -1.3075  1.0887 -1.1457
   17SAPC  C213 2197   5.422   0.970   8.984  0.2448  0.5715  0.0113
   17SAPC  H13R 2198   5.369   0.963   9.082  1.5236  0.8371  0.7595
   17SAPC  H13S 2199   5.426   0.863   8.955  2.3227  0.2983  1.0625
   17SAPC  C214 2200   5.341   1.060   8.903 -0.0565  0.2603  0.2566
   17SAPC  H14R 2201   5.386   1.158   8.878 -1.7234  0.4471 -2.4587
   17SAPC  C215 2202   5.224   1.031   8.846 -0.0737  0.0501  0.0091
   17SAPC  H15R 2203   5.185   1.110   8.779  4.2885  3.2831  0.8508
   17SAPC  C216 2204   5.144   0.900   8.852 -1.0056  0.3319 -0.1927
   17SAPC  H16R 2205   5.038   0.921   8.880 -0.5225  1.9292  0.6051
   17SAPC  H16S 2206   5.184   0.837   8.934 -0.9573  1.2615  0.5213
   17SAPC  C217 2207   5.159   0.808   8.724  0.1616 -0.0791 -0.3938
   17SAPC  H17R 2208   5.242   0.738   8.748 -1.0899 -0.7984  2.2428
   17SAPC  H17S 2209   5.176   0.865   8.630 -1.0977  0.9101 -0.0545
   17SAPC  C218 2210   5.038   0.717   8.707 -0.3964  0.0619 -0.2594
   17SAPC  H18R 2211   4.950   0.785   8.698 -0.0141  0.5776 -0.1266
   17SAPC  H18S 2212   5.023   0.643   8.788 -2.0761  0.9807  0.3190
   17SAPC  C219 2213   5.043   0.626   8.575 -0.2964 -0.0467 -0.0790
   17SAPC  H19R 2214   5.018   0.687   8.485  1.2944 -1.9789 -1.9431
   17SAPC  H19S 2215   4.963   0.551   8.590  0.1393 -1.1031 -2.4845
   17SAPC  C220 2216   5.168   0.541   8.554 -0.7967  0.1471  0.2474
   17SAPC  H20R 2217   5.130   0.462   8.485 -0.0422  0.0170 -0.0309
   17SAPC  H20S 2218   5.201   0.488   8.646  2.3305 -1.0357 -1.3859
   17SAPC  H20T 2219   5.249   0.602   8.507 -1.0056  0.4836  0.3293
   17SAPC   C33 2220   6.569   1.164   9.668 -0.0739 -0.3815 -0.2028
   17SAPC   H3X 2221   6.654   1.137   9.734  0.7229  1.3307 -0.4734
   17SAPC   H3Y 2222   6.553   1.274   9.664 -0.4741 -0.2527  2.7554
   17SAPC   C34 2223   6.597   1.119   9.525  0.2677 -0.0787 -0.0840
   17SAPC   H4X 2224   6.606   1.010   9.510 -0.5304  0.0835 -2.1070
   17SAPC   H4Y 2225   6.684   1.173   9.481 -1.2932  1.7199 -1.1355
   17SAPC   C35 2226   6.485   1.157   9.421  0.4558  0.1629 -0.5996
   17SAPC   H5X 2227   6.436   1.253   9.446 -0.1779  0.0125 -1.2502
   17SAPC   H5Y 2228   6.412   1.074   9.431  1.0467 -0.2229  0.7590
   17SAPC   C36 2229   6.537   1.166   9.277 -0.1416 -0.1468 -0.4136
   17SAPC   H6X 2230   6.610   1.082   9.276  1.5158  1.1616  1.8512
   17SAPC   H6Y 2231   6.592   1.262   9.270 -0.5968  0.2151  0.6770
   17SAPC   C37 2232   6.430   1.153   9.159 -0.1132  0.1816  0.1194
   17SAPC   H7X 2233   6.363   1.241   9.162 -0.1032  0.1701  1.0520
   17SAPC   H7Y 2234   6.376   1.057   9.173  1.1916 -0.9419 -1.9993
   17SAPC   C38 2235   6.501   1.143   9.020  0.4233  0.1005 -0.4469
   17SAPC   H8X 2236   6.537   1.039   9.002 -1.3387 -1.3058  3.1190
   17SAPC   H8Y 2237   6.576   1.225   9.022 -0.9929  1.4275  1.6473
   17SAPC   C39 2238   6.397   1.180   8.907 -0.9746 -0.5854 -0.4812
   17SAPC   H9X 2239   6.389   1.290   8.909 -0.9695 -0.5891 -0.2469
   17SAPC   H9Y 2240   6.303   1.136   8.946 -0.0507 -1.2263  1.1583
   17SAPC  C310 2241   6.445   1.161   8.764 -0.3685  0.6632 -0.1581
   17SAPC  H10X 2242   6.367   1.189   8.689 -0.5870  0.7971  0.1151
   17SAPC  H10Y 2243   6.469   1.053   8.753 -0.6286  0.6890 -1.0820
   17SAPC  C311 2244   6.569   1.257   8.731  0.0465 -0.5962 -0.5652
   17SAPC  H11X 2245   6.642   1.251   8.814  1.9538  1.4479 -1.9521
   17SAPC  H11Y 2246   6.544   1.366   8.725  3.1631  0.2541  0.1554
   17SAPC  C312 2247   6.627   1.211   8.592 -0.3797 -0.3969 -0.0560
   17SAPC  H12X 2248   6.633   1.100   8.588  3.3912 -0.3660  0.7258
   17SAPC  H12Y 2249   6.736   1.234   8.590  0.0755 -1.9313  2.3213
   17SAPC  C313 2250   6.564   1.271   8.464  0.5109 -0.4355 -0.0888
   17SAPC  H13X 2251   6.542   1.379   8.475  1.9508 -0.1292  0.0572
   17SAPC  H13Y 2252   6.474   1.209   8.447  0.2290 -0.0092 -0.1758
   17SAPC  C314 2253   6.645   1.264   8.333 -0.4731 -0.2326  0.1938
   17SAPC  H14X 2254   6.701   1.168   8.336  1.4865  0.8664 -0.1586
   17SAPC  H14Y 2255   6.721   1.343   8.344 -0.5676 -0.2961  1.4130
   17SAPC  C315 2256   6.565   1.274   8.210 -0.6763 -0.8909  0.2530
   17SAPC  H15X 2257   6.486   1.197   8.201 -3.8994  2.2509 -1.0596
   17SAPC  H15Y 2258   6.636   1.253   8.128  0.5445  0.1481  0.9993
   17SAPC  C316 2259   6.491   1.415   8.179  0.0665 -0.2107  0.5775
   17SAPC  H16X 2260   6.566   1.494   8.159 -0.2090 -0.1654 -0.3157
   17SAPC  H16Y 2261   6.432   1.437   8.271 -0.0827 -0.1953  0.4783
   17SAPC  C317 2262   6.398   1.399   8.063  0.7542 -0.4268 -0.4774
   17SAPC  H17X 2263   6.319   1.332   8.104 -0.7012  2.1232  1.1668
   17SAPC  H17Y 2264   6.457   1.342   7.989  0.3122 -1.0672 -0.3413
   17SAPC  C318 2265   6.345   1.532   8.014 -0.6078 -0.7947 -0.4805
   17SAPC  H18X 2266   6.261   1.522   7.942 -1.7705  2.5833  0.1836
   17SAPC  H18Y 2267   6.317   1.603   8.095  1.2956 -0.0640 -0.4132
   17SAPC  H18Z 2268   6.417   1.593   7.955  0.2913 -1.9045 -0.5600
   18SAPC     N 2269   5.874   6.342  10.574  0.0625 -0.2432  0.2892
   18SAPC   C12 2270   5.934   6.221  10.514  0.2527 -0.3499 -0.3156
   18SAPC  H12A 2271   5.940   6.233  10.407 -0.8246 -0.0739 -0.3507
   18SAPC  H12B 2272   5.865   6.139  10.527  1.0496 -1.1974 -1.2983
   18SAPC   C13 2273   5.837   6.327  10.718 -0.3875 -0.2191 -0.1442
   18SAPC  H13A 2274   5.782   6.410  10.761 -1.4480 -0.6009 -0.7479
   18SAPC  H13B 2275   5.762   6.250  10.727  1.0185 -1.6230 -0.0711
   18SAPC  H13C 2276   5.930   6.305  10.769  0.0704 -1.6487 -1.5055
   18SAPC   C14 2277   5.952   6.461  10.545  0.2709 -0.6136 -0.7138
   18SAPC  H14A 2278   5.982   6.482  10.444 -1.3443 -0.0029 -1.1047
   18SAPC  H14B 2279   5.882   6.538  10.575 -0.4350 -1.2508 -0.6913
   18SAPC  H14C 2280   6.043   6.461  10.602 -0.9874  0.4896  1.4295
   18SAPC   C15 2281   5.742   6.358  10.512 -0.1628  0.5564  0.2070
   18SAPC  H15A 2282   5.697   6.260  10.518  0.6742  0.2453  1.7086
   18SAPC  H15B 2283   5.688   6.437  10.562  0.8485  0.8452  0.8771
   18SAPC  H15C 2284   5.755   6.386  10.408  0.6724  1.1453  0.4553
   18SAPC   C11 2285   6.074   6.179  10.568  0.4983 -0.2890  0.8489
   18SAPC  H11A 2286   6.096   6.084  10.515 -0.5086  0.1935 -0.4776
   18SAPC  H11B 2287   6.083   6.158  10.677  1.8828 -0.9127  0.6376
   18SAPC     P 2288   6.309   6.288  10.591 -0.1790 -0.3109 -0.1073
   18SAPC   O13 2289   6.299   6.379  10.706 -0.5057 -0.1499 -0.6563
   18SAPC   O14 2290   6.371   6.156  10.615  0.1562 -0.1820 -0.0613
   18SAPC   O12 2291   6.171   6.277  10.527  0.3760 -0.3291  0.2038
   18SAPC   O11 2292   6.387   6.350  10.472 -0.3143 -0.0995 -0.7744
   18SAPC    C1 2293   6.350   6.476  10.418 -0.4325 -0.1860  0.8606
   18SAPC    HA 2294   6.245   6.502  10.440 -0.6000  0.1620 -0.2805
   18SAPC    HB 2295   6.404   6.568  10.449 -0.8170  0.8653 -1.3787
   18SAPC    C2 2296   6.354   6.483  10.258  0.0483  0.6384  0.0184
   18SAPC    HS 2297   6.295   6.568  10.216 -0.6864 -1.5292 -3.7878
   18SAPC   O21 2298   6.296   6.361  10.200 -0.2537  0.1339  0.3788
   18SAPC   C21 2299   6.172   6.341  10.229  0.3709  0.0326  0.4369
   18SAPC   O22 2300   6.090   6.426  10.264  0.0930 -0.0509  0.1315
   18SAPC   C22 2301   6.134   6.197  10.194  0.9396  0.4812  0.4519
   18SAPC   H2R 2302   6.152   6.136  10.285 -0.8676  0.8333  1.1006
   18SAPC   H2S 2303   6.025   6.193  10.173  0.6230 -1.0696  2.0649
   18SAPC    C3 2304   6.499   6.508  10.217 -0.2537  0.4755  0.2185
   18SAPC    HX 2305   6.567   6.441  10.274  0.5911  0.5622 -0.6628
   18SAPC    HY 2306   6.537   6.606  10.252  2.2658 -0.0192 -0.8919
   18SAPC   O31 2307   6.521   6.494  10.076 -1.0821  0.2520  0.3485
   18SAPC   C31 2308   6.547   6.370  10.031  0.7929 -0.0491  0.3471
   18SAPC   O32 2309   6.547   6.270  10.102 -0.3327  0.3734  0.0222
   18SAPC   C32 2310   6.568   6.378   9.876  0.2851 -0.1509 -0.4607
   18SAPC   H2X 2311   6.659   6.437   9.856  0.8188 -1.1017 -0.9302
   18SAPC   H2Y 2312   6.478   6.437   9.850 -0.6202 -0.4762  1.6996
   18SAPC   C23 2313   6.205   6.137  10.065  0.2076  0.2763  0.0395
   18SAPC   H3R 2314   6.186   6.028  10.069 -1.3604  0.4865 -0.7695
   18SAPC   H3S 2315   6.313   6.151  10.088 -0.2737  0.2471  2.6694
   18SAPC   C24 2316   6.169   6.195   9.926  0.4228 -0.4913 -0.3589
   18SAPC   H4R 2317   6.226   6.138   9.849  1.3915 -3.5255  2.3509
   18SAPC   H4S 2318   6.217   6.295   9.921 -0.7268  0.2305  1.8899
   18SAPC   C25 2319   6.019   6.198   9.890  0.1168 -0.5712 -0.0957
   18SAPC   H5R 2320   5.956   6.233   9.972 -0.4888  0.3559 -0.9305
   18SAPC   C26 2321   5.962   6.161   9.780 -0.0207 -0.4279 -0.2557
   18SAPC   H6R 2322   5.853   6.169   9.774 -0.1169  0.3908  1.9743
   18SAPC   C27 2323   6.040   6.102   9.663  0.1174  0.2276 -0.0892
   18SAPC   H7R 2324   6.102   6.011   9.677  0.2139 -0.0571 -2.0789
   18SAPC   H7S 2325   6.116   6.177   9.633  1.0967 -0.6667  0.1101
   18SAPC   C28 2326   5.956   6.075   9.539  0.9439  0.4459 -0.7878
   18SAPC   H8R 2327   5.912   5.974   9.541 -2.1019  1.6589  0.1680
   18SAPC   C29 2328   5.933   6.153   9.436  0.8347  0.7875  0.4831
   18SAPC   H9R 2329   5.875   6.130   9.346  1.2275  2.5454 -0.2758
   18SAPC  C210 2330   5.993   6.287   9.414 -0.6381  0.2082  0.2364
   18SAPC  H10R 2331   5.989   6.342   9.510  0.8466 -1.0114  1.0441
   18SAPC  H10S 2332   5.916   6.333   9.348 -2.0157 -2.6167 -0.2840
   18SAPC  C211 2333   6.131   6.305   9.363  0.0847 -0.0456 -0.8322
   18SAPC  H11R 2334   6.204   6.351   9.432 -0.9007  1.8914 -1.0026
   18SAPC  C212 2335   6.172   6.274   9.238 -0.4819  0.6441 -0.4506
   18SAPC  H12R 2336   6.278   6.285   9.211  0.7961 -3.1026  2.1307
   18SAPC  C213 2337   6.090   6.220   9.127  0.5239 -0.1555  0.5903
   18SAPC  H13R 2338   6.132   6.254   9.030 -1.2213 -0.3908 -0.2980
   18SAPC  H13S 2339   5.986   6.258   9.117  0.3974 -0.7560 -0.6071
   18SAPC  C214 2340   6.081   6.063   9.132  0.5647  0.4350 -0.7237
   18SAPC  H14R 2341   6.134   6.012   9.214 -0.7423 -2.2870 -1.4548
   18SAPC  C215 2342   6.039   5.987   9.030 -0.4949  0.4950  0.5167
   18SAPC  H15R 2343   6.049   5.878   9.027  1.9211  0.6465 -2.7014
   18SAPC  C216 2344   5.974   6.041   8.911  0.0885  0.2014  0.0094
   18SAPC  H16R 2345   5.936   6.143   8.936  1.3879  0.5273  0.7488
   18SAPC  H16S 2346   5.892   5.975   8.874  1.7054 -2.7569  1.3666
   18SAPC  C217 2347   6.074   6.064   8.789 -0.1912  0.3631  0.5452
   18SAPC  H17R 2348   6.128   5.977   8.747  1.9561  1.0617  1.7122
   18SAPC  H17S 2349   6.156   6.130   8.823 -0.0649 -0.1072  1.1596
   18SAPC  C218 2350   5.995   6.141   8.676  0.2279  0.1000 -0.0490
   18SAPC  H18R 2351   5.963   6.244   8.699  1.1441  1.1058 -2.8813
   18SAPC  H18S 2352   5.910   6.077   8.642 -0.8845  1.2898  0.4151
   18SAPC  C219 2353   6.083   6.158   8.550  0.6362 -0.4425  0.2083
   18SAPC  H19R 2354   6.016   6.198   8.471 -1.1039 -0.6730  1.5000
   18SAPC  H19S 2355   6.131   6.063   8.521  2.5215  0.9019 -1.3623
   18SAPC  C220 2356   6.192   6.258   8.575 -0.0142 -0.1410  0.2056
   18SAPC  H20R 2357   6.252   6.275   8.483 -0.1521  1.2758  0.3510
   18SAPC  H20S 2358   6.257   6.201   8.646  1.3850  0.3989 -0.6026
   18SAPC  H20T 2359   6.163   6.359   8.610 -0.1559 -0.4873  1.1252
   18SAPC   C33 2360   6.554   6.244   9.809  0.2814  0.1846  0.6049
   18SAPC   H3X 2361   6.481   6.177   9.859 -0.7440  2.1359  1.8894
   18SAPC   H3Y 2362   6.652   6.192   9.811 -0.1077 -0.5531  1.8488
   18SAPC   C34 2363   6.512   6.273   9.667 -0.1089  0.0542  0.2966
   18SAPC   H4X 2364   6.411   6.321   9.664 -0.2537 -0.2098  0.8392
   18SAPC   H4Y 2365   6.498   6.183   9.604 -0.9407  0.1112  0.3790
   18SAPC   C35 2366   6.612   6.369   9.590  0.2737 -0.7394 -0.5728
   18SAPC   H5X 2367   6.715   6.331   9.605  0.1502 -1.4530 -1.4564
   18SAPC   H5Y 2368   6.603   6.468   9.640 -0.3509 -1.5002  0.8970
   18SAPC   C36 2369   6.567   6.397   9.440  0.2899 -0.1712 -0.0869
   18SAPC   H6X 2370   6.580   6.504   9.411 -0.0125  0.4237  1.8325
   18SAPC   H6Y 2371   6.464   6.364   9.413 -0.3789  1.7086 -0.0262
   18SAPC   C37 2372   6.652   6.312   9.341  1.0072  0.2042  0.5152
   18SAPC   H7X 2373   6.651   6.205   9.372  0.3790  0.7295  2.4115
   18SAPC   H7Y 2374   6.756   6.350   9.330  1.3965 -1.5371 -3.6156
   18SAPC   C38 2375   6.579   6.330   9.206 -0.2930  0.2740  0.7056
   18SAPC   H8X 2376   6.559   6.436   9.182  1.4154  0.4123 -0.2419
   18SAPC   H8Y 2377   6.479   6.281   9.204 -0.3276  0.3508  0.5546
   18SAPC   C39 2378   6.666   6.279   9.082 -0.1800 -0.1207 -0.4993
   18SAPC   H9X 2379   6.686   6.169   9.085 -0.7940 -0.2186  0.7730
   18SAPC   H9Y 2380   6.757   6.339   9.064  0.3693 -0.6818  0.3020
   18SAPC  C310 2381   6.575   6.290   8.958  0.3344 -0.9970 -0.4524
   18SAPC  H10X 2382   6.527   6.390   8.951 -0.1385 -0.8485  2.9938
   18SAPC  H10Y 2383   6.491   6.217   8.958  0.3952 -1.1039  1.1720
   18SAPC  C311 2384   6.662   6.275   8.832  0.1138  0.1886  0.6023
   18SAPC  H11X 2385   6.707   6.173   8.830 -1.6018 -0.6330 -2.4299
   18SAPC  H11Y 2386   6.745   6.349   8.831  0.1686  0.1197 -0.0008
   18SAPC  C312 2387   6.570   6.289   8.706  0.1221  0.1397 -0.4892
   18SAPC  H12X 2388   6.529   6.391   8.720  2.4088  0.8333  1.7770
   18SAPC  H12Y 2389   6.484   6.222   8.726 -1.0389  0.8576 -2.7405
   18SAPC  C313 2390   6.640   6.253   8.576  0.1937  0.1169  0.1831
   18SAPC  H13X 2391   6.714   6.175   8.604 -0.2163 -0.1885  0.4313
   18SAPC  H13Y 2392   6.697   6.344   8.551 -1.3683  0.8914 -0.7018
   18SAPC  C314 2393   6.541   6.208   8.467 -0.1924 -0.3601  0.1075
   18SAPC  H14X 2394   6.476   6.293   8.438 -0.1501 -0.3309  0.0985
   18SAPC  H14Y 2395   6.472   6.134   8.513  0.2551 -0.8984 -0.0796
   18SAPC  C315 2396   6.611   6.147   8.348  0.3472  0.1014  0.4312
   18SAPC  H15X 2397   6.706   6.204   8.334  0.6226 -0.7040 -1.1045
   18SAPC  H15Y 2398   6.549   6.147   8.256  0.3459 -3.0645  0.3310
   18SAPC  C316 2399   6.632   5.990   8.368  0.3547  0.9528 -0.6252
   18SAPC  H16X 2400   6.531   5.944   8.368 -0.1406  1.8629 -3.2838
   18SAPC  H16Y 2401   6.676   5.979   8.469  0.5237 -2.9621 -0.9712
   18SAPC  C317 2402   6.730   5.938   8.265  0.0486 -0.8232  0.0697
   18SAPC  H17X 2403   6.832   5.982   8.276 -0.6238  0.3223  2.8250
   18SAPC  H17Y 2404   6.681   5.962   8.168  0.7319 -2.6580 -0.7654
   18SAPC  C318 2405   6.743   5.786   8.274 -0.3146  0.4620 -0.5457
   18SAPC  H18X 2406   6.807   5.753   8.189 -1.0747 -1.2085 -0.5045
   18SAPC  H18Y 2407   6.651   5.724   8.275  0.5480 -0.8831  0.8834
   18SAPC  H18Z 2408   6.794   5.765   8.371 -2.0680 -0.3394  0.2537
   19SAPC     N 2409   6.374   2.416  10.575  0.3800  0.4160 -0.1666
   19SAPC   C12 2410   6.283   2.377  10.694 -0.2139  0.1961  0.2784
   19SAPC  H12A 2411   6.197   2.439  10.710 -0.3059 -0.2872  1.8599
   19SAPC  H12B 2412   6.347   2.376  10.781  0.9096  0.1414 -0.5259
   19SAPC   C13 2413   6.297   2.458  10.457 -0.5699  0.2771  0.2005
   19SAPC  H13A 2414   6.212   2.392  10.443  0.0664 -0.8300  1.3790
   19SAPC  H13B 2415   6.253   2.556  10.470 -0.3116  0.1891  1.9279
   19SAPC  H13C 2416   6.360   2.454  10.370  1.9043 -2.3774  1.9631
   19SAPC   C14 2417   6.463   2.523  10.614  0.1564 -0.1903 -0.1161
   19SAPC  H14A 2418   6.409   2.610  10.650 -0.2115  0.3029 -1.7544
   19SAPC  H14B 2419   6.540   2.498  10.685  0.3518  0.1110 -0.2175
   19SAPC  H14C 2420   6.507   2.556  10.521 -0.6409 -1.3365 -0.9274
   19SAPC   C15 2421   6.440   2.283  10.541 -0.0693 -0.2110  0.2212
   19SAPC  H15A 2422   6.506   2.289  10.456 -0.5602 -0.6041 -0.1925
   19SAPC  H15B 2423   6.483   2.231  10.625 -0.0891 -0.9463 -0.2195
   19SAPC  H15C 2424   6.363   2.227  10.491  1.7598 -2.1618 -0.5170
   19SAPC   C11 2425   6.215   2.239  10.695  0.6126  0.0396  0.3861
   19SAPC  H11A 2426   6.155   2.234  10.788  0.8204  0.9553  0.5842
   19SAPC  H11B 2427   6.295   2.166  10.716  1.2621 -0.4292 -3.0550
   19SAPC     P 2428   6.136   2.059  10.524 -0.1968  0.0912 -0.3405
   19SAPC   O13 2429   6.263   2.035  10.446 -0.0881  0.2900 -0.4382
   19SAPC   O14 2430   6.094   1.963  10.633  0.1455  0.6740  0.0827
   19SAPC   O12 2431   6.134   2.206  10.581 -0.5353 -0.2704 -0.9233
   19SAPC   O11 2432   6.024   2.084  10.423  0.2770  0.2840 -0.0625
   19SAPC    C1 2433   5.900   2.005  10.439 -0.1917 -0.0573 -0.4267
   19SAPC    HA 2434   5.917   1.896  10.431 -0.6958 -0.0715 -1.4823
   19SAPC    HB 2435   5.857   2.022  10.540  1.8232 -0.9603  0.6270
   19SAPC    C2 2436   5.788   2.049  10.336 -0.4418 -0.5610 -0.4991
   19SAPC    HS 2437   5.696   1.989  10.353  0.2312 -1.4056  0.2593
   19SAPC   O21 2438   5.841   2.045  10.202 -0.0893  0.4766 -0.5266
   19SAPC   C21 2439   5.859   1.920  10.162  0.1209 -0.1023  0.3494
   19SAPC   O22 2440   5.829   1.816  10.218 -0.6438  0.0069  0.0410
   19SAPC   C22 2441   5.935   1.935  10.030  0.2246 -0.0087 -0.7106
   19SAPC   H2R 2442   5.899   1.864   9.953 -3.3082 -0.1014  0.8615
   19SAPC   H2S 2443   5.911   2.037   9.993 -1.6898 -0.1636 -0.0114
   19SAPC    C3 2444   5.732   2.192  10.378  0.1557  0.1463 -0.5120
   19SAPC    HX 2445   5.815   2.264  10.394  1.0863 -0.5250 -2.1588
   19SAPC    HY 2446   5.672   2.180  10.471  0.1552  0.6955 -0.4388
   19SAPC   O31 2447   5.642   2.239  10.279  0.7547  0.4245  0.1798
   19SAPC   C31 2448   5.684   2.331  10.188 -0.2133 -0.3762  0.5790
   19SAPC   O32 2449   5.792   2.387  10.192 -0.1041 -0.4290  0.3604
   19SAPC   C32 2450   5.569   2.341  10.086 -0.6497 -0.0307 -0.0013
   19SAPC   H2X 2451   5.488   2.395  10.139  0.2032  0.7111  0.5880
   19SAPC   H2Y 2452   5.534   2.237  10.068  0.8488 -0.4972 -0.4084
   19SAPC   C23 2453   6.088   1.923  10.059 -0.3425 -0.7142 -0.1998
   19SAPC   H3R 2454   6.114   1.819  10.089  0.6601 -0.2513  0.5965
   19SAPC   H3S 2455   6.117   1.976  10.152  0.0778  0.6943 -1.1102
   19SAPC   C24 2456   6.189   1.962   9.946 -0.3122  0.7273 -0.5547
   19SAPC   H4R 2457   6.186   1.901   9.853 -1.5813 -2.0511  1.1885
   19SAPC   H4S 2458   6.289   1.947   9.992 -0.3396 -1.1032 -1.0168
   19SAPC   C25 2459   6.181   2.109   9.917  0.1634  0.2681 -1.0498
   19SAPC   H5R 2460   6.212   2.168  10.005 -0.8662 -0.1736 -0.3888
   19SAPC   C26 2461   6.155   2.180   9.804 -0.4038 -0.0655  0.1977
   19SAPC   H6R 2462   6.136   2.288   9.817 -1.6088 -0.4251  1.8120
   19SAPC   C27 2463   6.121   2.120   9.670 -0.6888 -0.0461 -0.3596
   19SAPC   H7R 2464   6.011   2.127   9.657 -1.3949 -1.4411  3.5623
   19SAPC   H7S 2465   6.134   2.010   9.663  0.6275  0.1728 -2.2084
   19SAPC   C28 2466   6.213   2.190   9.567 -0.7290 -0.2957 -0.5035
   19SAPC   H8R 2467   6.311   2.217   9.608 -1.0391  2.7946 -1.4984
   19SAPC   C29 2468   6.187   2.219   9.440  0.3330  0.5564  0.2550
   19SAPC   H9R 2469   6.260   2.279   9.383  2.6795 -0.4633  2.0568
   19SAPC  C210 2470   6.050   2.207   9.366 -0.3107 -0.5712  0.4144
   19SAPC  H10R 2471   5.969   2.160   9.426 -2.3012  0.6127 -1.2300
   19SAPC  H10S 2472   6.071   2.142   9.279 -1.6634  0.1699 -0.5008
   19SAPC  C211 2473   6.009   2.346   9.328  0.4321 -0.3562 -0.5976
   19SAPC  H11R 2474   6.002   2.413   9.414 -1.8025  0.0891 -1.0704
   19SAPC  C212 2475   5.976   2.397   9.209  0.3456  0.2486 -0.1667
   19SAPC  H12R 2476   5.956   2.505   9.209  0.8582  0.4192  2.4407
   19SAPC  C213 2477   5.990   2.327   9.076 -0.0789 -0.0295 -0.2614
   19SAPC  H13R 2478   5.892   2.289   9.039  0.5440 -1.0996 -0.8915
   19SAPC  H13S 2479   6.044   2.231   9.092  0.6169  0.2402 -0.9187
   19SAPC  C214 2480   6.044   2.407   8.960  0.0144 -0.1471 -0.6348
   19SAPC  H14R 2481   6.147   2.379   8.933  1.2796  1.4201  2.1493
   19SAPC  C215 2482   5.974   2.495   8.885  0.1255 -0.1927  0.3851
   19SAPC  H15R 2483   6.026   2.558   8.812  2.0140 -0.3995  1.4648
   19SAPC  C216 2484   5.828   2.533   8.909  0.1558  0.5765 -0.5140
   19SAPC  H16R 2485   5.774   2.460   8.972  0.5867  1.4464  0.9134
   19SAPC  H16S 2486   5.769   2.525   8.816  1.6242 -2.1367 -1.3005
   19SAPC  C217 2487   5.806   2.669   8.974  0.5521 -0.2404 -0.2382
   19SAPC  H17R 2488   5.867   2.667   9.066  1.5578  0.4264 -0.8683
   19SAPC  H17S 2489   5.696   2.682   8.981  0.4694 -0.3796 -1.1011
   19SAPC  C218 2490   5.849   2.795   8.895  0.1161  0.1533  0.4247
   19SAPC  H18R 2491   5.960   2.789   8.891  0.1778  1.0681  0.5811
   19SAPC  H18S 2492   5.824   2.887   8.951  1.3965  0.4336  0.5650
   19SAPC  C219 2493   5.798   2.798   8.751 -0.1197 -0.0840  0.4721
   19SAPC  H19R 2494   5.687   2.806   8.751 -0.1437  0.0241  1.9124
   19SAPC  H19S 2495   5.835   2.708   8.698 -1.3474 -0.9824  1.0746
   19SAPC  C220 2496   5.848   2.925   8.686  0.4656  0.4700  0.1592
   19SAPC  H20R 2497   5.957   2.913   8.663 -0.0801 -1.8869 -1.6097
   19SAPC  H20S 2498   5.824   3.014   8.747  1.1682  0.7127  0.0996
   19SAPC  H20T 2499   5.791   2.924   8.591  0.1332 -1.2878  0.3489
   19SAPC   C33 2500   5.618   2.411   9.958 -0.3997  0.1639  0.5266
   19SAPC   H3X 2501   5.665   2.511   9.969 -2.2604  1.1848 -0.2832
   19SAPC   H3Y 2502   5.519   2.418   9.908 -0.9586 -1.7463  1.2665
   19SAPC   C34 2503   5.716   2.315   9.883  0.6840 -0.3711  0.0621
   19SAPC   H4X 2504   5.669   2.215   9.893  0.2510  0.0378  3.2788
   19SAPC   H4Y 2505   5.813   2.304   9.936  0.8009 -0.1132 -0.0963
   19SAPC   C35 2506   5.741   2.349   9.738  0.3476  0.4383  0.7857
   19SAPC   H5X 2507   5.817   2.278   9.697 -1.4772 -1.9558  1.3211
   19SAPC   H5Y 2508   5.781   2.452   9.729  0.4595  0.2396 -1.8648
   19SAPC   C36 2509   5.611   2.352   9.655 -0.1877 -0.1599 -0.1659
   19SAPC   H6X 2510   5.535   2.423   9.694 -0.3897 -1.1551  1.3275
   19SAPC   H6Y 2511   5.567   2.250   9.652  2.3927 -1.3626 -2.8179
   19SAPC   C37 2512   5.635   2.389   9.507 -0.6127  0.1786 -0.2324
   19SAPC   H7X 2513   5.709   2.315   9.470 -1.5248 -1.4774  1.1034
   19SAPC   H7Y 2514   5.673   2.493   9.515  1.0945 -0.4876  1.0381
   19SAPC   C38 2515   5.504   2.389   9.422  0.4510  0.2950  0.4917
   19SAPC   H8X 2516   5.433   2.468   9.455  1.1961  0.9098  0.6549
   19SAPC   H8Y 2517   5.455   2.290   9.436  1.0039 -0.4357 -2.1952
   19SAPC   C39 2518   5.514   2.406   9.267  0.4291 -0.1276 -0.0516
   19SAPC   H9X 2519   5.603   2.347   9.235  1.1415  0.9966 -0.2131
   19SAPC   H9Y 2520   5.538   2.513   9.250  1.0270 -0.4491 -1.3630
   19SAPC  C310 2521   5.388   2.360   9.185 -0.4075 -0.5456  0.4782
   19SAPC  H10X 2522   5.298   2.370   9.250 -0.3689  1.2542  0.3010
   19SAPC  H10Y 2523   5.410   2.251   9.176  1.0549 -0.0897 -2.2226
   19SAPC  C311 2524   5.374   2.439   9.056  0.2527  0.0845 -0.4562
   19SAPC  H11X 2525   5.359   2.544   9.088 -0.1213 -0.4398  1.1717
   19SAPC  H11Y 2526   5.283   2.396   9.009 -0.2082  1.0205 -0.4587
   19SAPC  C312 2527   5.483   2.436   8.959 -0.7201  0.0538  0.2550
   19SAPC  H12X 2528   5.565   2.497   9.001  0.6514 -0.3284 -1.7632
   19SAPC  H12Y 2529   5.452   2.485   8.865 -1.0277 -0.8543 -0.1303
   19SAPC  C313 2530   5.541   2.301   8.923 -0.4828 -0.6629 -0.3607
   19SAPC  H13X 2531   5.590   2.261   9.014 -0.2355  0.9462  0.2465
   19SAPC  H13Y 2532   5.625   2.311   8.849  1.2162 -0.8435  1.4604
   19SAPC  C314 2533   5.445   2.197   8.872  0.2257  0.2040 -0.1583
   19SAPC  H14X 2534   5.367   2.164   8.944 -0.4015  0.9124 -0.4974
   19SAPC  H14Y 2535   5.496   2.100   8.854 -0.3806 -0.1458 -0.0445
   19SAPC  C315 2536   5.380   2.236   8.742  0.3841 -0.1867 -0.2836
   19SAPC  H15X 2537   5.454   2.269   8.666 -0.7957  0.1682 -1.3292
   19SAPC  H15Y 2538   5.311   2.324   8.747 -0.4899 -0.8416 -0.4810
   19SAPC  C316 2539   5.297   2.123   8.679 -0.2407  0.5867 -0.2596
   19SAPC  H16X 2540   5.215   2.101   8.750 -1.0354  2.7754 -0.3969
   19SAPC  H16Y 2541   5.364   2.035   8.676  0.0480  0.4948  3.9809
   19SAPC  C317 2542   5.242   2.165   8.538  0.7493  0.7561 -0.0026
   19SAPC  H17X 2543   5.327   2.215   8.488  0.7929 -1.2062 -2.0226
   19SAPC  H17Y 2544   5.154   2.228   8.567  0.8576 -0.1989  2.7254
   19SAPC  C318 2545   5.182   2.069   8.441 -0.3525 -0.1688  0.3712
   19SAPC  H18X 2546   5.100   2.003   8.479 -0.3254 -1.4820 -1.6808
   19SAPC  H18Y 2547   5.260   1.995   8.414 -1.4664 -1.0596 -0.5663
   19SAPC  H18Z 2548   5.153   2.133   8.355 -1.3324  0.2457  0.9972
   20SAPC     N 2549   5.976   4.190  11.030 -0.0991 -0.1196 -0.4448
   20SAPC   C12 2550   6.036   4.326  11.057 -0.3932  0.0862 -0.3767
   20SAPC  H12A 2551   6.143   4.317  11.066 -0.3426  0.3412 -0.7474
   20SAPC  H12B 2552   6.005   4.350  11.158  1.2452  0.5905  0.0324
   20SAPC   C13 2553   6.002   4.143  10.894  0.4142  0.4000  0.5294
   20SAPC  H13A 2554   6.108   4.125  10.887  1.2680  4.0255  1.9351
   20SAPC  H13B 2555   5.955   4.054  10.854  1.3813  0.5046 -0.9314
   20SAPC  H13C 2556   5.969   4.223  10.828 -2.7425 -0.1167  1.3118
   20SAPC   C14 2557   6.031   4.090  11.134 -0.4548 -0.0148 -0.2548
   20SAPC  H14A 2558   5.976   4.091  11.227  0.3169 -0.6581  0.2235
   20SAPC  H14B 2559   6.047   3.989  11.098  1.7659 -0.4526  1.7218
   20SAPC  H14C 2560   6.128   4.126  11.164 -1.3679  0.3736  2.5014
   20SAPC   C15 2561   5.829   4.200  11.062  0.3078  0.5274 -0.1109
   20SAPC  H15A 2562   5.805   4.228  11.163 -2.6067 -0.8757 -0.3169
   20SAPC  H15B 2563   5.774   4.256  10.988 -1.5857 -1.8402 -0.6309
   20SAPC  H15C 2564   5.790   4.100  11.048 -0.1577  0.5964  0.6773
   20SAPC   C11 2565   6.003   4.448  10.959  0.3219  0.3132 -0.1833
   20SAPC  H11A 2566   6.059   4.424  10.866  2.8500  2.1847  0.7480
   20SAPC  H11B 2567   6.053   4.543  10.989 -0.1901  0.0352  1.6413
   20SAPC     P 2568   5.800   4.534  10.815 -0.1710 -0.0921  0.0698
   20SAPC   O13 2569   5.651   4.544  10.821 -0.4340 -0.3271  0.6558
   20SAPC   O14 2570   5.872   4.656  10.782  0.2038  0.1800  0.0077
   20SAPC   O12 2571   5.857   4.469  10.950 -0.2124  0.3499  0.1067
   20SAPC   O11 2572   5.845   4.433  10.710 -0.4566 -0.2581  0.3388
   20SAPC    C1 2573   5.749   4.333  10.671 -0.4917  0.6670  0.6373
   20SAPC    HA 2574   5.806   4.243  10.640  1.0250  1.3213  1.3741
   20SAPC    HB 2575   5.676   4.297  10.747 -1.0673  1.8914  0.6928
   20SAPC    C2 2576   5.670   4.358  10.535  0.1129  0.4487 -0.3947
   20SAPC    HS 2577   5.640   4.260  10.493 -0.4651  0.9424 -1.1621
   20SAPC   O21 2578   5.761   4.423  10.449 -0.1975  0.4519 -0.3631
   20SAPC   C21 2579   5.852   4.353  10.394 -0.4809 -0.8791 -0.2024
   20SAPC   O22 2580   5.862   4.230  10.392 -0.2528 -0.5581 -0.4668
   20SAPC   C22 2581   5.957   4.441  10.336  0.0282 -0.0286 -0.6616
   20SAPC   H2R 2582   5.907   4.539  10.318 -0.5097 -0.1648  0.0462
   20SAPC   H2S 2583   6.030   4.445  10.419 -1.2176 -1.8863  0.6043
   20SAPC    C3 2584   5.533   4.442  10.545 -0.0072 -0.2549 -0.0551
   20SAPC    HX 2585   5.549   4.545  10.583 -2.0128 -1.1949  3.8007
   20SAPC    HY 2586   5.457   4.413  10.621 -0.7966  1.0356 -0.3072
   20SAPC   O31 2587   5.475   4.422  10.413  0.0802  0.0336 -0.5594
   20SAPC   C31 2588   5.446   4.522  10.343  0.9217 -1.2346 -1.0701
   20SAPC   O32 2589   5.475   4.639  10.360 -0.4555  0.2582  0.2442
   20SAPC   C32 2590   5.351   4.487  10.227 -0.5260 -0.0506 -0.3965
   20SAPC   H2X 2591   5.245   4.498  10.256 -0.7629 -1.5974 -0.6253
   20SAPC   H2Y 2592   5.364   4.384  10.189 -2.8158 -0.0792 -1.2177
   20SAPC   C23 2593   6.024   4.383  10.216  0.1195  0.0756 -0.2223
   20SAPC   H3R 2594   6.054   4.282  10.248 -3.4233 -0.7716  0.9396
   20SAPC   H3S 2595   6.114   4.439  10.184  0.8047 -2.6147 -3.4480
   20SAPC   C24 2596   5.929   4.369  10.095 -0.9922 -0.1170 -0.3494
   20SAPC   H4R 2597   5.867   4.287  10.137  2.6056 -1.9187  2.0561
   20SAPC   H4S 2598   5.986   4.312  10.018 -0.1604 -2.0295  1.5800
   20SAPC   C25 2599   5.864   4.486  10.043  0.0247 -0.1021 -0.6924
   20SAPC   H5R 2600   5.808   4.539  10.122 -0.4476 -1.1400 -0.2948
   20SAPC   C26 2601   5.863   4.527   9.920 -0.6487 -0.7603 -0.4228
   20SAPC   H6R 2602   5.787   4.600   9.886 -0.8469 -0.9004 -0.2870
   20SAPC   C27 2603   5.937   4.462   9.807 -0.1222 -0.3716  0.2583
   20SAPC   H7R 2604   5.882   4.467   9.711 -0.5209 -1.2341  0.4372
   20SAPC   H7S 2605   5.934   4.352   9.820 -0.4689 -0.1724  2.0132
   20SAPC   C28 2606   6.085   4.505   9.794  0.0987 -0.5934  0.1029
   20SAPC   H8R 2607   6.139   4.534   9.885  1.6219  0.0264 -0.9591
   20SAPC   C29 2608   6.156   4.524   9.679  0.3081 -0.5640  0.6748
   20SAPC   H9R 2609   6.263   4.550   9.680  0.2377 -0.0276 -1.1401
   20SAPC  C210 2610   6.109   4.497   9.540  0.4168  0.2043  0.0830
   20SAPC  H10R 2611   6.060   4.397   9.538  1.1732 -0.1622 -0.9750
   20SAPC  H10S 2612   6.194   4.475   9.472  0.9892  4.1058 -0.7021
   20SAPC  C211 2613   6.027   4.611   9.473  0.1207 -0.5439 -0.7619
   20SAPC  H11R 2614   6.013   4.708   9.523 -0.6713 -0.8678 -0.3338
   20SAPC  C212 2615   5.947   4.592   9.368 -0.3189  0.7150  0.3727
   20SAPC  H12R 2616   5.898   4.676   9.316 -0.3274 -0.2066 -1.1548
   20SAPC  C213 2617   5.932   4.454   9.300 -0.0269 -0.1609  1.2909
   20SAPC  H13R 2618   5.972   4.370   9.360  0.2117 -1.2120 -0.2747
   20SAPC  H13S 2619   5.999   4.450   9.211 -1.7470  2.1269 -0.2244
   20SAPC  C214 2620   5.792   4.425   9.256  1.0811 -1.1915 -0.3091
   20SAPC  H14R 2621   5.719   4.444   9.335 -0.9348  0.8393 -2.5087
   20SAPC  C215 2622   5.751   4.376   9.135  0.2721  0.0319 -0.3787
   20SAPC  H15R 2623   5.643   4.367   9.116  0.5326 -2.5682 -1.0346
   20SAPC  C216 2624   5.833   4.320   9.021 -0.1382 -0.3472  0.0266
   20SAPC  H16R 2625   5.825   4.209   9.018  1.3252 -0.4607 -0.1760
   20SAPC  H16S 2626   5.938   4.339   9.050 -0.3875  1.0236  0.1054
   20SAPC  C217 2627   5.804   4.382   8.882  0.6299 -0.5457  0.1210
   20SAPC  H17R 2628   5.798   4.493   8.890  0.8116 -0.3977 -1.5128
   20SAPC  H17S 2629   5.702   4.356   8.845  1.4719 -2.5380 -0.9067
   20SAPC  C218 2630   5.915   4.350   8.784 -0.5535 -0.8796 -0.0593
   20SAPC  H18R 2631   5.882   4.382   8.683 -0.4481 -0.5611  0.0052
   20SAPC  H18S 2632   5.931   4.240   8.785 -2.8077 -1.2754 -1.7222
   20SAPC  C219 2633   6.051   4.427   8.806  0.5887 -0.1192  0.2401
   20SAPC  H19R 2634   6.146   4.377   8.780  1.1383  0.5289  0.9425
   20SAPC  H19S 2635   6.066   4.441   8.916  1.5924  2.0633 -0.1128
   20SAPC  C220 2636   6.047   4.559   8.731  0.2726  0.2182  0.5563
   20SAPC  H20R 2637   6.122   4.634   8.764  1.4052 -0.4006 -0.5391
   20SAPC  H20S 2638   5.943   4.599   8.742 -0.4829 -1.1589 -1.0926
   20SAPC  H20T 2639   6.067   4.544   8.623 -1.8652 -0.8063  0.2457
   20SAPC   C33 2640   5.366   4.585  10.103 -0.4207  0.0290 -0.1924
   20SAPC   H3X 2641   5.471   4.566  10.070  0.3953  0.5381  1.8899
   20SAPC   H3Y 2642   5.372   4.691  10.137  0.0171  0.1135 -0.5199
   20SAPC   C34 2643   5.259   4.540  10.007 -0.0743 -0.7360  0.2231
   20SAPC   H4X 2644   5.159   4.562  10.049  0.1949  0.6330  0.1991
   20SAPC   H4Y 2645   5.260   4.430   9.988 -0.5593 -0.5020 -1.2875
   20SAPC   C35 2646   5.261   4.617   9.871  0.0908 -0.7546  0.4618
   20SAPC   H5X 2647   5.362   4.627   9.825 -1.0070  0.2294 -1.9309
   20SAPC   H5Y 2648   5.237   4.723   9.894  0.4135 -1.0802  2.4029
   20SAPC   C36 2649   5.171   4.571   9.762 -0.7368  0.0525 -0.3813
   20SAPC   H6X 2650   5.066   4.567   9.797 -0.3483  1.3205  1.0317
   20SAPC   H6Y 2651   5.190   4.463   9.742 -2.8503 -0.5536  0.6539
   20SAPC   C37 2652   5.191   4.647   9.631  0.8084  0.6040  0.2040
   20SAPC   H7X 2653   5.289   4.619   9.588  0.6300 -3.5056  2.0068
   20SAPC   H7Y 2654   5.196   4.758   9.641  3.1933  0.6894 -1.2191
   20SAPC   C38 2655   5.075   4.605   9.535  0.3260 -0.0896 -0.3214
   20SAPC   H8X 2656   4.984   4.660   9.569  1.3178  1.3469  0.1196
   20SAPC   H8Y 2657   5.053   4.496   9.533 -0.9406  0.1575 -1.9275
   20SAPC   C39 2658   5.096   4.643   9.389 -0.0941  0.4677 -0.0572
   20SAPC   H9X 2659   5.191   4.592   9.363 -0.7298 -1.1999  0.7401
   20SAPC   H9Y 2660   5.126   4.750   9.393 -0.0470  0.4254  3.0201
   20SAPC  C310 2661   4.978   4.620   9.291  0.7862 -0.1252  0.3295
   20SAPC  H10X 2662   4.898   4.678   9.341 -0.9702 -1.9234 -0.2878
   20SAPC  H10Y 2663   4.954   4.512   9.304  3.6461 -0.8843  0.0104
   20SAPC  C311 2664   5.003   4.655   9.148 -0.4100 -0.0800  0.2111
   20SAPC  H11X 2665   5.077   4.590   9.097  1.2613  2.5857 -0.9817
   20SAPC  H11Y 2666   5.054   4.754   9.153 -0.0232 -0.2752  0.1204
   20SAPC  C312 2667   4.874   4.666   9.072  0.4332 -0.0018 -0.5237
   20SAPC  H12X 2668   4.805   4.729   9.133  1.5861  1.0783 -0.2711
   20SAPC  H12Y 2669   4.831   4.566   9.053  1.3580 -0.8899  1.7189
   20SAPC  C313 2670   4.889   4.739   8.938 -0.5579  0.0001  0.7818
   20SAPC  H13X 2671   4.955   4.679   8.872 -0.7119  0.6644  0.0004
   20SAPC  H13Y 2672   4.935   4.840   8.936  0.7550 -0.5864  0.3801
   20SAPC  C314 2673   4.747   4.758   8.874 -1.1155  0.5257  0.0127
   20SAPC  H14X 2674   4.692   4.840   8.924 -1.5013 -0.8057  1.8667
   20SAPC  H14Y 2675   4.695   4.664   8.901  2.2395 -1.5669 -0.1382
   20SAPC  C315 2676   4.763   4.768   8.721  0.5931  0.6390  0.4399
   20SAPC  H15X 2677   4.803   4.672   8.680 -2.0033 -0.2298 -0.2461
   20SAPC  H15Y 2678   4.840   4.847   8.708 -0.4532  1.5149 -0.7359
   20SAPC  C316 2679   4.635   4.822   8.632  0.1048  0.7644 -0.5085
   20SAPC  H16X 2680   4.625   4.931   8.651  4.5052  1.4351 -0.8966
   20SAPC  H16Y 2681   4.544   4.771   8.669  0.6693  1.0031  1.3103
   20SAPC  C317 2682   4.659   4.791   8.480 -0.2692 -0.4739 -1.0198
   20SAPC  H17X 2683   4.769   4.804   8.470 -0.3185  1.3222  0.1777
   20SAPC  H17Y 2684   4.613   4.871   8.418 -0.1978 -0.1858 -0.7064
   20SAPC  C318 2685   4.625   4.652   8.435 -0.6206  0.2574 -0.1385
   20SAPC  H18X 2686   4.643   4.648   8.326  0.6065 -2.0101  0.0821
   20SAPC  H18Y 2687   4.519   4.625   8.457 -0.4134  0.5915  1.4198
   20SAPC  H18Z 2688   4.700   4.586   8.483 -1.1277 -0.8663 -0.8433
   21SAPC     N 2689   5.313   2.560  10.560 -0.4236  1.0032 -0.5690
   21SAPC   C12 2690   5.438   2.479  10.591  0.4403  0.0540  0.2144
   21SAPC  H12A 2691   5.420   2.375  10.567  2.3190  0.4930 -3.9256
   21SAPC  H12B 2692   5.455   2.487  10.698  0.1350  1.1583  0.1968
   21SAPC   C13 2693   5.188   2.513  10.628  0.6120 -0.0371 -0.1082
   21SAPC  H13A 2694   5.106   2.580  10.609  1.1263  1.0629  1.3518
   21SAPC  H13B 2695   5.162   2.409  10.611  1.3085 -0.4223  1.0315
   21SAPC  H13C 2696   5.198   2.523  10.735  0.5351 -1.0314  0.0081
   21SAPC   C14 2697   5.343   2.706  10.600  0.4091  0.3778  0.4089
   21SAPC  H14A 2698   5.368   2.723  10.704 -0.0286  1.9168  0.2877
   21SAPC  H14B 2699   5.435   2.735  10.551  1.2487 -0.1779  1.5987
   21SAPC  H14C 2700   5.262   2.766  10.562  0.2473  0.0484  0.2239
   21SAPC   C15 2701   5.285   2.555  10.409 -0.6603  0.2271  0.4056
   21SAPC  H15A 2702   5.371   2.594  10.358  1.7645 -0.9211  3.3019
   21SAPC  H15B 2703   5.282   2.452  10.377  1.3625  0.2658 -0.0619
   21SAPC  H15C 2704   5.195   2.612  10.394 -0.5726  0.9072  2.2167
   21SAPC   C11 2705   5.562   2.517  10.509 -0.3126 -0.1443 -0.4320
   21SAPC  H11A 2706   5.544   2.508  10.400  1.0136  0.2243 -0.7002
   21SAPC  H11B 2707   5.646   2.447  10.528 -0.7286 -0.6654 -0.4979
   21SAPC     P 2708   5.648   2.757  10.438  0.2106  0.0793  0.6206
   21SAPC   O13 2709   5.569   2.875  10.471  0.7935 -0.3669 -0.2130
   21SAPC   O14 2710   5.797   2.769  10.433 -0.1231  0.3521  0.0817
   21SAPC   O12 2711   5.620   2.646  10.544 -0.0666 -0.1734 -0.2703
   21SAPC   O11 2712   5.602   2.697  10.304  0.3936  0.2092  0.5684
   21SAPC    C1 2713   5.642   2.737  10.176 -0.6370  0.2406 -0.1458
   21SAPC    HA 2714   5.752   2.719  10.173 -0.6716  0.1380 -1.8528
   21SAPC    HB 2715   5.601   2.664  10.102 -0.2084  0.4213 -0.5596
   21SAPC    C2 2716   5.608   2.881  10.142 -0.5436  0.5682  0.2023
   21SAPC    HS 2717   5.661   2.948  10.214  0.6717 -1.8488  1.6811
   21SAPC   O21 2718   5.464   2.899  10.146  0.3712  0.0231  0.7460
   21SAPC   C21 2719   5.420   3.013  10.195 -0.4590  0.2327  0.6428
   21SAPC   O22 2720   5.501   3.096  10.235  0.6852  0.6551 -0.7535
   21SAPC   C22 2721   5.270   3.011  10.205 -0.2289  0.3423  0.6821
   21SAPC   H2R 2722   5.243   2.908  10.171  0.4385 -1.4312  4.8853
   21SAPC   H2S 2723   5.246   3.016  10.313 -0.2767  1.3624  0.6273
   21SAPC    C3 2724   5.669   2.930  10.002 -0.1887 -0.4826 -0.0881
   21SAPC    HX 2725   5.779   2.911   9.996  0.3551  0.7089  3.5349
   21SAPC    HY 2726   5.661   3.039   9.986  0.4840 -0.8010 -3.2598
   21SAPC   O31 2727   5.615   2.855   9.890 -0.2748 -0.2439 -0.0664
   21SAPC   C31 2728   5.541   2.912   9.807 -0.7176 -0.9969  0.2725
   21SAPC   O32 2729   5.504   3.029   9.813  0.0663 -0.2461  0.6850
   21SAPC   C32 2730   5.506   2.815   9.695  0.1957 -0.5334  0.0263
   21SAPC   H2X 2731   5.402   2.786   9.721 -0.2226  1.3100  0.5093
   21SAPC   H2Y 2732   5.577   2.730   9.707  0.5755 -0.3258 -0.6843
   21SAPC   C23 2733   5.201   3.129  10.128  0.6934 -0.7706  0.7637
   21SAPC   H3R 2734   5.259   3.220  10.152 -0.9746  0.2658  1.0022
   21SAPC   H3S 2735   5.099   3.144  10.168  0.5683  1.5321 -0.2901
   21SAPC   C24 2736   5.198   3.113   9.976 -0.3958  0.4891 -0.5632
   21SAPC   H4R 2737   5.133   3.023   9.975 -0.9902  0.7578  2.8839
   21SAPC   H4S 2738   5.298   3.082   9.937  0.7720  3.5917 -0.3067
   21SAPC   C25 2739   5.123   3.221   9.905  0.0019  0.5651  0.0497
   21SAPC   H5R 2740   5.129   3.316   9.961  2.0492  0.0745  0.7396
   21SAPC   C26 2741   5.064   3.204   9.783  1.2247 -0.1190  0.5192
   21SAPC   H6R 2742   5.005   3.288   9.744  2.5298  0.7498  0.3657
   21SAPC   C27 2743   5.059   3.079   9.692  0.4581 -0.3664 -0.3374
   21SAPC   H7R 2744   4.957   3.076   9.648  1.7167 -1.6182 -3.4449
   21SAPC   H7S 2745   5.065   2.992   9.761 -1.4343 -0.2840 -0.0267
   21SAPC   C28 2746   5.165   3.067   9.592 -0.8837  0.4682  0.6870
   21SAPC   H8R 2747   5.264   3.062   9.639 -1.0776  2.7694  1.4881
   21SAPC   C29 2748   5.152   3.064   9.459  0.4677 -0.3226  0.4031
   21SAPC   H9R 2749   5.242   3.052   9.396  0.1046  0.0362 -0.1974
   21SAPC  C210 2750   5.018   3.085   9.394 -0.8370 -0.6558 -0.1803
   21SAPC  H10R 2751   5.003   3.193   9.376  4.4210  0.2157 -0.8866
   21SAPC  H10S 2752   4.939   3.035   9.454 -2.4147 -2.7475 -3.6809
   21SAPC  C211 2753   5.014   3.029   9.258 -0.5110  0.3961  0.4387
   21SAPC  H11R 2754   4.987   3.100   9.179  0.7744 -2.1754 -2.5447
   21SAPC  C212 2755   5.032   2.904   9.213  0.5093  0.4103  0.5582
   21SAPC  H12R 2756   5.024   2.892   9.104 -0.8588 -2.4348  0.8789
   21SAPC  C213 2757   5.078   2.784   9.292  0.4732  0.3713  1.0608
   21SAPC  H13R 2758   5.117   2.802   9.394  0.1333 -1.3018  1.5102
   21SAPC  H13S 2759   5.161   2.747   9.229  0.1586  0.2273  0.7237
   21SAPC  C214 2760   4.977   2.673   9.311 -0.2810  0.0713  0.0089
   21SAPC  H14R 2761   4.942   2.655   9.414 -1.6216  2.2324 -0.0068
   21SAPC  C215 2762   4.913   2.606   9.209 -0.7605  0.1019 -0.1582
   21SAPC  H15R 2763   4.846   2.525   9.239 -0.0136  0.3989  2.5673
   21SAPC  C216 2764   4.924   2.640   9.060  0.0974 -0.3442  0.1376
   21SAPC  H16R 2765   5.011   2.707   9.043 -0.4715 -0.0319 -1.7549
   21SAPC  H16S 2766   4.833   2.695   9.024  0.7524  0.4206 -0.3923
   21SAPC  C217 2767   4.935   2.507   8.982 -0.6849  0.3845  0.0698
   21SAPC  H17R 2768   4.843   2.454   9.012 -0.0738 -1.1204 -0.6073
   21SAPC  H17S 2769   5.021   2.455   9.030 -1.4568 -0.0501  1.0111
   21SAPC  C218 2770   4.937   2.535   8.834 -0.0201 -0.3116  0.5819
   21SAPC  H18R 2771   5.032   2.582   8.802  0.5341 -3.2120 -2.5484
   21SAPC  H18S 2772   4.858   2.609   8.807  0.5137 -0.8503 -2.8557
   21SAPC  C219 2773   4.912   2.421   8.737  0.1900  0.1562  0.3740
   21SAPC  H19R 2774   4.805   2.396   8.747 -0.2923  0.9180 -2.0904
   21SAPC  H19S 2775   4.985   2.340   8.759  1.0029  0.2322 -1.7060
   21SAPC  C220 2776   4.926   2.468   8.586  0.3884 -0.4634 -0.5720
   21SAPC  H20R 2777   5.031   2.497   8.569  0.3837  0.8963  1.3933
   21SAPC  H20S 2778   4.861   2.555   8.565  0.5932 -0.0792  0.3286
   21SAPC  H20T 2779   4.899   2.378   8.526  0.2587 -0.3174 -0.7310
   21SAPC   C33 2780   5.527   2.869   9.554  0.2931  0.5481 -1.2482
   21SAPC   H3X 2781   5.630   2.910   9.547  1.1545 -1.3953 -0.4808
   21SAPC   H3Y 2782   5.442   2.934   9.525 -0.7154 -0.2895 -0.2486
   21SAPC   C34 2783   5.514   2.764   9.446 -0.1542  0.0480 -0.8671
   21SAPC   H4X 2784   5.424   2.699   9.452 -0.3056  0.3557  0.7911
   21SAPC   H4Y 2785   5.598   2.700   9.479 -1.6162 -0.5614  2.1146
   21SAPC   C35 2786   5.542   2.822   9.305 -0.0102  0.1251 -0.6460
   21SAPC   H5X 2787   5.558   2.740   9.231 -5.6101 -0.9469 -1.1144
   21SAPC   H5Y 2788   5.634   2.883   9.300  0.4173 -0.1389  2.3931
   21SAPC   C36 2789   5.429   2.909   9.238 -0.5331  0.4471 -0.4412
   21SAPC   H6X 2790   5.431   3.012   9.280 -3.3339  0.9972 -1.4119
   21SAPC   H6Y 2791   5.331   2.862   9.264  0.0107  0.7639  2.5668
   21SAPC   C37 2792   5.445   2.916   9.088  0.1842 -0.6878 -0.2976
   21SAPC   H7X 2793   5.435   2.824   9.028  1.5246  0.7398 -2.8629
   21SAPC   H7Y 2794   5.548   2.952   9.066 -0.5270  0.7650 -1.3830
   21SAPC   C38 2795   5.347   3.016   9.021  0.1480  0.0568 -0.6682
   21SAPC   H8X 2796   5.339   3.104   9.088 -0.4869 -0.8573  0.4932
   21SAPC   H8Y 2797   5.246   2.971   9.016  0.9540 -1.8288 -1.0834
   21SAPC   C39 2798   5.396   3.058   8.885 -0.0523  0.7711 -0.1283
   21SAPC   H9X 2799   5.495   3.105   8.908  1.2132 -1.5044 -0.5817
   21SAPC   H9Y 2800   5.324   3.133   8.849  0.8814  1.8991  0.2797
   21SAPC  C310 2801   5.415   2.956   8.773  0.5291  0.5844 -0.8908
   21SAPC  H10X 2802   5.341   2.874   8.779  1.2641 -0.0122  0.7269
   21SAPC  H10Y 2803   5.516   2.916   8.797  0.7579  1.5834 -0.1068
   21SAPC  C311 2804   5.413   3.026   8.636 -0.0441  0.3751 -0.6329
   21SAPC  H11X 2805   5.321   3.087   8.629 -1.1797 -1.2622 -0.4925
   21SAPC  H11Y 2806   5.398   2.951   8.555  1.0912  0.0652 -0.5866
   21SAPC  C312 2807   5.537   3.127   8.619  0.4309  1.0781 -0.8151
   21SAPC  H12X 2808   5.624   3.057   8.625 -1.2835 -1.2126 -1.4999
   21SAPC  H12Y 2809   5.541   3.199   8.704 -0.6735  0.0346  0.1514
   21SAPC  C313 2810   5.539   3.201   8.488  0.0113 -0.1708 -0.0950
   21SAPC  H13X 2811   5.438   3.247   8.483  0.2753  0.3293 -1.1235
   21SAPC  H13Y 2812   5.551   3.119   8.414  0.0401 -0.0227 -0.2533
   21SAPC  C314 2813   5.666   3.298   8.477  0.0841  0.2316 -0.0653
   21SAPC  H14X 2814   5.748   3.230   8.509 -0.4943 -1.1189 -1.2985
   21SAPC  H14Y 2815   5.649   3.382   8.547 -1.2508  2.0290 -2.3679
   21SAPC  C315 2816   5.704   3.348   8.333 -0.1871  0.0098 -0.0296
   21SAPC  H15X 2817   5.620   3.387   8.273  0.2679 -0.0185 -0.6971
   21SAPC  H15Y 2818   5.743   3.260   8.277 -1.2977  0.9861 -2.4946
   21SAPC  C316 2819   5.815   3.458   8.347  0.8811  0.2206  0.4744
   21SAPC  H16X 2820   5.915   3.433   8.389  0.1791 -0.0823  2.0476
   21SAPC  H16Y 2821   5.780   3.531   8.423 -0.8843 -1.4363  1.3337
   21SAPC  C317 2822   5.834   3.517   8.210 -0.2603  0.4529 -0.6980
   21SAPC  H17X 2823   5.743   3.577   8.188 -0.5149 -0.1764 -1.4016
   21SAPC  H17Y 2824   5.836   3.433   8.137 -1.2017 -0.5183  0.3657
   21SAPC  C318 2825   5.959   3.601   8.182  1.2136 -0.4942  0.4461
   21SAPC  H18X 2826   6.058   3.551   8.191  0.6498 -1.5365  1.0748
   21SAPC  H18Y 2827   5.957   3.692   8.244 -0.0972  0.6645 -1.2070
   21SAPC  H18Z 2828   5.953   3.643   8.079 -0.4051 -1.2221  0.2161
   22SAPC     N 2829   4.576   4.105  10.808  0.4969 -0.2358 -0.2847
   22SAPC   C12 2830   4.633   3.978  10.739  0.8305 -0.2310 -0.1444
   22SAPC  H12A 2831   4.653   3.897  10.808  0.3237  0.3524  0.6953
   22SAPC  H12B 2832   4.728   4.005  10.695  0.6889  1.4977  0.5672
   22SAPC   C13 2833   4.561   4.216  10.711 -0.6166 -0.2740  0.5392
   22SAPC  H13A 2834   4.658   4.224  10.663 -0.9921 -0.0716 -0.1974
   22SAPC  H13B 2835   4.485   4.210  10.635  1.2777  1.1778 -1.5988
   22SAPC  H13C 2836   4.547   4.308  10.767  0.7068  0.1898  0.1391
   22SAPC   C14 2837   4.444   4.077  10.872  0.0042  0.2443  0.2196
   22SAPC  H14A 2838   4.400   4.168  10.909 -0.2572  0.5745 -0.8850
   22SAPC  H14B 2839   4.377   4.028  10.803 -0.9826  3.3038 -1.1659
   22SAPC  H14C 2840   4.460   4.005  10.952  2.8289  2.0886  1.4657
   22SAPC   C15 2841   4.674   4.145  10.918  0.1804  0.6728  0.5799
   22SAPC  H15A 2842   4.635   4.218  10.988 -0.4084 -1.0286  2.0999
   22SAPC  H15B 2843   4.704   4.057  10.972  0.0556 -0.3877 -1.0242
   22SAPC  H15C 2844   4.768   4.180  10.879 -0.1265 -0.4313 -1.2988
   22SAPC   C11 2845   4.540   3.925  10.621 -0.1792  0.4013 -0.5201
   22SAPC  H11A 2846   4.611   3.882  10.547 -0.2682 -2.6920  1.0537
   22SAPC  H11B 2847   4.477   4.002  10.571  0.5552  0.3925 -1.4918
   22SAPC     P 2848   4.502   3.677  10.720 -0.0041  0.0427  0.1052
   22SAPC   O13 2849   4.620   3.678  10.809  0.2969  0.3885 -0.1364
   22SAPC   O14 2850   4.385   3.600  10.767  0.4915  0.0899 -0.1913
   22SAPC   O12 2851   4.456   3.824  10.685  0.0793  0.3300  0.5510
   22SAPC   O11 2852   4.552   3.618  10.580  0.0426 -0.4148  1.1525
   22SAPC    C1 2853   4.512   3.645  10.449 -0.0727 -0.0674 -0.0085
   22SAPC    HA 2854   4.471   3.748  10.437  0.1199 -0.1421 -1.4864
   22SAPC    HB 2855   4.601   3.630  10.384 -1.5465 -0.9368 -1.9417
   22SAPC    C2 2856   4.406   3.548  10.389 -0.0017 -0.9553  0.0093
   22SAPC    HS 2857   4.313   3.570  10.446  1.3591  1.9588  1.3014
   22SAPC   O21 2858   4.453   3.409  10.402  0.3996 -0.1489  0.9104
   22SAPC   C21 2859   4.360   3.312  10.424  0.6710 -0.1544  0.0925
   22SAPC   O22 2860   4.245   3.331  10.427  0.3904 -0.3978 -0.1972
   22SAPC   C22 2861   4.433   3.179  10.452  0.5111 -0.5982  0.6252
   22SAPC   H2R 2862   4.541   3.198  10.472  0.2069 -0.4264  2.2333
   22SAPC   H2S 2863   4.399   3.143  10.552  0.6899  2.5952  1.9823
   22SAPC    C3 2864   4.391   3.586  10.240 -0.2476 -0.3351  0.5950
   22SAPC    HX 2865   4.483   3.620  10.188 -1.2025  0.1051 -0.8705
   22SAPC    HY 2866   4.332   3.680  10.237  1.0797  0.5000  0.0152
   22SAPC   O31 2867   4.339   3.475  10.161 -0.6202  0.3564  0.1609
   22SAPC   C31 2868   4.216   3.493  10.101  0.2159 -0.7902 -0.1649
   22SAPC   O32 2869   4.152   3.596  10.109 -0.0235 -0.4208  0.1378
   22SAPC   C32 2870   4.170   3.353  10.054 -0.2495  0.0536  0.2097
   22SAPC   H2X 2871   4.063   3.352  10.085  0.7037 -0.6154  3.9694
   22SAPC   H2Y 2872   4.211   3.274  10.120 -0.9689 -0.8287 -0.3635
   22SAPC   C23 2873   4.415   3.075  10.336  0.2858 -0.1945 -1.2148
   22SAPC   H3R 2874   4.308   3.066  10.307 -0.2730 -0.6773  0.8782
   22SAPC   H3S 2875   4.437   2.976  10.383  1.0832  0.3512 -0.4163
   22SAPC   C24 2876   4.512   3.088  10.219  0.3852 -0.5077 -0.5865
   22SAPC   H4R 2877   4.490   3.181  10.162 -1.5562 -0.5019  0.1287
   22SAPC   H4S 2878   4.486   2.995  10.164  0.3525 -0.6581 -0.3185
   22SAPC   C25 2879   4.655   3.088  10.254 -0.2526  0.0074  0.6780
   22SAPC   H5R 2880   4.676   3.177  10.315  1.3065  0.8823 -1.0314
   22SAPC   C26 2881   4.749   2.998  10.210  0.0047 -1.1693 -0.1244
   22SAPC   H6R 2882   4.855   3.013  10.236  0.4499 -0.7063 -2.0522
   22SAPC   C27 2883   4.728   2.891  10.108  0.5641 -0.5669 -0.3463
   22SAPC   H7R 2884   4.637   2.840  10.148  0.0150  1.7529  1.5970
   22SAPC   H7S 2885   4.815   2.822  10.109  0.5839 -0.5859 -1.7021
   22SAPC   C28 2886   4.706   2.935   9.968 -0.1201 -0.1478  0.7277
   22SAPC   H8R 2887   4.674   3.039   9.955 -1.1822 -0.6505 -0.9837
   22SAPC   C29 2888   4.714   2.868   9.849 -0.6861  0.9095 -0.7451
   22SAPC   H9R 2889   4.685   2.926   9.760  0.6587  1.7676 -0.6567
   22SAPC  C210 2890   4.758   2.722   9.828  0.5382 -0.5683  0.0608
   22SAPC  H10R 2891   4.708   2.674   9.741  0.7181  0.3327 -0.5695
   22SAPC  H10S 2892   4.725   2.660   9.913  0.4442  1.0259  1.2447
   22SAPC  C211 2893   4.907   2.698   9.831 -0.0938  0.0986 -0.4608
   22SAPC  H11R 2894   4.962   2.743   9.914  0.3266  0.0837 -0.7269
   22SAPC  C212 2895   4.969   2.609   9.752 -0.3627  0.5258  0.1460
   22SAPC  H12R 2896   5.073   2.577   9.771  0.1788  0.4077 -2.5950
   22SAPC  C213 2897   4.905   2.527   9.644  0.7479  0.5433 -0.1992
   22SAPC  H13R 2898   4.977   2.476   9.577 -2.5550 -2.9287 -1.5112
   22SAPC  H13S 2899   4.824   2.582   9.592 -1.7412 -0.9931  1.8065
   22SAPC  C214 2900   4.837   2.405   9.704  0.3491 -0.0217 -0.4546
   22SAPC  H14R 2901   4.817   2.402   9.812 -1.0086 -1.0704 -0.7040
   22SAPC  C215 2902   4.794   2.298   9.630 -0.2835  0.2376 -0.3937
   22SAPC  H15R 2903   4.744   2.217   9.685  0.1336  0.4597  0.3294
   22SAPC  C216 2904   4.811   2.289   9.482  0.6458  0.3422  0.9504
   22SAPC  H16R 2905   4.791   2.385   9.432 -1.3576  0.8094  2.5355
   22SAPC  H16S 2906   4.742   2.215   9.437  0.5158  1.6909 -1.2106
   22SAPC  C217 2907   4.958   2.238   9.455 -0.2864 -0.1477  0.1760
   22SAPC  H17R 2908   4.972   2.143   9.510  0.7210  0.6955  1.4507
   22SAPC  H17S 2909   5.029   2.307   9.505  0.7239 -0.6981 -0.4720
   22SAPC  C218 2910   5.002   2.238   9.301  0.3365 -0.1501  0.0634
   22SAPC  H18R 2911   5.113   2.241   9.294  0.5173 -3.5298 -0.2566
   22SAPC  H18S 2912   4.958   2.331   9.259  3.1738  1.5510  0.5993
   22SAPC  C219 2913   4.969   2.106   9.232  0.3202 -0.4018  0.6120
   22SAPC  H19R 2914   4.861   2.082   9.222 -0.3005  1.9323  1.1577
   22SAPC  H19S 2915   5.013   2.020   9.287  0.3964  0.0098  1.1987
   22SAPC  C220 2916   5.020   2.102   9.092 -0.8667  0.0489  1.0761
   22SAPC  H20R 2917   5.129   2.126   9.089 -0.8464 -0.0595  0.9135
   22SAPC  H20S 2918   4.958   2.166   9.026 -1.1020 -3.0044 -1.9743
   22SAPC  H20T 2919   5.001   2.002   9.046  0.2364  0.9642 -1.6107
   22SAPC   C33 2920   4.199   3.310   9.905  0.4803  0.2436  0.0944
   22SAPC   H3X 2921   4.190   3.200   9.909 -0.5819  0.2555 -1.3622
   22SAPC   H3Y 2922   4.299   3.356   9.887  1.1791 -1.4650 -0.5296
   22SAPC   C34 2923   4.091   3.353   9.811 -0.0692 -0.0407 -0.5359
   22SAPC   H4X 2924   4.077   3.463   9.815  3.4197  0.4764  0.6174
   22SAPC   H4Y 2925   3.986   3.322   9.829 -0.7770  1.9788 -0.9020
   22SAPC   C35 2926   4.142   3.307   9.677  0.1092  0.4695  0.0628
   22SAPC   H5X 2927   4.171   3.200   9.685 -3.3883 -0.6051 -0.0623
   22SAPC   H5Y 2928   4.238   3.360   9.654  2.0513 -2.9210 -0.3560
   22SAPC   C36 2929   4.035   3.326   9.564  0.1269  0.2300 -0.5350
   22SAPC   H6X 2930   4.028   3.435   9.543 -0.4677  0.1285 -0.8860
   22SAPC   H6Y 2931   3.938   3.283   9.597  1.4478 -3.2596 -0.8007
   22SAPC   C37 2932   4.091   3.253   9.438  0.5586 -0.6438  0.5757
   22SAPC   H7X 2933   4.109   3.144   9.445 -0.3333 -0.7281  2.1234
   22SAPC   H7Y 2934   4.193   3.292   9.420  1.2185 -2.3930  0.3499
   22SAPC   C38 2935   3.997   3.282   9.320  0.2527  0.1998 -0.2194
   22SAPC   H8X 2936   3.975   3.390   9.307  2.7771  0.9618  1.2554
   22SAPC   H8Y 2937   3.902   3.227   9.341  1.7371 -2.1039  0.8063
   22SAPC   C39 2938   4.047   3.239   9.184  0.3721 -0.3934  0.2892
   22SAPC   H9X 2939   3.969   3.259   9.107  0.1835 -2.0965  0.0093
   22SAPC   H9Y 2940   4.066   3.130   9.191 -0.3176 -0.7235 -2.1904
   22SAPC  C310 2941   4.165   3.326   9.141  0.1679  0.3305 -0.8809
   22SAPC  H10X 2942   4.247   3.289   9.207  1.1615 -0.4140 -2.4544
   22SAPC  H10Y 2943   4.149   3.435   9.154  0.5453  0.2241  0.6310
   22SAPC  C311 2944   4.219   3.286   9.004 -0.4010 -0.4479  0.1842
   22SAPC  H11X 2945   4.198   3.182   8.972 -3.0120  0.4571 -1.3327
   22SAPC  H11Y 2946   4.328   3.284   9.027 -0.4138  0.4160  0.3468
   22SAPC  C312 2947   4.189   3.385   8.896 -1.0005 -0.1448  0.5677
   22SAPC  H12X 2948   4.240   3.483   8.911 -0.4388 -0.1535 -1.0934
   22SAPC  H12Y 2949   4.085   3.423   8.897 -1.2144 -0.7017 -0.0031
   22SAPC  C313 2950   4.220   3.336   8.750 -0.2120 -0.3757  0.9317
   22SAPC  H13X 2951   4.329   3.346   8.730 -0.4489 -0.5909 -0.6627
   22SAPC  H13Y 2952   4.175   3.412   8.682 -1.0678 -1.6132  0.0808
   22SAPC  C314 2953   4.165   3.201   8.711 -0.5569  0.6174 -0.4007
   22SAPC  H14X 2954   4.060   3.190   8.746  0.2444  0.1861  2.0212
   22SAPC  H14Y 2955   4.224   3.121   8.762 -1.5531  1.9590  3.1455
   22SAPC  C315 2956   4.168   3.168   8.565 -0.3880 -0.4726 -0.0716
   22SAPC  H15X 2957   4.270   3.187   8.524 -0.2973 -0.1005  0.3201
   22SAPC  H15Y 2958   4.097   3.222   8.499 -0.9471 -1.7268 -0.5175
   22SAPC  C316 2959   4.140   3.020   8.547  0.9494  0.1228 -0.3808
   22SAPC  H16X 2960   4.039   3.001   8.590  0.4155  2.9135 -0.2148
   22SAPC  H16Y 2961   4.210   2.956   8.604 -0.5293  0.4820  2.0056
   22SAPC  C317 2962   4.142   2.984   8.399 -0.0197 -0.2342 -0.6127
   22SAPC  H17X 2963   4.243   2.980   8.354 -0.7010 -0.8147 -2.1628
   22SAPC  H17Y 2964   4.080   3.058   8.344 -1.0338 -0.9482 -0.4702
   22SAPC  C318 2965   4.079   2.855   8.390 -0.6162 -0.0270  0.7116
   22SAPC  H18X 2966   4.089   2.823   8.284  0.1899  0.3394  0.6708
   22SAPC  H18Y 2967   3.973   2.856   8.422 -0.2702  0.0777  1.8758
   22SAPC  H18Z 2968   4.133   2.785   8.457  2.4716  1.8146  0.3092
   23SAPC     N 2969   6.478   3.260  10.714 -0.4341  0.1169 -0.8202
   23SAPC   C12 2970   6.609   3.191  10.750 -0.1019  0.2573 -0.0383
   23SAPC  H12A 2971   6.594   3.085  10.760  1.2647  0.2510  3.3890
   23SAPC  H12B 2972   6.640   3.224  10.848  1.3352 -1.2849  0.0768
   23SAPC   C13 2973   6.448   3.241  10.571 -0.0160  0.6056  0.6474
   23SAPC  H13A 2974   6.492   3.148  10.537 -1.8420  0.4641 -1.5862
   23SAPC  H13B 2975   6.341   3.252  10.566 -0.3118 -1.9002  0.1977
   23SAPC  H13C 2976   6.499   3.314  10.509  0.1573 -0.1972 -0.1779
   23SAPC   C14 2977   6.369   3.187  10.795 -0.2841  0.2285  0.7835
   23SAPC  H14A 2978   6.272   3.232  10.775 -0.2436 -0.1128 -0.2622
   23SAPC  H14B 2979   6.379   3.086  10.758  0.9722  0.8471 -0.6397
   23SAPC  H14C 2980   6.386   3.182  10.902 -1.0178 -1.3659  0.8563
   23SAPC   C15 2981   6.485   3.401  10.746 -0.2182 -0.5854 -0.5428
   23SAPC  H15A 2982   6.579   3.447  10.719 -0.1500 -0.2842  0.1723
   23SAPC  H15B 2983   6.397   3.449  10.708  0.2095  0.5840 -0.1210
   23SAPC  H15C 2984   6.482   3.407  10.854 -0.1737 -0.2518 -0.5591
   23SAPC   C11 2985   6.730   3.236  10.658  0.5027  0.0691  0.3908
   23SAPC  H11A 2986   6.716   3.225  10.549  1.8291  2.4723 -0.0901
   23SAPC  H11B 2987   6.813   3.165  10.679 -0.9528 -2.1609 -0.9823
   23SAPC     P 2988   6.815   3.486  10.592  0.1599  0.4428 -0.1019
   23SAPC   O13 2989   6.708   3.589  10.593  0.4249  0.6527 -0.2561
   23SAPC   O14 2990   6.955   3.526  10.626 -0.1122 -0.3877 -0.5430
   23SAPC   O12 2991   6.773   3.367  10.690 -0.2637  0.3570  0.4416
   23SAPC   O11 2992   6.814   3.404  10.450 -0.6181  0.0720  0.1564
   23SAPC    C1 2993   6.925   3.333  10.400  0.0770  0.1518  0.3316
   23SAPC    HA 2994   6.993   3.288  10.476  0.7941  0.1644 -0.2872
   23SAPC    HB 2995   6.883   3.245  10.347 -1.3121  0.6385  0.5935
   23SAPC    C2 2996   7.002   3.420  10.293  0.1171  0.8703 -0.6484
   23SAPC    HS 2997   7.049   3.506  10.345  0.3379 -0.6450  1.8348
   23SAPC   O21 2998   6.906   3.443  10.193 -0.3031 -0.4091 -0.5733
   23SAPC   C21 2999   6.837   3.561  10.200 -0.1824  0.7999 -0.3285
   23SAPC   O22 3000   6.861   3.652  10.277  0.0184  0.0015  0.3652
   23SAPC   C22 3001   6.744   3.568  10.083 -0.1980 -0.1990  0.4760
   23SAPC   H2R 3002   6.800   3.531   9.995  0.0887  1.9787 -0.3138
   23SAPC   H2S 3003   6.660   3.502  10.116  1.5469 -1.3715  2.8736
   23SAPC    C3 3004   7.128   3.342  10.233  0.6293 -0.1086  0.2722
   23SAPC    HX 3005   7.101   3.245  10.185  0.4657 -0.0790  0.3030
   23SAPC    HY 3006   7.191   3.327  10.324  0.0184  1.7867  1.0572
   23SAPC   O31 3007   7.203   3.418  10.134  0.0091  0.2711  0.3488
   23SAPC   C31 3008   7.295   3.496  10.180  0.3284 -0.0365 -0.3496
   23SAPC   O32 3009   7.326   3.508  10.297  0.1209  0.2103  0.1037
   23SAPC   C32 3010   7.380   3.551  10.064  0.4575 -0.1354  0.3369
   23SAPC   H2X 3011   7.339   3.649  10.034 -0.0148 -0.3121  0.3949
   23SAPC   H2Y 3012   7.377   3.485   9.975 -0.7168 -1.1686  1.1087
   23SAPC   C23 3013   6.695   3.712  10.059  0.2942 -0.1349 -0.3275
   23SAPC   H3R 3014   6.785   3.765  10.021  1.0827 -2.0483 -1.2946
   23SAPC   H3S 3015   6.656   3.754  10.154  1.6963  2.5300 -0.8334
   23SAPC   C24 3016   6.590   3.723   9.954 -0.2477  0.0390 -0.1449
   23SAPC   H4R 3017   6.637   3.671   9.868  0.7176 -3.1278  2.1115
   23SAPC   H4S 3018   6.561   3.825   9.921 -2.7297  0.0001  1.5464
   23SAPC   C25 3019   6.463   3.644   9.982  0.6979  0.7318  0.1940
   23SAPC   H5R 3020   6.425   3.659  10.085  1.5989  0.5500  0.5581
   23SAPC   C26 3021   6.398   3.561   9.898 -0.6368 -0.2764  0.0440
   23SAPC   H6R 3022   6.302   3.519   9.932  0.9834 -2.3969  2.3741
   23SAPC   C27 3023   6.444   3.521   9.758  0.5930  0.1360 -0.0576
   23SAPC   H7R 3024   6.410   3.418   9.736 -1.8501  1.2143 -1.7686
   23SAPC   H7S 3025   6.555   3.513   9.751  0.4489 -0.6665 -2.6927
   23SAPC   C28 3026   6.413   3.635   9.660  0.6151  0.1911 -0.3722
   23SAPC   H8R 3027   6.455   3.732   9.691  2.0682 -0.8823  1.2395
   23SAPC   C29 3028   6.341   3.622   9.548  0.5438 -0.5795  0.4581
   23SAPC   H9R 3029   6.314   3.710   9.487  0.7649 -0.4118  0.6031
   23SAPC  C210 3030   6.279   3.494   9.494 -0.4708  0.5772 -0.2897
   23SAPC  H10R 3031   6.187   3.528   9.442 -1.6580  1.8513  2.4527
   23SAPC  H10S 3032   6.245   3.436   9.583  1.9772  3.3377  2.6763
   23SAPC  C211 3033   6.369   3.412   9.397 -0.3966 -0.1150  0.0464
   23SAPC  H11R 3034   6.429   3.333   9.445 -2.4841 -1.4843  0.5456
   23SAPC  C212 3035   6.381   3.425   9.262  0.4180 -0.0849  0.4536
   23SAPC  H12R 3036   6.461   3.367   9.213  0.4079 -0.5612  0.9768
   23SAPC  C213 3037   6.308   3.527   9.178 -0.0576 -0.1321  0.9338
   23SAPC  H13R 3038   6.369   3.620   9.175 -1.5723  0.8758  0.4062
   23SAPC  H13S 3039   6.215   3.569   9.219 -0.1720 -0.2628  0.8122
   23SAPC  C214 3040   6.280   3.474   9.041 -0.0753  0.3701  0.6012
   23SAPC  H14R 3041   6.175   3.445   9.026 -0.6509  1.3841  2.3375
   23SAPC  C215 3042   6.364   3.458   8.936  0.3301 -0.0601  0.6412
   23SAPC  H15R 3043   6.320   3.429   8.840 -0.0653  0.1272  0.7615
   23SAPC  C216 3044   6.508   3.496   8.936 -0.3352 -0.5748 -0.3480
   23SAPC  H16R 3045   6.574   3.407   8.943  0.7213  0.0333 -2.0237
   23SAPC  H16S 3046   6.539   3.563   9.019  1.1932 -1.4436 -0.1854
   23SAPC  C217 3047   6.525   3.596   8.817 -0.2370 -0.3867 -1.1885
   23SAPC  H17R 3048   6.619   3.653   8.835 -0.6525 -0.0302 -0.0460
   23SAPC  H17S 3049   6.435   3.661   8.829  1.0346  1.2549  0.1065
   23SAPC  C218 3050   6.533   3.538   8.675 -0.2405  0.3745  0.6992
   23SAPC  H18R 3051   6.508   3.612   8.597  1.4555 -1.1825 -1.4312
   23SAPC  H18S 3052   6.457   3.457   8.667  1.4579 -1.2347  0.0235
   23SAPC  C219 3053   6.656   3.454   8.643 -0.4065  0.0457 -0.0194
   23SAPC  H19R 3054   6.636   3.393   8.552  1.3089  1.5767 -1.5051
   23SAPC  H19S 3055   6.685   3.384   8.724 -1.7178 -2.0924 -1.3143
   23SAPC  C220 3056   6.789   3.523   8.604 -0.0702 -0.0994 -0.4320
   23SAPC  H20R 3057   6.839   3.584   8.683  0.7208 -1.2776  0.0031
   23SAPC  H20S 3058   6.774   3.588   8.515  1.9929  0.5477 -0.3543
   23SAPC  H20T 3059   6.867   3.445   8.595 -0.4032 -0.6365  1.0522
   23SAPC   C33 3060   7.533   3.566  10.095 -0.6073 -0.0989  0.5099
   23SAPC   H3X 3061   7.544   3.642  10.175 -1.1805  0.7675 -0.2136
   23SAPC   H3Y 3062   7.564   3.620  10.003 -1.8586  2.0659  1.2754
   23SAPC   C34 3063   7.602   3.426  10.120 -0.1636  0.0531 -0.1068
   23SAPC   H4X 3064   7.524   3.380  10.186 -2.3082  1.5017 -1.5033
   23SAPC   H4Y 3065   7.695   3.439  10.180  0.2525 -1.2073 -0.4503
   23SAPC   C35 3066   7.620   3.327  10.001 -0.0743 -0.2063  0.1186
   23SAPC   H5X 3067   7.518   3.312   9.959 -0.9058 -2.9529  2.7414
   23SAPC   H5Y 3068   7.652   3.228  10.040  2.6564  0.6000  0.1380
   23SAPC   C36 3069   7.725   3.368   9.897 -0.7554 -1.2202  0.5644
   23SAPC   H6X 3070   7.828   3.385   9.934 -0.8524  0.5445  0.1351
   23SAPC   H6Y 3071   7.694   3.465   9.853 -0.9172 -0.8338  1.4960
   23SAPC   C37 3072   7.735   3.257   9.791  0.6517 -0.2707 -0.4424
   23SAPC   H7X 3073   7.635   3.246   9.744  1.1279 -1.4595 -1.2355
   23SAPC   H7Y 3074   7.779   3.167   9.838 -0.6250 -0.1548  1.0704
   23SAPC   C38 3075   7.829   3.310   9.675  0.2777  0.6911 -0.5538
   23SAPC   H8X 3076   7.938   3.315   9.696  0.6684 -1.6610 -1.6490
   23SAPC   H8Y 3077   7.784   3.408   9.647 -4.1407 -0.4052  1.8177
   23SAPC   C39 3078   7.811   3.226   9.546 -0.2254 -0.2967  0.0767
   23SAPC   H9X 3079   7.703   3.224   9.519 -0.0983 -0.2808 -0.4501
   23SAPC   H9Y 3080   7.838   3.120   9.565 -2.7732 -0.6892  2.1220
   23SAPC  C310 3081   7.883   3.291   9.426  0.2520 -0.3265 -0.5597
   23SAPC  H10X 3082   7.993   3.287   9.446  0.0443 -0.9443  0.4963
   23SAPC  H10Y 3083   7.856   3.399   9.429  0.7114 -0.2271  1.9839
   23SAPC  C311 3084   7.833   3.222   9.305 -0.0869  0.5477 -0.9877
   23SAPC  H11X 3085   7.723   3.234   9.288 -0.3200 -0.9384 -0.6836
   23SAPC  H11Y 3086   7.850   3.112   9.308  1.2473  0.7258 -1.6768
   23SAPC  C312 3087   7.909   3.285   9.175  0.1905  0.1258  0.0855
   23SAPC  H12X 3088   8.018   3.282   9.195  0.0590 -0.1002  0.8094
   23SAPC  H12Y 3089   7.869   3.388   9.167 -1.4004 -0.5328 -0.8175
   23SAPC  C313 3090   7.887   3.201   9.050  0.4184  0.3652 -0.6667
   23SAPC  H13X 3091   7.778   3.189   9.035  0.2827 -1.4309  1.3554
   23SAPC  H13Y 3092   7.925   3.097   9.066 -0.1573  0.3903  1.0434
   23SAPC  C314 3093   7.948   3.254   8.922  0.0415 -0.6402 -0.0479
   23SAPC  H14X 3094   8.056   3.273   8.907 -0.0176 -0.4987 -0.3111
   23SAPC  H14Y 3095   7.907   3.356   8.901  2.2817  0.2017 -0.5534
   23SAPC  C315 3096   7.915   3.164   8.802  0.1103 -0.1935  0.0970
   23SAPC  H15X 3097   7.946   3.223   8.713 -0.7189  1.8262  1.0816
   23SAPC  H15Y 3098   7.809   3.129   8.809  0.3933 -0.8876  1.1008
   23SAPC  C316 3099   8.000   3.037   8.788 -0.7405  0.2172 -0.3210
   23SAPC  H16X 3100   7.987   2.961   8.867 -0.4176 -1.2981 -1.6594
   23SAPC  H16Y 3101   8.106   3.070   8.794 -1.1407  1.5802 -0.3200
   23SAPC  C317 3102   7.972   2.966   8.651 -0.4241 -0.4041  0.6655
   23SAPC  H17X 3103   8.024   3.024   8.571  0.9842 -0.7165  1.3225
   23SAPC  H17Y 3104   7.864   2.969   8.627 -0.3266 -0.0347  0.2547
   23SAPC  C318 3105   8.025   2.822   8.658  0.1853 -0.0968  0.0722
   23SAPC  H18X 3106   8.135   2.833   8.653  0.4550 -2.1854  0.6234
   23SAPC  H18Y 3107   7.982   2.761   8.576 -1.4315 -0.1244  0.9128
   23SAPC  H18Z 3108   7.996   2.774   8.754  0.1987 -2.8345 -1.2207
   24SAPC     N 3109   2.304   1.384  11.158  0.6136 -0.4813  0.3218
   24SAPC   C12 3110   2.300   1.357  11.009  0.7162  0.3513  0.0422
   24SAPC  H12A 3111   2.214   1.405  10.966  0.9209  1.6203  0.9999
   24SAPC  H12B 3112   2.292   1.250  10.999  0.3143  0.2731  1.0945
   24SAPC   C13 3113   2.422   1.337  11.235  0.2175  0.7557 -0.3446
   24SAPC  H13A 3114   2.513   1.364  11.183  0.3766 -3.0736 -2.3920
   24SAPC  H13B 3115   2.428   1.384  11.332 -1.2826 -1.1252  0.7388
   24SAPC  H13C 3116   2.418   1.229  11.234  0.1524  0.7572 -0.2398
   24SAPC   C14 3117   2.282   1.532  11.199  0.5033  0.3400 -0.2106
   24SAPC  H14A 3118   2.290   1.534  11.307 -2.0445 -0.6482  0.0715
   24SAPC  H14B 3119   2.368   1.589  11.167  1.0186  0.3123  1.0510
   24SAPC  H14C 3120   2.184   1.566  11.169  1.2693  0.9703 -2.1408
   24SAPC   C15 3121   2.187   1.310  11.214 -0.5767 -0.7601 -1.0050
   24SAPC  H15A 3122   2.189   1.202  11.212 -0.3844 -0.8685  1.7959
   24SAPC  H15B 3123   2.177   1.339  11.318  1.0478 -0.8627 -0.8015
   24SAPC  H15C 3124   2.101   1.337  11.154  0.4919 -2.1263 -3.2710
   24SAPC   C11 3125   2.409   1.421  10.925  0.0835  0.4948  0.3540
   24SAPC  H11A 3126   2.398   1.381  10.822 -0.6005 -0.7622  0.8904
   24SAPC  H11B 3127   2.504   1.373  10.956  0.1589 -1.1169 -2.0780
   24SAPC     P 3128   2.313   1.643  10.847  0.2092  0.2421  0.2960
   24SAPC   O13 3129   2.173   1.592  10.861 -0.1375 -0.1387 -0.4748
   24SAPC   O14 3130   2.328   1.789  10.875  0.3267 -0.4581 -0.1974
   24SAPC   O12 3131   2.411   1.561  10.937 -0.2769 -0.6655 -0.0995
   24SAPC   O11 3132   2.357   1.617  10.698  0.2289  0.3836 -0.4166
   24SAPC    C1 3133   2.493   1.612  10.666 -0.1970 -0.1638  0.1240
   24SAPC    HA 3134   2.540   1.558  10.751 -1.1420  0.8872  1.3433
   24SAPC    HB 3135   2.496   1.549  10.574 -1.2559 -0.5273  0.3243
   24SAPC    C2 3136   2.545   1.758  10.641  0.6479  0.2968  0.0307
   24SAPC    HS 3137   2.548   1.803  10.743  0.0590  0.4530 -0.0211
   24SAPC   O21 3138   2.451   1.818  10.553  0.1030  0.1846  0.4989
   24SAPC   C21 3139   2.454   1.947  10.533  0.1252  0.3074  0.2939
   24SAPC   O22 3140   2.526   2.025  10.592 -0.1076  0.2463  0.1425
   24SAPC   C22 3141   2.351   1.989  10.432  0.7836  0.6979 -1.3902
   24SAPC   H2R 3142   2.257   2.001  10.489  1.2805 -1.2325 -0.0639
   24SAPC   H2S 3143   2.378   2.087  10.387 -0.2287  1.8244  0.2927
   24SAPC    C3 3144   2.688   1.751  10.576  0.4719  0.4463 -0.6012
   24SAPC    HX 3145   2.748   1.702  10.656  0.1926  0.4553 -0.3835
   24SAPC    HY 3146   2.721   1.856  10.564  0.6532  0.4133 -0.3867
   24SAPC   O31 3147   2.689   1.679  10.446  0.3044 -0.4927  0.6508
   24SAPC   C31 3148   2.713   1.764  10.343 -0.0583 -0.4194  0.0153
   24SAPC   O32 3149   2.711   1.886  10.348  0.2240  1.2011 -0.1432
   24SAPC   C32 3150   2.736   1.681  10.213  0.1670 -0.5800  0.1881
   24SAPC   H2X 3151   2.692   1.580  10.228  0.6825 -0.6440  1.3201
   24SAPC   H2Y 3152   2.847   1.682  10.208  0.1637  2.4684 -1.9508
   24SAPC   C23 3153   2.323   1.894  10.311 -0.0579  0.5564  0.6279
   24SAPC   H3R 3154   2.286   1.795  10.346 -0.4109  0.7353  0.7557
   24SAPC   H3S 3155   2.414   1.872  10.251 -0.8082  1.6178 -0.9650
   24SAPC   C24 3156   2.221   1.953  10.209  0.1495 -0.0407 -0.9646
   24SAPC   H4R 3157   2.219   1.875  10.130 -1.9981 -0.6601 -0.3759
   24SAPC   H4S 3158   2.250   2.052  10.168  0.0282  0.1499 -0.5972
   24SAPC   C25 3159   2.088   1.963  10.268  0.2907  0.3792 -0.2887
   24SAPC   H5R 3160   2.077   2.052  10.331  0.8035 -0.4143  0.9740
   24SAPC   C26 3161   1.984   1.879  10.240  0.5167  0.2483  0.6343
   24SAPC   H6R 3162   1.886   1.902  10.285  0.9701 -1.2062  2.4804
   24SAPC   C27 3163   1.990   1.765  10.139  0.6807  0.4283 -0.2822
   24SAPC   H7R 3164   2.079   1.701  10.152  0.9886  1.0774  0.9762
   24SAPC   H7S 3165   1.983   1.794  10.032 -1.4782  0.2634 -0.2278
   24SAPC   C28 3166   1.870   1.673  10.160 -0.7844  0.9156  0.4474
   24SAPC   H8R 3167   1.870   1.626  10.260  0.7411  1.7833  0.8954
   24SAPC   C29 3168   1.777   1.640  10.072 -0.1887 -0.0479  0.3870
   24SAPC   H9R 3169   1.697   1.577  10.116  0.7623 -0.0987  2.1529
   24SAPC  C210 3170   1.757   1.688   9.930 -1.2701 -0.5346  0.0042
   24SAPC  H10R 3171   1.797   1.791   9.923 -2.1922 -0.2440 -1.4696
   24SAPC  H10S 3172   1.652   1.699   9.896 -1.0129  1.2015 -0.2931
   24SAPC  C211 3173   1.837   1.617   9.824  0.3627 -0.1362  0.5027
   24SAPC  H11R 3174   1.940   1.585   9.847  0.8301  0.8467 -0.1401
   24SAPC  C212 3175   1.802   1.598   9.693  0.2792  0.0609  0.0571
   24SAPC  H12R 3176   1.877   1.540   9.637 -1.1740 -3.8782  1.8750
   24SAPC  C213 3177   1.674   1.647   9.629  0.0473  0.7378 -0.8296
   24SAPC  H13R 3178   1.704   1.701   9.536 -0.9368  0.2272 -1.4582
   24SAPC  H13S 3179   1.625   1.721   9.697  2.9481 -0.3583  2.8138
   24SAPC  C214 3180   1.574   1.537   9.601 -0.5953 -0.3820 -0.4633
   24SAPC  H14R 3181   1.498   1.524   9.679 -0.3587  0.6047 -0.0520
   24SAPC  C215 3182   1.581   1.430   9.510 -0.2209 -0.4628  0.5128
   24SAPC  H15R 3183   1.497   1.359   9.499  0.1288 -0.5879 -1.6008
   24SAPC  C216 3184   1.685   1.418   9.401 -0.5819 -0.3183  0.7767
   24SAPC  H16R 3185   1.765   1.494   9.416  0.0706 -0.8130 -0.1337
   24SAPC  H16S 3186   1.654   1.417   9.295 -2.8880  1.5816  1.3304
   24SAPC  C217 3187   1.760   1.289   9.406 -0.7222 -0.0096 -0.0610
   24SAPC  H17R 3188   1.692   1.202   9.393  0.4016 -0.9645  0.2462
   24SAPC  H17S 3189   1.806   1.270   9.506 -1.4431 -1.3517  0.0290
   24SAPC  C218 3190   1.877   1.289   9.301 -0.2573  0.8868  0.5205
   24SAPC  H18R 3191   1.947   1.369   9.333  0.3589 -0.1361  1.8689
   24SAPC  H18S 3192   1.830   1.298   9.201  1.4033 -1.4950 -0.5872
   24SAPC  C219 3193   1.948   1.159   9.306  0.4495 -0.2200  0.0905
   24SAPC  H19R 3194   1.891   1.066   9.286  0.2271  0.0109 -0.3642
   24SAPC  H19S 3195   1.972   1.149   9.414 -0.5992  1.9628  0.5771
   24SAPC  C220 3196   2.065   1.165   9.208 -0.6304  0.2491 -0.4572
   24SAPC  H20R 3197   2.135   1.247   9.231  1.3783 -1.2436 -0.9451
   24SAPC  H20S 3198   2.029   1.182   9.104 -0.9791 -2.9595 -0.9684
   24SAPC  H20T 3199   2.119   1.068   9.213 -1.1515  0.0343  2.5626
   24SAPC   C33 3200   2.670   1.738  10.081  0.4139  0.3416 -0.0421
   24SAPC   H3X 3201   2.746   1.743  10.001  2.7065  2.7898  2.0826
   24SAPC   H3Y 3202   2.638   1.844  10.092  0.6958  0.5840 -1.3551
   24SAPC   C34 3203   2.549   1.657  10.032 -0.5823 -0.5016 -0.0914
   24SAPC   H4X 3204   2.501   1.619  10.125  0.2011 -0.4446  0.3437
   24SAPC   H4Y 3205   2.593   1.573   9.975  0.4866 -0.8232  1.1704
   24SAPC   C35 3206   2.450   1.740   9.950 -0.2935 -0.0963 -0.3729
   24SAPC   H5X 3207   2.447   1.845   9.987  0.9179  0.9274 -2.9355
   24SAPC   H5Y 3208   2.354   1.695   9.981 -0.2725  0.3266  0.3205
   24SAPC   C36 3209   2.478   1.714   9.803 -0.5024 -0.3588 -0.6999
   24SAPC   H6X 3210   2.474   1.603   9.794 -2.3117 -0.6842  2.6018
   24SAPC   H6Y 3211   2.584   1.744   9.784 -0.0584 -1.3415  0.1222
   24SAPC   C37 3212   2.387   1.784   9.701  0.4203 -0.3216 -0.5217
   24SAPC   H7X 3213   2.427   1.774   9.598  2.1845 -0.9980  0.1816
   24SAPC   H7Y 3214   2.402   1.893   9.717 -1.8462 -0.0333  0.0164
   24SAPC   C38 3215   2.239   1.751   9.715 -0.3089  0.8183 -0.4052
   24SAPC   H8X 3216   2.192   1.779   9.812  0.7928 -0.1468  0.4372
   24SAPC   H8Y 3217   2.228   1.641   9.722  0.8215  0.7490  0.4321
   24SAPC   C39 3218   2.152   1.792   9.595 -0.0103  0.0331  0.2543
   24SAPC   H9X 3219   2.177   1.896   9.566 -0.8644  0.1985  0.0708
   24SAPC   H9Y 3220   2.046   1.791   9.629 -0.2337 -1.1295 -0.4414
   24SAPC  C310 3221   2.169   1.699   9.478  0.1259  0.8675  0.4552
   24SAPC  H10X 3222   2.148   1.597   9.518 -2.4013  0.2671 -2.0529
   24SAPC  H10Y 3223   2.272   1.698   9.438 -1.3419 -1.6885 -4.0269
   24SAPC  C311 3224   2.061   1.714   9.376  0.8405 -0.5381  0.0410
   24SAPC  H11X 3225   2.053   1.821   9.345  1.7828 -0.9800 -1.9091
   24SAPC  H11Y 3226   1.969   1.680   9.425 -0.3180 -1.2047 -2.4277
   24SAPC  C312 3227   2.087   1.633   9.250  0.0410  0.6128  0.1788
   24SAPC  H12X 3228   2.103   1.526   9.276 -0.6135  0.3474 -0.4738
   24SAPC  H12Y 3229   2.171   1.677   9.191  0.3419 -1.2834 -0.9190
   24SAPC  C313 3230   1.966   1.634   9.153 -0.0696  0.0720 -0.0096
   24SAPC  H13X 3231   1.945   1.742   9.134  0.7055  0.6018  1.9058
   24SAPC  H13Y 3232   1.883   1.597   9.217  0.6931  1.4249  1.8765
   24SAPC  C314 3233   1.989   1.548   9.032 -0.7777  0.3235 -1.1687
   24SAPC  H14X 3234   1.996   1.438   9.045  1.6026  0.4232 -1.3019
   24SAPC  H14Y 3235   2.085   1.585   8.990  0.2032 -0.7718  0.0348
   24SAPC  C315 3236   1.888   1.557   8.926  0.1917  0.0949 -0.1234
   24SAPC  H15X 3237   1.944   1.521   8.837  0.0141 -1.6562  0.4286
   24SAPC  H15Y 3238   1.875   1.667   8.927  0.1913  0.1527  3.0747
   24SAPC  C316 3239   1.760   1.476   8.944  0.6311  0.5403  0.1724
   24SAPC  H16X 3240   1.787   1.382   8.996  0.4464 -0.7829 -2.0078
   24SAPC  H16Y 3241   1.715   1.450   8.845  0.3526 -1.1331  0.7166
   24SAPC  C317 3242   1.653   1.549   9.018 -0.9771  0.6315 -0.6737
   24SAPC  H17X 3243   1.706   1.578   9.111 -0.4333  1.1155 -1.1273
   24SAPC  H17Y 3244   1.566   1.487   9.049  0.5205 -2.6519 -2.5228
   24SAPC  C318 3245   1.604   1.671   8.945  0.3233 -0.0631 -0.3589
   24SAPC  H18X 3246   1.519   1.649   8.877 -0.1046  0.0040  0.1502
   24SAPC  H18Y 3247   1.688   1.714   8.888  1.9962 -0.1753  1.8946
   24SAPC  H18Z 3248   1.571   1.748   9.017  2.2741 -0.4012  0.9792
   25SAPC     N 3249   6.369   1.836   5.882 -0.7599 -0.4090  0.0620
   25SAPC   C12 3250   6.454   1.800   6.003  0.4584 -0.4184  0.4974
   25SAPC  H12A 3251   6.419   1.863   6.083 -0.2547 -0.9631  0.6246
   25SAPC  H12B 3252   6.557   1.826   5.982 -0.5010  2.4613 -1.3104
   25SAPC   C13 3253   6.388   1.980   5.851 -1.3781  0.1606  0.3610
   25SAPC  H13A 3254   6.477   2.007   5.797 -2.5222  1.8399 -0.7593
   25SAPC  H13B 3255   6.304   2.013   5.792 -1.2899 -0.2935 -0.0265
   25SAPC  H13C 3256   6.390   2.043   5.939 -0.4315 -0.0504  0.5077
   25SAPC   C14 3257   6.397   1.749   5.768  0.0584  0.4609 -0.4548
   25SAPC  H14A 3258   6.318   1.757   5.695  0.0449  2.0267 -0.3009
   25SAPC  H14B 3259   6.496   1.766   5.729 -0.0934  0.8664 -0.6622
   25SAPC  H14C 3260   6.405   1.648   5.806 -0.0150  0.8713  0.6971
   25SAPC   C15 3261   6.224   1.821   5.918  0.3283 -0.1824 -0.2647
   25SAPC  H15A 3262   6.200   1.719   5.945 -0.6797  0.0524 -0.2602
   25SAPC  H15B 3263   6.204   1.899   5.990  1.2026 -0.7308  0.6084
   25SAPC  H15C 3264   6.160   1.852   5.837  0.0992  1.3068  0.4539
   25SAPC   C11 3265   6.444   1.656   6.048  0.0435  0.2060  0.4113
   25SAPC  H11A 3266   6.338   1.624   6.045 -0.0887  0.6953 -0.5723
   25SAPC  H11B 3267   6.465   1.653   6.157 -1.5807  0.6481  0.7578
   25SAPC     P 3268   6.687   1.569   5.977  0.1767 -0.0633 -0.3637
   25SAPC   O13 3269   6.742   1.452   5.901 -0.2008  0.1549  0.2825
   25SAPC   O14 3270   6.738   1.700   5.933 -0.2123 -0.2002 -0.8280
   25SAPC   O12 3271   6.525   1.566   5.967  0.6976 -0.2481  0.3016
   25SAPC   O11 3272   6.708   1.554   6.128  0.1794  0.2782  0.2599
   25SAPC    C1 3273   6.665   1.443   6.203 -0.4551  0.2625  0.3028
   25SAPC    HA 3274   6.559   1.417   6.180 -0.4181  0.4995 -0.1511
   25SAPC    HB 3275   6.720   1.348   6.185  1.3331  1.4969 -1.1652
   25SAPC    C2 3276   6.653   1.473   6.359 -0.3099 -0.7020  0.4455
   25SAPC    HS 3277   6.602   1.569   6.381  2.4029  0.5128  1.8810
   25SAPC   O21 3278   6.782   1.453   6.419 -0.6600 -0.4359  0.0096
   25SAPC   C21 3279   6.818   1.534   6.524 -0.3316 -0.7296  0.6693
   25SAPC   O22 3280   6.770   1.641   6.549 -0.1373 -0.4787  0.2344
   25SAPC   C22 3281   6.935   1.477   6.599 -0.4894 -0.4466 -0.0835
   25SAPC   H2R 3282   6.999   1.433   6.520  0.1554 -0.7541  0.5984
   25SAPC   H2S 3283   6.991   1.562   6.645  0.6634 -2.1489  1.8068
   25SAPC    C3 3284   6.558   1.366   6.424 -0.3745 -0.5982  0.3084
   25SAPC    HX 3285   6.603   1.270   6.390 -1.5909 -0.9661 -0.3245
   25SAPC    HY 3286   6.462   1.381   6.371  0.2871  0.5617 -0.6286
   25SAPC   O31 3287   6.558   1.363   6.574  0.6613  0.8968  0.2760
   25SAPC   C31 3288   6.452   1.403   6.634 -0.0848 -0.1448 -1.2662
   25SAPC   O32 3289   6.339   1.428   6.597  0.0997 -0.4547  0.2477
   25SAPC   C32 3290   6.484   1.406   6.781  0.1564  0.0792 -0.8397
   25SAPC   H2X 3291   6.565   1.480   6.798  2.2737 -2.2774  0.0299
   25SAPC   H2Y 3292   6.534   1.314   6.817  0.0941 -0.1392 -1.3105
   25SAPC   C23 3293   6.895   1.381   6.712 -0.5776  0.3835  0.2796
   25SAPC   H3R 3294   6.832   1.305   6.662 -0.7277  0.4111  0.4233
   25SAPC   H3S 3295   6.826   1.440   6.777 -0.0936 -0.0083  1.1767
   25SAPC   C24 3296   7.009   1.331   6.801 -0.4100 -0.3461 -0.4228
   25SAPC   H4R 3297   7.089   1.280   6.742 -1.7190 -1.2860 -1.4435
   25SAPC   H4S 3298   6.962   1.247   6.857 -0.7365 -0.5773 -1.0325
   25SAPC   C25 3299   7.084   1.438   6.883  0.2614 -0.3005 -0.2776
   25SAPC   H5R 3300   7.104   1.530   6.828 -2.0071 -0.0166 -0.7404
   25SAPC   C26 3301   7.127   1.427   7.013 -0.3805  0.8498  0.6162
   25SAPC   H6R 3302   7.181   1.507   7.066 -0.0743  0.0123  1.5930
   25SAPC   C27 3303   7.117   1.300   7.090  0.5605 -0.3095  0.5307
   25SAPC   H7R 3304   7.215   1.288   7.141  2.1163 -0.6577 -2.3072
   25SAPC   H7S 3305   7.109   1.212   7.023 -2.0550  0.2701 -0.0612
   25SAPC   C28 3306   6.997   1.310   7.194 -0.1599  0.3660  0.0605
   25SAPC   H8R 3307   6.905   1.352   7.148  0.3220  0.3213 -0.9784
   25SAPC   C29 3308   7.000   1.263   7.324 -0.1760 -0.3530  0.3178
   25SAPC   H9R 3309   6.911   1.288   7.385 -1.4209 -2.1769 -0.6546
   25SAPC  C210 3310   7.104   1.185   7.401  0.3268  0.2267 -0.2829
   25SAPC  H10R 3311   7.086   1.192   7.511  0.3585  0.7655 -0.3125
   25SAPC  H10S 3312   7.210   1.210   7.378  0.3557  2.4806  1.9454
   25SAPC  C211 3313   7.090   1.034   7.373  0.0223 -0.5539 -0.0934
   25SAPC  H11R 3314   7.155   0.999   7.291 -1.1792 -0.6209 -1.0557
   25SAPC  C212 3315   7.010   0.937   7.428 -0.4877  0.4817  0.6494
   25SAPC  H12R 3316   7.035   0.834   7.397  2.1394  0.9245  0.9945
   25SAPC  C213 3317   6.912   0.959   7.535 -0.3339 -0.5083 -0.3450
   25SAPC  H13R 3318   6.906   1.067   7.556  1.6636 -0.0982 -1.5656
   25SAPC  H13S 3319   6.944   0.913   7.631 -0.1808 -2.9441 -1.4816
   25SAPC  C214 3320   6.779   0.891   7.511  0.2129  0.6687  0.6155
   25SAPC  H14R 3321   6.704   0.968   7.490  0.3499  0.9763  1.2027
   25SAPC  C215 3322   6.746   0.760   7.533  0.0474 -0.0621 -0.5638
   25SAPC  H15R 3323   6.640   0.728   7.532 -0.3783  1.0567  1.4458
   25SAPC  C216 3324   6.840   0.654   7.588 -0.4969 -0.3275 -0.1176
   25SAPC  H16R 3325   6.791   0.607   7.675 -0.5815  1.1527  0.6533
   25SAPC  H16S 3326   6.937   0.701   7.617  0.1451 -0.9224 -1.1982
   25SAPC  C217 3327   6.857   0.536   7.486  0.4326 -0.0522 -0.4352
   25SAPC  H17R 3328   6.893   0.576   7.388  1.5540 -0.2509 -0.1166
   25SAPC  H17S 3329   6.762   0.482   7.468 -2.0585  3.8826 -0.3013
   25SAPC  C218 3330   6.971   0.437   7.524  0.3458 -0.1359 -0.4279
   25SAPC  H18R 3331   6.963   0.410   7.632 -1.0174  0.0200 -0.4634
   25SAPC  H18S 3332   7.072   0.477   7.507  0.0300  0.4706 -0.9070
   25SAPC  C219 3333   6.973   0.312   7.434 -0.5204  0.0403 -0.1682
   25SAPC  H19R 3334   6.947   0.346   7.332 -2.8671  2.4291  1.1122
   25SAPC  H19S 3335   6.896   0.243   7.477  0.3204  0.7933  2.8103
   25SAPC  C220 3336   7.104   0.237   7.437 -0.7004  0.1367 -0.3687
   25SAPC  H20R 3337   7.104   0.134   7.395  0.5394  0.2338 -0.6361
   25SAPC  H20S 3338   7.126   0.231   7.545 -0.4883 -0.3683 -0.4414
   25SAPC  H20T 3339   7.178   0.296   7.379 -2.2379  2.1374 -0.4386
   25SAPC   C33 3340   6.361   1.443   6.866 -0.3261 -0.0771  0.8900
   25SAPC   H3X 3341   6.277   1.374   6.847  1.8300 -2.2531 -1.6571
   25SAPC   H3Y 3342   6.333   1.549   6.846  2.0788  0.8634  2.1117
   25SAPC   C34 3343   6.389   1.434   7.013  0.3140  0.4493 -0.2280
   25SAPC   H4X 3344   6.489   1.483   7.021  0.4727  0.1499 -0.3768
   25SAPC   H4Y 3345   6.396   1.332   7.054  0.0845  1.3085  2.0625
   25SAPC   C35 3346   6.292   1.529   7.095 -0.6884  0.1877 -0.4165
   25SAPC   H5X 3347   6.189   1.490   7.107 -0.9680  1.4703  1.9824
   25SAPC   H5Y 3348   6.288   1.628   7.045 -1.4988  0.1592 -0.4195
   25SAPC   C36 3349   6.346   1.548   7.241 -0.4804 -0.0381  1.0358
   25SAPC   H6X 3350   6.456   1.550   7.230 -0.7303  0.1353 -2.4548
   25SAPC   H6Y 3351   6.324   1.455   7.299 -0.7111 -0.0973  0.8560
   25SAPC   C37 3352   6.292   1.678   7.307  0.2095 -0.4019  0.4531
   25SAPC   H7X 3353   6.190   1.652   7.343 -1.2655 -0.3401 -3.2708
   25SAPC   H7Y 3354   6.296   1.758   7.230 -0.6306 -1.4746 -0.7191
   25SAPC   C38 3355   6.379   1.726   7.423  0.4264 -0.7530 -0.0991
   25SAPC   H8X 3356   6.387   1.647   7.500  0.5946 -0.0044  0.6637
   25SAPC   H8Y 3357   6.314   1.797   7.477 -0.4826 -0.1922 -1.8356
   25SAPC   C39 3358   6.519   1.778   7.390 -0.3031  0.9776  0.3458
   25SAPC   H9X 3359   6.517   1.847   7.303  0.7557 -0.5333 -0.9499
   25SAPC   H9Y 3360   6.589   1.696   7.361 -0.0443  1.1207  0.5618
   25SAPC  C310 3361   6.592   1.857   7.504 -0.4737  0.0526  0.0645
   25SAPC  H10X 3362   6.526   1.940   7.538 -1.1355  0.9005 -2.9769
   25SAPC  H10Y 3363   6.684   1.901   7.460 -2.9045  2.6693 -2.9485
   25SAPC  C311 3364   6.613   1.761   7.622 -0.0878 -0.2352 -0.5063
   25SAPC  H11X 3365   6.686   1.679   7.605 -0.1538 -0.4287  0.0971
   25SAPC  H11Y 3366   6.515   1.717   7.650  0.7033 -3.1700 -2.0261
   25SAPC  C312 3367   6.671   1.844   7.734 -0.6576  0.5182 -0.6493
   25SAPC  H12X 3368   6.601   1.928   7.751 -1.8668 -0.6233  0.2561
   25SAPC  H12Y 3369   6.775   1.875   7.711 -0.0273 -0.5712  0.5708
   25SAPC  C313 3370   6.674   1.780   7.871  0.0041  0.6025 -0.1442
   25SAPC  H13X 3371   6.730   1.684   7.866  1.5685  1.3331  1.9576
   25SAPC  H13Y 3372   6.572   1.759   7.909  0.1620 -0.7738 -0.4284
   25SAPC  C314 3373   6.763   1.867   7.954 -0.0908 -0.1978  0.0456
   25SAPC  H14X 3374   6.709   1.964   7.957 -1.0118 -0.4603 -3.2808
   25SAPC  H14Y 3375   6.856   1.887   7.895  0.3108  1.5731  1.2034
   25SAPC  C315 3376   6.796   1.805   8.090  0.2425 -0.1999 -0.3830
   25SAPC  H15X 3377   6.863   1.868   8.153  0.9280  0.1787 -1.4584
   25SAPC  H15Y 3378   6.861   1.715   8.077  1.6264  0.9072 -1.4175
   25SAPC  C316 3379   6.669   1.766   8.175 -0.8617 -0.1689  0.2178
   25SAPC  H16X 3380   6.598   1.703   8.117 -1.0783 -0.2337  0.5508
   25SAPC  H16Y 3381   6.617   1.862   8.195 -1.4637 -0.2345 -0.9664
   25SAPC  C317 3382   6.723   1.705   8.302  0.7370 -0.4581 -0.1496
   25SAPC  H17X 3383   6.804   1.763   8.351  1.0720  0.0557 -1.2884
   25SAPC  H17Y 3384   6.774   1.611   8.269 -0.0287 -1.0315  0.2569
   25SAPC  C318 3385   6.617   1.661   8.404  0.8680  0.1695  0.8629
   25SAPC  H18X 3386   6.521   1.629   8.359  0.6794 -0.4922  1.6993
   25SAPC  H18Y 3387   6.602   1.746   8.474  1.3591 -0.1854  1.4143
   25SAPC  H18Z 3388   6.643   1.574   8.469  0.5720 -0.6134 -0.0571
   26SAPC     N 3389   5.024   4.877   6.132  0.5696 -0.5412  0.7161
   26SAPC   C12 3390   5.121   4.989   6.158  0.1715  0.0704 -0.2654
   26SAPC  H12A 3391   5.096   5.053   6.241  2.1851  0.9846 -0.2909
   26SAPC  H12B 3392   5.129   5.052   6.070  1.5308  0.3988  0.0707
   26SAPC   C13 3393   4.885   4.915   6.105  0.1812 -0.4752  0.0468
   26SAPC  H13A 3394   4.834   4.826   6.070 -1.3225  1.0814 -2.0452
   26SAPC  H13B 3395   4.831   4.950   6.191  2.0616  1.4984  0.5018
   26SAPC  H13C 3396   4.882   4.995   6.033  1.2778  0.6937  1.2658
   26SAPC   C14 3397   5.081   4.808   6.004 -0.2685 -0.4311 -0.7273
   26SAPC  H14A 3398   5.174   4.760   6.029 -0.4781 -0.4756 -0.0138
   26SAPC  H14B 3399   5.015   4.737   5.956  0.3109  0.6693 -3.3097
   26SAPC  H14C 3400   5.113   4.879   5.930  2.0181  0.1806  0.7400
   26SAPC   C15 3401   5.014   4.782   6.246 -0.1325  0.1005  1.1410
   26SAPC  H15A 3402   4.928   4.718   6.234  0.6923 -0.7809 -0.3220
   26SAPC  H15B 3403   5.105   4.727   6.263 -0.4395 -1.9224 -2.7152
   26SAPC  H15C 3404   4.993   4.839   6.336  1.2681  1.5220  0.5968
   26SAPC   C11 3405   5.267   4.943   6.197  0.0931 -0.3844 -0.2806
   26SAPC  H11A 3406   5.269   4.891   6.295  1.7464  0.6894  0.2832
   26SAPC  H11B 3407   5.323   5.034   6.226  1.2095 -1.5788  1.5222
   26SAPC     P 3408   5.403   4.723   6.139  0.3913  0.1823  0.2122
   26SAPC   O13 3409   5.298   4.617   6.141 -0.4412  0.3829  0.5335
   26SAPC   O14 3410   5.513   4.709   6.037 -0.3720  0.1944 -0.0300
   26SAPC   O12 3411   5.337   4.864   6.105 -0.0082  0.1539  0.3851
   26SAPC   O11 3412   5.460   4.746   6.284 -0.7907 -0.2417 -0.4404
   26SAPC    C1 3413   5.599   4.776   6.306  0.7264  0.0749  0.2707
   26SAPC    HA 3414   5.669   4.691   6.286 -0.4074 -0.5196 -1.4138
   26SAPC    HB 3415   5.626   4.862   6.242  1.0973 -1.8003 -2.2470
   26SAPC    C2 3416   5.631   4.814   6.457  0.5132 -0.0195  0.8338
   26SAPC    HS 3417   5.741   4.815   6.467  0.6708 -3.1621  0.2872
   26SAPC   O21 3418   5.575   4.715   6.550  0.3807  0.4645 -0.0061
   26SAPC   C21 3419   5.651   4.610   6.558  0.8147 -0.1678 -0.1046
   26SAPC   O22 3420   5.749   4.580   6.495 -0.8038 -0.4262  0.4744
   26SAPC   C22 3421   5.610   4.518   6.674 -0.1754 -0.0343 -0.9087
   26SAPC   H2R 3422   5.599   4.415   6.633 -0.4857 -0.4776  0.2382
   26SAPC   H2S 3423   5.688   4.517   6.754 -1.6150 -0.2685  0.5437
   26SAPC    C3 3424   5.561   4.944   6.488 -0.5502 -0.5045 -0.5035
   26SAPC    HX 3425   5.453   4.916   6.480 -1.1374  1.3356  0.4947
   26SAPC    HY 3426   5.588   5.022   6.415  0.8457  0.2280  0.7337
   26SAPC   O31 3427   5.622   4.978   6.617 -0.4031 -0.7340  0.2588
   26SAPC   C31 3428   5.540   5.012   6.712  0.6915 -0.1534 -0.3448
   26SAPC   O32 3429   5.418   5.005   6.708 -0.5479 -0.1123  0.5218
   26SAPC   C32 3430   5.621   5.054   6.835  0.3445  0.1990 -0.1227
   26SAPC   H2X 3431   5.701   5.121   6.798 -0.1352 -0.5952 -2.8304
   26SAPC   H2Y 3432   5.673   4.965   6.876  1.5654 -0.4106 -2.7537
   26SAPC   C23 3433   5.484   4.551   6.765 -0.2542 -0.2846  0.3591
   26SAPC   H3R 3434   5.449   4.472   6.834 -1.5130 -0.7671 -0.7791
   26SAPC   H3S 3435   5.396   4.567   6.698  1.1056 -1.4617 -1.8599
   26SAPC   C24 3436   5.509   4.682   6.844 -0.6004  0.6076 -0.1417
   26SAPC   H4R 3437   5.558   4.761   6.783  0.1395  0.2712  0.0029
   26SAPC   H4S 3438   5.584   4.646   6.918 -1.1241  0.3362  0.2646
   26SAPC   C25 3439   5.386   4.731   6.910 -0.0862  0.0474  0.2583
   26SAPC   H5R 3440   5.312   4.765   6.837  0.5149  1.9668  0.4752
   26SAPC   C26 3441   5.374   4.754   7.035  0.5515 -0.3344 -0.5437
   26SAPC   H6R 3442   5.271   4.785   7.058  1.1647  0.6395  1.0672
   26SAPC   C27 3443   5.465   4.740   7.148  0.0098 -0.6480  0.2098
   26SAPC   H7R 3444   5.523   4.644   7.145  0.0228 -0.6363  0.0987
   26SAPC   H7S 3445   5.413   4.725   7.245  0.9860 -1.8251  0.5755
   26SAPC   C28 3446   5.585   4.836   7.155 -0.0938 -0.4138  0.3905
   26SAPC   H8R 3447   5.610   4.886   7.060 -2.6807 -0.3817 -0.3451
   26SAPC   C29 3448   5.643   4.881   7.268 -0.4756  0.5168 -0.5060
   26SAPC   H9R 3449   5.717   4.962   7.271  0.5047 -0.3818  0.1054
   26SAPC  C210 3450   5.591   4.851   7.405 -0.6295  0.0696  0.6888
   26SAPC  H10R 3451   5.666   4.795   7.463  0.6965 -0.0385 -1.0605
   26SAPC  H10S 3452   5.494   4.796   7.405 -1.5128  1.4156 -2.1251
   26SAPC  C211 3453   5.562   4.982   7.477 -0.0749  0.0044 -0.0125
   26SAPC  H11R 3454   5.539   5.069   7.415  1.0604 -0.4739 -1.1359
   26SAPC  C212 3455   5.585   5.003   7.609  0.2715 -0.4080 -0.4729
   26SAPC  H12R 3456   5.565   5.106   7.642  0.4788 -0.7716  0.8395
   26SAPC  C213 3457   5.645   4.910   7.708  0.0894  0.6183  0.7845
   26SAPC  H13R 3458   5.719   4.972   7.763 -0.1707  1.8862 -0.2426
   26SAPC  H13S 3459   5.710   4.841   7.651 -1.5277  0.9572 -1.6355
   26SAPC  C214 3460   5.541   4.845   7.797  0.3032  0.0243 -0.0891
   26SAPC  H14R 3461   5.481   4.768   7.747 -1.0198  0.8692  0.1511
   26SAPC  C215 3462   5.524   4.875   7.923 -0.2909  0.2940  0.6730
   26SAPC  H15R 3463   5.449   4.823   7.984  1.0284 -0.6190  1.5763
   26SAPC  C216 3464   5.596   4.966   8.017  0.2234 -0.2629  0.5499
   26SAPC  H16R 3465   5.644   5.051   7.965 -0.5776 -1.0713 -1.6410
   26SAPC  H16S 3466   5.664   4.905   8.079  1.2582  0.2076 -0.1052
   26SAPC  C217 3467   5.488   5.022   8.110  0.2528  0.0301  0.3247
   26SAPC  H17R 3468   5.552   5.064   8.190  0.4608 -0.0098  0.1801
   26SAPC  H17S 3469   5.431   4.938   8.155 -0.2523  0.5490  0.6766
   26SAPC  C218 3470   5.388   5.122   8.054 -1.1180 -0.2262  0.2447
   26SAPC  H18R 3471   5.330   5.081   7.968  0.7184  0.9006 -1.6029
   26SAPC  H18S 3472   5.436   5.212   8.010 -1.0759 -1.0992 -1.6012
   26SAPC  C219 3473   5.283   5.145   8.166 -0.0730 -0.1912  0.3372
   26SAPC  H19R 3474   5.236   5.047   8.189 -0.5919  0.0298  0.2277
   26SAPC  H19S 3475   5.198   5.210   8.137  0.6795  2.0451  2.7989
   26SAPC  C220 3476   5.339   5.217   8.291 -0.1727  0.3427 -0.4296
   26SAPC  H20R 3477   5.259   5.231   8.366 -0.2503 -0.3320 -0.3800
   26SAPC  H20S 3478   5.387   5.317   8.277  1.4985 -0.2472  0.7908
   26SAPC  H20T 3479   5.419   5.153   8.334 -0.4198 -1.0576 -1.9445
   26SAPC   C33 3480   5.533   5.136   6.940 -0.4290  0.0501  0.4232
   26SAPC   H3X 3481   5.468   5.057   6.983 -0.3033  0.0012  0.5205
   26SAPC   H3Y 3482   5.466   5.212   6.893  0.5406  0.9324  0.4311
   26SAPC   C34 3483   5.625   5.195   7.045 -0.6292  0.0300 -1.2030
   26SAPC   H4X 3484   5.677   5.281   6.998 -0.0506 -0.7069 -1.9268
   26SAPC   H4Y 3485   5.690   5.109   7.071  1.8880  2.4360  1.3847
   26SAPC   C35 3486   5.560   5.253   7.177  0.9384  0.1697 -0.3965
   26SAPC   H5X 3487   5.481   5.181   7.207 -0.9524  1.3591 -2.2473
   26SAPC   H5Y 3488   5.510   5.350   7.157  0.4241 -0.1459 -0.6477
   26SAPC   C36 3489   5.675   5.276   7.280  0.1757  0.3119  0.2251
   26SAPC   H6X 3490   5.754   5.344   7.240 -1.7000  1.3318 -1.9947
   26SAPC   H6Y 3491   5.722   5.176   7.294  2.2128  0.5240 -3.5014
   26SAPC   C37 3492   5.634   5.345   7.418 -0.2824 -0.2112  0.8237
   26SAPC   H7X 3493   5.539   5.308   7.462 -0.6135 -1.6200 -0.9439
   26SAPC   H7Y 3494   5.625   5.455   7.410 -0.4617 -0.1011  2.1879
   26SAPC   C38 3495   5.748   5.328   7.521 -0.5282 -0.5981  0.5340
   26SAPC   H8X 3496   5.843   5.363   7.477 -0.1988  0.1221  1.7695
   26SAPC   H8Y 3497   5.777   5.222   7.541  0.8985 -0.4449 -0.5437
   26SAPC   C39 3498   5.712   5.402   7.649  0.3963  0.6065 -0.2994
   26SAPC   H9X 3499   5.606   5.378   7.671  0.7149 -0.4133  0.1939
   26SAPC   H9Y 3500   5.715   5.513   7.638  2.0110  0.6618  0.4680
   26SAPC  C310 3501   5.819   5.381   7.761  0.5205 -0.0525 -0.1100
   26SAPC  H10X 3502   5.816   5.464   7.834  2.0421 -0.1947  0.1448
   26SAPC  H10Y 3503   5.913   5.385   7.701 -0.3261 -1.4859 -1.5945
   26SAPC  C311 3504   5.817   5.243   7.827 -0.2650  0.0694 -0.6706
   26SAPC  H11X 3505   5.808   5.152   7.763  0.7263  0.8415 -1.9587
   26SAPC  H11Y 3506   5.725   5.249   7.889  0.4753 -0.8864  0.5569
   26SAPC  C312 3507   5.942   5.218   7.918 -0.2388  0.6838  1.2576
   26SAPC  H12X 3508   5.974   5.322   7.940  0.6717  1.0090 -1.2894
   26SAPC  H12Y 3509   6.027   5.186   7.855 -0.4145  0.5523  1.0876
   26SAPC  C313 3510   5.922   5.116   8.035  0.3866 -0.1359 -0.2240
   26SAPC  H13X 3511   5.927   5.011   7.999  2.1463 -0.8472  1.8884
   26SAPC  H13Y 3512   5.815   5.128   8.059  1.0369  1.1866  2.3083
   26SAPC  C314 3513   6.008   5.138   8.157 -0.7449  0.9857 -0.3910
   26SAPC  H14X 3514   6.013   5.244   8.187  1.1273  1.0828 -0.9205
   26SAPC  H14Y 3515   6.115   5.120   8.134 -0.7992 -2.6400  1.4225
   26SAPC  C315 3516   5.963   5.048   8.281  0.4416 -0.3309 -0.0445
   26SAPC  H15X 3517   5.972   4.945   8.241  0.5465 -0.0796 -0.6791
   26SAPC  H15Y 3518   5.857   5.064   8.311  0.3648  0.6179 -0.7585
   26SAPC  C316 3519   6.046   5.084   8.406 -1.0293  0.3744 -0.6366
   26SAPC  H16X 3520   6.052   5.195   8.409  0.9698  0.3158 -0.8370
   26SAPC  H16Y 3521   6.150   5.046   8.413 -0.9382  0.5523 -0.9921
   26SAPC  C317 3522   5.979   5.040   8.539  0.8419  0.3665  0.5989
   26SAPC  H17X 3523   5.973   4.929   8.541  0.0657  0.0505 -4.4312
   26SAPC  H17Y 3524   5.873   5.072   8.551  0.9901  1.5493 -0.9043
   26SAPC  C318 3525   6.051   5.074   8.671  0.6193  0.2359 -0.4369
   26SAPC  H18X 3526   5.987   5.045   8.757  0.1347  2.9159  0.1980
   26SAPC  H18Y 3527   6.056   5.184   8.682  0.2118  0.1458  0.7951
   26SAPC  H18Z 3528   6.156   5.037   8.672  0.9686  0.3967 -5.4576
   27SAPC     N 3529   3.909   2.954   6.572  0.7724  0.6933 -0.4451
   27SAPC   C12 3530   3.908   2.806   6.612  0.2264  0.0347  0.2135
   27SAPC  H12A 3531   3.814   2.762   6.579  1.5556 -1.9432 -1.1825
   27SAPC  H12B 3532   3.910   2.804   6.720  1.9975 -1.8032  0.2136
   27SAPC   C13 3533   3.793   3.031   6.633  0.4551  0.3775  0.0135
   27SAPC  H13A 3534   3.791   3.136   6.608 -1.0848  0.2458 -0.5346
   27SAPC  H13B 3535   3.700   2.996   6.591  0.8927 -0.3407 -0.3951
   27SAPC  H13C 3536   3.789   3.023   6.740 -1.5497 -0.9831 -0.1133
   27SAPC   C14 3537   4.038   3.016   6.616 -0.3154 -0.0767 -0.1666
   27SAPC  H14A 3538   4.117   2.989   6.547 -0.0204  0.2662  0.0328
   27SAPC  H14B 3539   4.033   3.124   6.615 -0.2348 -0.0688 -1.1913
   27SAPC  H14C 3540   4.061   2.991   6.718  1.3184  1.9828  0.0400
   27SAPC   C15 3541   3.893   2.966   6.425 -0.3630  0.6777 -0.0280
   27SAPC  H15A 3542   3.919   3.067   6.400 -0.2808  0.8204  0.6091
   27SAPC  H15B 3543   3.967   2.902   6.378  0.2407 -1.0472  2.9676
   27SAPC  H15C 3544   3.794   2.942   6.390 -1.0269  0.1390  2.0603
   27SAPC   C11 3545   4.015   2.710   6.565  0.1029 -0.0881 -0.5833
   27SAPC  H11A 3546   4.032   2.722   6.456 -0.0034 -1.2380 -0.7488
   27SAPC  H11B 3547   3.977   2.606   6.579 -2.0182  0.4995 -1.6159
   27SAPC     P 3548   4.156   2.706   6.784  0.4180 -0.4173  0.2137
   27SAPC   O13 3549   4.280   2.628   6.799  0.3153  0.3455  0.1239
   27SAPC   O14 3550   4.147   2.837   6.850  0.1581 -0.1309  0.2581
   27SAPC   O12 3551   4.136   2.740   6.629 -0.5937  0.4080 -0.7008
   27SAPC   O11 3552   4.029   2.620   6.822  0.3807  0.7220 -0.0567
   27SAPC    C1 3553   4.040   2.476   6.838  0.4533  0.2469 -0.1379
   27SAPC    HA 3554   4.110   2.440   6.760  1.1654  3.4605 -1.1404
   27SAPC    HB 3555   4.078   2.462   6.941  1.2580 -1.2855 -0.6143
   27SAPC    C2 3556   3.901   2.414   6.806 -0.3521  0.3775  0.2829
   27SAPC    HS 3557   3.890   2.450   6.702 -0.3689 -3.9978 -1.4565
   27SAPC   O21 3558   3.801   2.457   6.903  0.0356  0.2110  0.0726
   27SAPC   C21 3559   3.682   2.413   6.886  0.1286 -0.8521 -0.3194
   27SAPC   O22 3560   3.647   2.344   6.791  0.5435  0.2783  0.1329
   27SAPC   C22 3561   3.597   2.473   7.003 -0.4788  0.4687  0.2814
   27SAPC   H2R 3562   3.662   2.522   7.079  0.9646  0.3786 -0.8446
   27SAPC   H2S 3563   3.531   2.551   6.961 -0.9513  0.0883  0.3124
   27SAPC    C3 3564   3.919   2.261   6.800 -0.1091 -0.4683  0.0587
   27SAPC    HX 3565   4.004   2.241   6.732 -2.9620 -0.4858 -3.8179
   27SAPC    HY 3566   3.834   2.214   6.746  1.1809 -0.4526 -2.0650
   27SAPC   O31 3567   3.934   2.201   6.926 -0.3389 -0.5174 -0.4657
   27SAPC   C31 3568   3.972   2.080   6.928  0.3182 -0.3770  0.2836
   27SAPC   O32 3569   4.001   2.015   6.824 -0.2363 -0.2118  0.0967
   27SAPC   C32 3570   3.969   2.019   7.070  0.4218  0.2370  0.1474
   27SAPC   H2X 3571   4.063   1.963   7.085  1.6030  1.5745 -1.7311
   27SAPC   H2Y 3572   3.879   1.954   7.061 -1.1852  2.6185 -2.9259
   27SAPC   C23 3573   3.509   2.366   7.071 -0.1562 -0.1936  0.0016
   27SAPC   H3R 3574   3.443   2.315   6.997  1.6124 -0.0801 -1.7330
   27SAPC   H3S 3575   3.430   2.421   7.126  0.3271 -0.3534  0.8758
   27SAPC   C24 3576   3.588   2.270   7.160 -0.6743 -0.6193 -0.4340
   27SAPC   H4R 3577   3.671   2.221   7.103  0.6715  0.5559  0.4449
   27SAPC   H4S 3578   3.523   2.185   7.189 -0.7854  0.3538  2.4562
   27SAPC   C25 3579   3.647   2.346   7.280  0.4036  0.2717  0.0327
   27SAPC   H5R 3580   3.729   2.417   7.262  1.3680 -0.4734  1.4125
   27SAPC   C26 3581   3.593   2.341   7.404 -0.1200  0.1220 -0.0004
   27SAPC   H6R 3582   3.640   2.405   7.480 -0.3261  0.6458 -0.3077
   27SAPC   C27 3583   3.482   2.243   7.440  0.5773 -0.0284 -0.4458
   27SAPC   H7R 3584   3.405   2.241   7.360 -0.3047  0.4056  0.3709
   27SAPC   H7S 3585   3.423   2.276   7.528  0.7194 -0.8221 -0.0487
   27SAPC   C28 3586   3.527   2.097   7.468 -0.6327  0.0834 -0.3750
   27SAPC   H8R 3587   3.633   2.082   7.442 -0.2710 -0.8598  1.4445
   27SAPC   C29 3588   3.444   2.007   7.519 -0.1375  0.2235 -0.3540
   27SAPC   H9R 3589   3.475   1.906   7.551  2.3811  1.5337  1.7465
   27SAPC  C210 3590   3.297   2.026   7.556  0.2423  0.1656 -0.1939
   27SAPC  H10R 3591   3.255   2.125   7.529 -1.8291 -1.2153 -2.4582
   27SAPC  H10S 3592   3.295   2.021   7.667 -0.9634  2.3248 -0.0790
   27SAPC  C211 3593   3.214   1.916   7.491  0.5660  0.4264 -0.1764
   27SAPC  H11R 3594   3.204   1.931   7.382 -0.9669  1.2133  0.0445
   27SAPC  C212 3595   3.172   1.803   7.539  0.9063  0.2940  0.1312
   27SAPC  H12R 3596   3.133   1.727   7.470  3.2024  0.0931 -1.0318
   27SAPC  C213 3597   3.197   1.765   7.684 -0.0890 -0.0380  0.4697
   27SAPC  H13R 3598   3.114   1.789   7.753  2.0466 -0.0770  3.2037
   27SAPC  H13S 3599   3.290   1.809   7.724 -0.6209 -0.1199  1.8593
   27SAPC  C214 3600   3.213   1.615   7.703 -0.5418 -1.0194 -0.1344
   27SAPC  H14R 3601   3.220   1.551   7.614  0.3883  1.2139 -1.7549
   27SAPC  C215 3602   3.215   1.554   7.828  0.0975  0.3524  0.7033
   27SAPC  H15R 3603   3.223   1.445   7.836  1.4708  0.4298  0.5934
   27SAPC  C216 3604   3.189   1.612   7.969 -0.5642 -0.2894  0.4171
   27SAPC  H16R 3605   3.197   1.723   7.971  0.4812 -0.2755 -1.9781
   27SAPC  H16S 3606   3.276   1.578   8.030  1.8439  0.6476 -2.2831
   27SAPC  C217 3607   3.066   1.559   8.044  0.4142 -0.6740  0.2504
   27SAPC  H17R 3608   2.972   1.592   7.995  0.1805 -1.0085  0.4698
   27SAPC  H17S 3609   3.073   1.605   8.145 -0.9555 -0.8876  0.4546
   27SAPC  C218 3610   3.050   1.405   8.056 -0.0281  0.2279 -0.3267
   27SAPC  H18R 3611   3.142   1.346   8.079 -1.5527 -1.5956  1.4825
   27SAPC  H18S 3612   2.997   1.372   7.964 -0.5050  1.9582 -0.7094
   27SAPC  C219 3613   2.959   1.377   8.177  0.3067  0.1859 -0.0322
   27SAPC  H19R 3614   2.893   1.293   8.147  1.3365 -0.1966 -1.3374
   27SAPC  H19S 3615   2.885   1.460   8.178 -0.1098 -0.1243 -1.5891
   27SAPC  C220 3616   3.029   1.366   8.306  0.3681  0.2864 -0.1561
   27SAPC  H20R 3617   3.085   1.456   8.338 -1.3025  1.6346 -0.9105
   27SAPC  H20S 3618   3.088   1.272   8.317 -0.9548 -0.3091  3.0276
   27SAPC  H20T 3619   2.948   1.343   8.379  0.7154 -0.4300  0.0116
   27SAPC   C33 3620   3.956   2.127   7.180  0.8305 -0.5630 -0.0623
   27SAPC   H3X 3621   3.865   2.189   7.170  1.7227  0.8944  0.4294
   27SAPC   H3Y 3622   4.038   2.202   7.172 -0.4890  1.0608  0.8567
   27SAPC   C34 3623   3.944   2.062   7.319  0.9242  0.1156  0.4182
   27SAPC   H4X 3624   4.012   1.974   7.325 -2.1924 -2.5379 -0.4518
   27SAPC   H4Y 3625   3.844   2.027   7.353  1.3385 -0.8991  0.6292
   27SAPC   C35 3626   3.980   2.173   7.421 -1.1053 -0.2536  0.1407
   27SAPC   H5X 3627   3.920   2.267   7.417  0.9956  1.4350  3.7973
   27SAPC   H5Y 3628   4.079   2.219   7.402 -1.9971  1.9179  0.4075
   27SAPC   C36 3629   3.992   2.141   7.569  0.5586  0.4102 -0.0687
   27SAPC   H6X 3630   4.003   2.235   7.627  1.5648  1.6636 -2.2153
   27SAPC   H6Y 3631   4.076   2.070   7.586  1.7476  1.9202  0.5742
   27SAPC   C37 3632   3.855   2.064   7.617 -0.9145 -0.0720 -0.2639
   27SAPC   H7X 3633   3.856   1.968   7.562 -0.4162 -0.7544  0.8948
   27SAPC   H7Y 3634   3.768   2.127   7.587 -2.1024 -1.4059  0.2627
   27SAPC   C38 3635   3.848   2.023   7.768 -0.0256  0.0732 -0.8542
   27SAPC   H8X 3636   3.842   2.122   7.818 -1.4948 -0.2103 -0.4051
   27SAPC   H8Y 3637   3.944   1.973   7.795 -0.0643  0.1610 -0.5511
   27SAPC   C39 3638   3.728   1.934   7.798 -0.2143 -0.3004  0.4238
   27SAPC   H9X 3639   3.761   1.836   7.757 -0.6466  0.7193 -2.5852
   27SAPC   H9Y 3640   3.644   1.973   7.736  0.0840  0.4464  0.4753
   27SAPC  C310 3641   3.692   1.916   7.952 -0.4881 -0.2652  0.6538
   27SAPC  H10X 3642   3.775   1.859   7.999 -0.8191 -2.3334 -1.0755
   27SAPC  H10Y 3643   3.593   1.867   7.963 -0.9429  0.8804  1.8657
   27SAPC  C311 3644   3.679   2.044   8.032 -0.9075  0.1565 -0.2636
   27SAPC  H11X 3645   3.647   2.126   7.964 -0.2479 -0.7332 -1.6725
   27SAPC  H11Y 3646   3.777   2.077   8.072 -0.6735 -0.0222 -0.6921
   27SAPC  C312 3647   3.600   2.023   8.163 -0.2586 -0.0879  0.2773
   27SAPC  H12X 3648   3.639   1.926   8.201 -1.7264 -2.8992 -4.5946
   27SAPC  H12Y 3649   3.492   2.006   8.143  0.0945  0.8934 -3.0984
   27SAPC  C313 3650   3.625   2.130   8.270  0.7348  0.3098  0.1063
   27SAPC  H13X 3651   3.560   2.216   8.243  0.0822 -0.1866  0.0613
   27SAPC  H13Y 3652   3.723   2.183   8.265  0.4128  1.0479  1.2021
   27SAPC  C314 3653   3.606   2.090   8.419 -0.1559  0.1538 -0.4942
   27SAPC  H14X 3654   3.689   2.017   8.430  0.1332  0.4601 -0.6111
   27SAPC  H14Y 3655   3.504   2.047   8.427 -0.6114  0.9841 -1.6033
   27SAPC  C315 3656   3.603   2.209   8.526  0.2335  0.1297  0.0040
   27SAPC  H15X 3657   3.500   2.251   8.528  0.6806  1.3484 -1.4041
   27SAPC  H15Y 3658   3.680   2.280   8.491  0.9017 -0.2593  0.6623
   27SAPC  C316 3659   3.651   2.156   8.667 -0.0671 -0.7118  0.0802
   27SAPC  H16X 3660   3.758   2.127   8.665 -0.1960 -1.3261  1.3322
   27SAPC  H16Y 3661   3.583   2.070   8.682 -1.0930  0.1595  0.5346
   27SAPC  C317 3662   3.633   2.263   8.784 -0.3489  0.2149  0.3016
   27SAPC  H17X 3663   3.651   2.219   8.884  3.9507 -0.2821 -0.4781
   27SAPC  H17Y 3664   3.529   2.300   8.774 -0.6159  0.2460  2.7421
   27SAPC  C318 3665   3.716   2.386   8.772 -0.3794 -0.0957  0.0572
   27SAPC  H18X 3666   3.819   2.358   8.743 -0.4583  0.2424 -0.5543
   27SAPC  H18Y 3667   3.734   2.422   8.876  1.0380 -1.5582  0.3596
   27SAPC  H18Z 3668   3.667   2.453   8.699  1.4099 -1.2129 -2.2884
   28SAPC     N 3669   1.455   5.641   5.982 -0.3573 -0.0599  0.6908
   28SAPC   C12 3670   1.568   5.601   6.084 -0.5558 -0.0518  0.0800
   28SAPC  H12A 3671   1.584   5.495   6.069 -0.4170 -0.3598  2.0826
   28SAPC  H12B 3672   1.521   5.620   6.179 -0.0534 -0.4049  0.4103
   28SAPC   C13 3673   1.406   5.781   6.000 -0.1289  0.3213  0.1168
   28SAPC  H13A 3674   1.383   5.795   6.105 -0.6519  0.9482 -0.0781
   28SAPC  H13B 3675   1.476   5.857   5.969  0.8263 -0.6631 -0.2046
   28SAPC  H13C 3676   1.313   5.793   5.948 -0.3426 -0.9142  0.1755
   28SAPC   C14 3677   1.517   5.621   5.841  0.2997 -0.5091  0.2470
   28SAPC  H14A 3678   1.613   5.670   5.839  0.0465  0.1443  2.1684
   28SAPC  H14B 3679   1.531   5.517   5.817  1.1210 -0.6049  1.1208
   28SAPC  H14C 3680   1.456   5.682   5.776  1.1902 -0.3045 -0.4048
   28SAPC   C15 3681   1.333   5.557   5.992 -1.0482  0.4557  0.3219
   28SAPC  H15A 3682   1.348   5.453   5.969  1.2177  0.9062 -0.5376
   28SAPC  H15B 3683   1.282   5.564   6.087 -1.1440 -0.4050  0.3370
   28SAPC  H15C 3684   1.259   5.592   5.923 -0.5972 -0.9487 -0.9209
   28SAPC   C11 3685   1.697   5.692   6.096  0.4134 -0.0521  0.1742
   28SAPC  H11A 3686   1.728   5.731   5.997 -0.5567  0.0653 -0.0921
   28SAPC  H11B 3687   1.780   5.635   6.143  0.0646 -1.6236 -1.0455
   28SAPC     P 3688   1.736   5.846   6.309 -0.1506  0.2141  0.3443
   28SAPC   O13 3689   1.843   5.747   6.340  0.0116 -0.0175 -0.3960
   28SAPC   O14 3690   1.761   5.995   6.311 -0.3401 -0.0388  0.0188
   28SAPC   O12 3691   1.666   5.804   6.177 -0.4658 -0.1238 -0.1222
   28SAPC   O11 3692   1.614   5.810   6.406 -0.1862 -0.7154  0.2728
   28SAPC    C1 3693   1.497   5.891   6.407 -0.0349 -0.0285 -0.3883
   28SAPC    HA 3694   1.506   5.987   6.352 -1.0427  0.3640  0.0880
   28SAPC    HB 3695   1.415   5.840   6.352 -0.5213  2.2928 -1.9908
   28SAPC    C2 3696   1.453   5.925   6.553  0.7372 -0.1481 -0.2307
   28SAPC    HS 3697   1.396   6.019   6.568 -0.0813 -0.7918  0.9230
   28SAPC   O21 3698   1.565   5.934   6.646 -0.4934  0.0474 -0.1682
   28SAPC   C21 3699   1.641   6.038   6.617 -0.2737 -0.6607  0.3961
   28SAPC   O22 3700   1.616   6.124   6.532  0.5773 -0.0987 -0.6094
   28SAPC   C22 3701   1.773   6.024   6.700  0.3248 -0.3332  0.6197
   28SAPC   H2R 3702   1.811   5.919   6.699  2.4095  0.3005  2.7143
   28SAPC   H2S 3703   1.850   6.084   6.646 -0.1212 -0.8321 -0.5947
   28SAPC    C3 3704   1.360   5.819   6.608 -0.5008 -0.4191 -0.1710
   28SAPC    HX 3705   1.410   5.719   6.608 -4.4623 -2.6302 -0.1824
   28SAPC    HY 3706   1.267   5.805   6.549 -1.2640 -0.6458  1.0410
   28SAPC   O31 3707   1.312   5.847   6.743 -0.0678  0.5436 -0.0575
   28SAPC   C31 3708   1.231   5.953   6.752  0.3363  1.0527  0.1014
   28SAPC   O32 3709   1.191   6.025   6.662 -0.0985  0.0037 -0.0641
   28SAPC   C32 3710   1.203   5.961   6.901 -0.6088 -1.0915  0.4849
   28SAPC   H2X 3711   1.292   5.989   6.961  0.2751 -1.5726 -0.5644
   28SAPC   H2Y 3712   1.152   5.867   6.930 -2.0307 -0.1370  1.2464
   28SAPC   C23 3713   1.769   6.044   6.852  0.2310 -0.0794  0.9543
   28SAPC   H3R 3714   1.696   6.127   6.864  1.0559  0.4771  2.3755
   28SAPC   H3S 3715   1.868   6.083   6.885  0.2669  0.3660  0.3292
   28SAPC   C24 3716   1.732   5.922   6.942 -0.3005  0.2048 -0.6997
   28SAPC   H4R 3717   1.787   5.836   6.899 -0.5671 -0.7745  0.8230
   28SAPC   H4S 3718   1.782   5.942   7.039  1.0484  0.0035 -1.3402
   28SAPC   C25 3719   1.587   5.870   6.955 -0.1827  0.3175 -0.1095
   28SAPC   H5R 3720   1.546   5.843   6.856 -0.6775 -1.4368  0.5348
   28SAPC   C26 3721   1.513   5.864   7.065  0.0671  0.2708 -0.7070
   28SAPC   H6R 3722   1.412   5.821   7.054  0.0590  0.3042 -0.7672
   28SAPC   C27 3723   1.542   5.901   7.213 -0.2250 -0.7780  0.3799
   28SAPC   H7R 3724   1.619   5.980   7.227 -0.9158 -0.1337  0.5910
   28SAPC   H7S 3725   1.591   5.812   7.259  1.3046 -0.2124 -0.0966
   28SAPC   C28 3726   1.421   5.954   7.282  0.2545 -0.1807 -0.1330
   28SAPC   H8R 3727   1.363   6.037   7.239  0.4836  1.4373  2.4694
   28SAPC   C29 3728   1.381   5.920   7.404  0.6414 -0.1834  0.5459
   28SAPC   H9R 3729   1.285   5.961   7.439 -0.8916 -3.4934  0.5806
   28SAPC  C210 3730   1.453   5.829   7.507 -0.3404 -0.2131  1.0601
   28SAPC  H10R 3731   1.510   5.753   7.449 -0.7277  0.0705  0.2924
   28SAPC  H10S 3732   1.380   5.769   7.567 -2.6383  0.1356 -1.2313
   28SAPC  C211 3733   1.549   5.909   7.599  0.2453  0.1090  0.3843
   28SAPC  H11R 3734   1.600   5.996   7.554  2.3859 -1.4399 -0.3239
   28SAPC  C212 3735   1.577   5.874   7.726 -0.4380 -0.4204  0.1323
   28SAPC  H12R 3736   1.634   5.949   7.781  1.6953  0.8721 -3.5146
   28SAPC  C213 3737   1.532   5.762   7.814  0.1303  0.2656  0.6964
   28SAPC  H13R 3738   1.621   5.712   7.857  0.2278 -0.2956 -0.1422
   28SAPC  H13S 3739   1.490   5.678   7.754  1.1724  0.1759  0.0619
   28SAPC  C214 3740   1.439   5.797   7.934  0.0615 -0.0218  0.5802
   28SAPC  H14R 3741   1.375   5.886   7.919 -2.7780 -1.8955  0.8718
   28SAPC  C215 3742   1.394   5.710   8.025 -0.0700  0.3365  0.6985
   28SAPC  H15R 3743   1.332   5.749   8.107 -1.3150  1.6657 -0.7951
   28SAPC  C216 3744   1.430   5.566   8.039 -1.3183  0.3653 -0.5215
   28SAPC  H16R 3745   1.492   5.552   8.131 -2.4909 -2.0177 -0.0259
   28SAPC  H16S 3746   1.477   5.524   7.948  2.9076  1.5046  0.8569
   28SAPC  C217 3747   1.308   5.488   8.069  0.2135 -0.4600 -0.3291
   28SAPC  H17R 3748   1.349   5.385   8.079  1.0056 -0.0717  0.5416
   28SAPC  H17S 3749   1.239   5.492   7.982  0.1221  0.7624 -0.2113
   28SAPC  C218 3750   1.226   5.521   8.197  0.1613  0.4062  0.2343
   28SAPC  H18R 3751   1.138   5.454   8.190  1.0211 -0.8034  0.8034
   28SAPC  H18S 3752   1.194   5.628   8.190 -0.1779  0.2610 -0.5206
   28SAPC  C219 3753   1.293   5.494   8.330 -0.3380 -0.1832 -0.2093
   28SAPC  H19R 3754   1.239   5.553   8.407 -0.2760  0.7882 -0.8981
   28SAPC  H19S 3755   1.397   5.532   8.333 -0.5543  0.3633  0.9457
   28SAPC  C220 3756   1.307   5.344   8.367  0.1201  0.9698  0.7965
   28SAPC  H20R 3757   1.354   5.285   8.285  0.5804  1.5137  0.6533
   28SAPC  H20S 3758   1.210   5.294   8.388 -0.6741  0.7323 -2.7441
   28SAPC  H20T 3759   1.375   5.347   8.455  0.2098  0.5521  0.7442
   28SAPC   C33 3760   1.091   6.071   6.927 -0.4713  0.0160 -0.0458
   28SAPC   H3X 3761   0.996   6.047   6.876 -0.7546 -0.6862  0.7641
   28SAPC   H3Y 3762   1.124   6.169   6.887  1.0216 -1.2362 -2.0960
   28SAPC   C34 3763   1.050   6.076   7.076  0.0578 -0.1039  0.0355
   28SAPC   H4X 3764   1.109   6.152   7.133 -1.3661  2.1023 -1.2979
   28SAPC   H4Y 3765   1.077   5.979   7.122  2.6459  0.0140 -1.0411
   28SAPC   C35 3766   0.902   6.095   7.098  0.0143  0.1340 -0.2361
   28SAPC   H5X 3767   0.849   6.028   7.028  0.8396 -0.5077 -0.2712
   28SAPC   H5Y 3768   0.870   6.200   7.083 -0.3584  0.2149  1.0169
   28SAPC   C36 3769   0.862   6.062   7.242  1.0257  0.2073 -0.5332
   28SAPC   H6X 3770   0.879   5.953   7.250 -1.4717 -0.1498  1.1770
   28SAPC   H6Y 3771   0.751   6.064   7.239  0.5398 -5.2933  2.0725
   28SAPC   C37 3772   0.932   6.122   7.357 -0.0249  0.1128 -0.1171
   28SAPC   H7X 3773   0.915   6.231   7.337 -1.4579 -0.3172 -1.5152
   28SAPC   H7Y 3774   1.039   6.097   7.368  0.4757  2.8687  2.4669
   28SAPC   C38 3775   0.861   6.082   7.487  0.2915  0.0584 -0.5249
   28SAPC   H8X 3776   0.874   5.978   7.525 -0.4782  0.7755  1.9411
   28SAPC   H8Y 3777   0.752   6.102   7.475  0.1781  1.2548  1.7462
   28SAPC   C39 3778   0.903   6.168   7.607  0.7830 -0.1447 -1.0401
   28SAPC   H9X 3779   0.876   6.275   7.591  1.5132 -0.0764 -1.8938
   28SAPC   H9Y 3780   1.012   6.162   7.626  0.6018 -0.3536 -0.0082
   28SAPC  C310 3781   0.836   6.120   7.746 -0.1635 -0.0853 -0.1759
   28SAPC  H10X 3782   0.894   6.028   7.767 -1.7893 -0.7637  1.6296
   28SAPC  H10Y 3783   0.728   6.103   7.728  0.0417 -2.2556  0.4227
   28SAPC  C311 3784   0.852   6.211   7.876 -0.1862  0.2479 -0.9390
   28SAPC  H11X 3785   0.783   6.173   7.954  0.6392  1.7861  0.5936
   28SAPC  H11Y 3786   0.818   6.314   7.856 -2.2273  0.3358  2.4060
   28SAPC  C312 3787   0.999   6.229   7.919  0.7256  0.2632 -0.1632
   28SAPC  H12X 3788   1.059   6.269   7.835 -0.6902 -0.6263 -1.6551
   28SAPC  H12Y 3789   1.040   6.129   7.947 -0.3204 -0.6124 -1.6311
   28SAPC  C313 3790   1.001   6.308   8.053  0.0285 -0.8785 -0.0729
   28SAPC  H13X 3791   0.921   6.267   8.117 -0.6660 -0.5076 -0.6930
   28SAPC  H13Y 3792   0.957   6.403   8.017 -0.5282 -1.2353 -0.3611
   28SAPC  C314 3793   1.138   6.329   8.118 -0.7230 -0.6338  0.3109
   28SAPC  H14X 3794   1.204   6.374   8.040  2.0076 -1.8845  1.7419
   28SAPC  H14Y 3795   1.182   6.231   8.148 -3.4304 -2.1289 -0.2615
   28SAPC  C315 3796   1.128   6.416   8.249 -0.8078 -0.1741 -0.4672
   28SAPC  H15X 3797   1.032   6.391   8.299 -0.1934  0.2071  0.9589
   28SAPC  H15Y 3798   1.123   6.524   8.222 -0.7465 -0.2669 -0.8661
   28SAPC  C316 3799   1.235   6.381   8.352  0.4132  1.1538  0.6910
   28SAPC  H16X 3800   1.224   6.275   8.382 -1.9872  1.4275  0.9324
   28SAPC  H16Y 3801   1.214   6.448   8.438 -0.5790 -1.6795  2.7860
   28SAPC  C317 3802   1.368   6.416   8.296 -0.6704  0.1343  0.3874
   28SAPC  H17X 3803   1.369   6.518   8.253  0.7254  0.4288  1.0444
   28SAPC  H17Y 3804   1.383   6.344   8.213 -2.4571 -2.0648  1.8262
   28SAPC  C318 3805   1.483   6.390   8.396 -0.1625  0.0864  0.2948
   28SAPC  H18X 3806   1.577   6.414   8.340  0.1798 -1.8958 -0.0927
   28SAPC  H18Y 3807   1.482   6.280   8.412  1.0926 -0.2815 -1.7371
   28SAPC  H18Z 3808   1.475   6.446   8.491 -0.7676 -2.1572  1.6438
   29SAPC     N 3809   5.442   1.862   6.107 -0.2252  0.5886  0.8842
   29SAPC   C12 3810   5.318   1.875   6.187  0.6062 -0.1156  0.0250
   29SAPC  H12A 3811   5.313   1.781   6.241  0.5331 -2.6753 -3.9772
   29SAPC  H12B 3812   5.237   1.871   6.115  0.7829 -0.6764 -0.1474
   29SAPC   C13 3813   5.428   1.735   6.024  0.1840  0.0182 -0.8266
   29SAPC  H13A 3814   5.521   1.717   5.972  2.1752  0.6990  2.2038
   29SAPC  H13B 3815   5.411   1.652   6.091  1.4677  1.6188  1.6797
   29SAPC  H13C 3816   5.349   1.748   5.952 -0.5282  3.4790  0.3695
   29SAPC   C14 3817   5.458   1.987   6.023 -0.3428  0.4716 -0.5633
   29SAPC  H14A 3818   5.451   2.075   6.085  5.1964  2.0862 -1.7349
   29SAPC  H14B 3819   5.551   1.985   5.970  0.7104  4.3090  0.7711
   29SAPC  H14C 3820   5.372   1.990   5.957 -0.6893 -1.8824 -0.3083
   29SAPC   C15 3821   5.573   1.852   6.182 -0.4050  0.0241  0.1579
   29SAPC  H15A 3822   5.558   1.789   6.269  1.0181  1.5158  1.5630
   29SAPC  H15B 3823   5.642   1.811   6.111 -1.3438 -0.7166 -0.3527
   29SAPC  H15C 3824   5.613   1.946   6.216 -1.4310  0.9185 -1.0458
   29SAPC   C11 3825   5.298   1.990   6.287  0.0185 -0.1640  0.0255
   29SAPC  H11A 3826   5.387   2.016   6.348  0.3957  1.2955 -1.1113
   29SAPC  H11B 3827   5.218   1.953   6.354 -1.9137  2.2314 -0.8191
   29SAPC     P 3828   5.133   2.192   6.284 -0.4831 -0.1054 -0.1747
   29SAPC   O13 3829   5.174   2.335   6.256 -0.4996 -0.3203 -0.1116
   29SAPC   O14 3830   5.009   2.145   6.225  0.2868 -0.6233 -0.6515
   29SAPC   O12 3831   5.247   2.105   6.215  0.0245  0.3594 -0.7767
   29SAPC   O11 3832   5.148   2.162   6.433  0.3672  0.0971 -0.1322
   29SAPC    C1 3833   5.250   2.212   6.528 -0.4181 -0.3414 -0.3429
   29SAPC    HA 3834   5.319   2.127   6.546 -0.4234  0.2199  2.7948
   29SAPC    HB 3835   5.319   2.286   6.482  1.6276 -0.5635  2.1454
   29SAPC    C2 3836   5.205   2.250   6.673 -0.5032  0.3386 -0.1247
   29SAPC    HS 3837   5.175   2.357   6.682 -0.7337  0.3721 -1.1417
   29SAPC   O21 3838   5.314   2.203   6.763  0.3405  0.4699 -0.0476
   29SAPC   C21 3839   5.413   2.288   6.775  0.3925  0.5208 -0.8313
   29SAPC   O22 3840   5.407   2.401   6.729 -0.0041  0.0746 -0.0493
   29SAPC   C22 3841   5.521   2.233   6.865  0.0250  0.1517  0.0184
   29SAPC   H2R 3842   5.590   2.180   6.797 -0.6547  1.4013 -1.7165
   29SAPC   H2S 3843   5.569   2.329   6.893 -0.8402  0.7317 -0.4648
   29SAPC    C3 3844   5.075   2.160   6.695 -0.2331  0.4391  0.4131
   29SAPC    HX 3845   5.105   2.061   6.657 -0.1329  0.1796  1.1633
   29SAPC    HY 3846   4.997   2.203   6.628 -1.5307 -2.4306 -0.0387
   29SAPC   O31 3847   5.028   2.139   6.832 -1.0645  0.1460  0.3053
   29SAPC   C31 3848   4.936   2.218   6.868  0.1008  0.4452 -0.2947
   29SAPC   O32 3849   4.887   2.309   6.811  0.6523  0.1462 -0.0534
   29SAPC   C32 3850   4.876   2.182   7.006  0.0418 -0.4597 -0.4662
   29SAPC   H2X 3851   4.845   2.076   6.991  1.5220 -1.2056  1.3872
   29SAPC   H2Y 3852   4.794   2.250   7.036 -0.1280 -0.2041 -1.4573
   29SAPC   C23 3853   5.485   2.165   6.997 -0.5332 -0.3430  0.2634
   29SAPC   H3R 3854   5.579   2.138   7.050 -0.4937 -0.1576  0.2880
   29SAPC   H3S 3855   5.428   2.075   6.968 -0.2296 -0.2242 -0.7434
   29SAPC   C24 3856   5.402   2.252   7.093  0.5145  0.3988  0.3823
   29SAPC   H4R 3857   5.301   2.259   7.047  1.9271  1.0093 -2.9189
   29SAPC   H4S 3858   5.452   2.350   7.082 -0.9760  1.2443  0.9570
   29SAPC   C25 3859   5.394   2.206   7.237  0.8725 -0.7411 -0.0191
   29SAPC   H5R 3860   5.314   2.131   7.250 -0.6147  0.7708  0.0454
   29SAPC   C26 3861   5.461   2.254   7.346 -0.5031 -0.3257  0.3125
   29SAPC   H6R 3862   5.429   2.226   7.447 -2.3953 -0.5486 -0.3010
   29SAPC   C27 3863   5.569   2.370   7.340  0.5967  0.4584 -0.0320
   29SAPC   H7R 3864   5.583   2.404   7.235  0.1235  0.4792 -0.0936
   29SAPC   H7S 3865   5.663   2.327   7.379 -0.2521  0.1166  1.7752
   29SAPC   C28 3866   5.500   2.482   7.422  0.0533 -1.1753  0.1039
   29SAPC   H8R 3867   5.391   2.473   7.425 -0.3117  2.0914 -0.3597
   29SAPC   C29 3868   5.555   2.582   7.490 -0.1034 -0.3291  0.5191
   29SAPC   H9R 3869   5.492   2.659   7.538 -0.4310 -0.2949  0.0437
   29SAPC  C210 3870   5.697   2.615   7.497 -0.6574 -0.5423  0.3642
   29SAPC  H10R 3871   5.715   2.709   7.440  1.0264 -1.2862 -0.3670
   29SAPC  H10S 3872   5.758   2.540   7.443  0.7333  1.1870 -0.5922
   29SAPC  C211 3873   5.743   2.626   7.647 -0.2367  0.0848  0.2109
   29SAPC  H11R 3874   5.773   2.528   7.687  0.1775 -0.0446 -0.4036
   29SAPC  C212 3875   5.749   2.722   7.737  0.2256 -0.1531 -0.4142
   29SAPC  H12R 3876   5.798   2.690   7.831  1.4463 -2.5204 -1.7537
   29SAPC  C213 3877   5.709   2.864   7.716 -0.2941 -0.1840  0.2891
   29SAPC  H13R 3878   5.682   2.883   7.610  1.4843  1.9643  0.1412
   29SAPC  H13S 3879   5.798   2.930   7.727 -0.5000  0.9648 -3.4952
   29SAPC  C214 3880   5.594   2.913   7.797  0.2125 -1.0709  0.3753
   29SAPC  H14R 3881   5.499   2.911   7.741  0.1996 -0.6098  0.3811
   29SAPC  C215 3882   5.594   2.946   7.927 -0.7023  0.3944 -0.1349
   29SAPC  H15R 3883   5.496   2.977   7.967 -0.5081 -0.5496  1.1413
   29SAPC  C216 3884   5.706   2.957   8.021 -0.1132 -0.3607 -0.2804
   29SAPC  H16R 3885   5.720   3.056   8.068  1.7763 -0.1511 -1.2083
   29SAPC  H16S 3886   5.799   2.940   7.963  1.0197  2.1630  0.6796
   29SAPC  C217 3887   5.687   2.857   8.134  0.4251 -0.2037  0.2155
   29SAPC  H17R 3888   5.697   2.753   8.097 -3.4693  0.0646 -2.1675
   29SAPC  H17S 3889   5.587   2.862   8.183  0.6120 -0.1066  0.5901
   29SAPC  C218 3890   5.797   2.869   8.249  0.4222  0.3322 -0.1130
   29SAPC  H18R 3891   5.778   2.970   8.291  0.0439 -0.1262  0.8351
   29SAPC  H18S 3892   5.896   2.855   8.202  1.1748 -0.3714  1.6060
   29SAPC  C219 3893   5.780   2.764   8.361  0.5835 -0.2160  0.4460
   29SAPC  H19R 3894   5.679   2.766   8.406  1.1563 -0.4334  1.8123
   29SAPC  H19S 3895   5.853   2.798   8.439  1.6047  2.5841 -1.5685
   29SAPC  C220 3896   5.782   2.618   8.316 -1.2079 -0.4124 -0.6595
   29SAPC  H20R 3897   5.873   2.588   8.260  0.4197  0.5436  1.3230
   29SAPC  H20S 3898   5.700   2.585   8.249 -1.1889 -3.2530  0.5726
   29SAPC  H20T 3899   5.772   2.553   8.407  1.2937  2.1249  1.6148
   29SAPC   C33 3900   4.976   2.191   7.114 -0.1023 -0.1785 -0.1661
   29SAPC   H3X 3901   5.029   2.289   7.111  0.1656 -0.3096  0.2461
   29SAPC   H3Y 3902   5.061   2.121   7.098  0.9960  1.2179 -0.6286
   29SAPC   C34 3903   4.911   2.161   7.244 -0.3341  0.3333 -0.6093
   29SAPC   H4X 3904   4.886   2.053   7.236  2.6178 -0.4238 -0.8470
   29SAPC   H4Y 3905   4.829   2.229   7.276 -0.4224  0.1563 -0.4556
   29SAPC   C35 3906   5.006   2.173   7.362 -0.0854 -0.4881  0.5906
   29SAPC   H5X 3907   5.056   2.272   7.374 -1.1025  0.5112 -2.4094
   29SAPC   H5Y 3908   5.089   2.105   7.336  2.1354  1.5389  1.9831
   29SAPC   C36 3909   4.953   2.133   7.503 -0.1367 -0.8633  0.3073
   29SAPC   H6X 3910   4.953   2.023   7.519 -0.4029 -0.6665  1.8258
   29SAPC   H6Y 3911   4.847   2.164   7.501 -0.3756 -1.4287  2.0623
   29SAPC   C37 3912   5.022   2.197   7.624  0.3658 -0.8189 -0.1127
   29SAPC   H7X 3913   4.966   2.165   7.715 -0.5211  0.6845 -0.1059
   29SAPC   H7Y 3914   5.015   2.307   7.610 -2.0428 -0.7096  1.4142
   29SAPC   C38 3915   5.163   2.149   7.641 -0.3457  0.1441 -0.5698
   29SAPC   H8X 3916   5.233   2.191   7.566  2.5693 -0.6028  1.5558
   29SAPC   H8Y 3917   5.164   2.039   7.626  2.1660 -0.0900  0.7901
   29SAPC   C39 3918   5.231   2.189   7.768  0.2269 -0.4079  0.0142
   29SAPC   H9X 3919   5.314   2.116   7.776 -1.7496 -2.6303  1.6591
   29SAPC   H9Y 3920   5.155   2.184   7.849  0.1412 -0.9668 -0.1021
   29SAPC  C310 3921   5.286   2.330   7.760  0.3227  0.3404 -0.2611
   29SAPC  H10X 3922   5.199   2.398   7.745 -0.4399 -0.9507 -2.0076
   29SAPC  H10Y 3923   5.348   2.340   7.668  1.2733 -3.1369 -0.1134
   29SAPC  C311 3924   5.377   2.346   7.882  0.1434 -0.4316 -0.6167
   29SAPC  H11X 3925   5.436   2.441   7.886  1.7241 -1.3400 -1.2014
   29SAPC  H11Y 3926   5.449   2.261   7.884  1.6485  0.7910 -0.7362
   29SAPC  C312 3927   5.306   2.341   8.020  0.1836  0.3125  0.1414
   29SAPC  H12X 3928   5.389   2.341   8.094  0.7294  0.3732 -0.4632
   29SAPC  H12Y 3929   5.247   2.248   8.039  1.7709 -1.5496 -3.3110
   29SAPC  C313 3930   5.210   2.456   8.034 -0.0086  0.6853 -0.1751
   29SAPC  H13X 3931   5.110   2.417   8.003 -0.9624  1.6845  1.4895
   29SAPC  H13Y 3932   5.248   2.530   7.960 -1.0517  0.3036 -1.1305
   29SAPC  C314 3933   5.221   2.513   8.177 -0.0271 -0.3034  1.1958
   29SAPC  H14X 3934   5.220   2.427   8.247 -3.3279  0.1068  1.8186
   29SAPC  H14Y 3935   5.138   2.586   8.190  0.7917  1.2977 -1.6428
   29SAPC  C315 3936   5.353   2.590   8.204  0.1192 -0.4925  0.1857
   29SAPC  H15X 3937   5.359   2.668   8.125 -2.0183  0.6094  1.0350
   29SAPC  H15Y 3938   5.439   2.519   8.197  0.9493  0.5132 -0.0612
   29SAPC  C316 3939   5.360   2.650   8.343  0.4601 -0.3628 -0.3736
   29SAPC  H16X 3940   5.269   2.708   8.366  0.8967 -0.1001  0.7455
   29SAPC  H16Y 3941   5.451   2.713   8.352  1.3461 -1.4615 -1.3201
   29SAPC  C317 3942   5.366   2.555   8.457 -0.7126  0.0271  0.2256
   29SAPC  H17X 3943   5.451   2.484   8.452 -1.1655 -0.5967  0.9505
   29SAPC  H17Y 3944   5.279   2.489   8.436 -0.8316  0.3851 -0.4234
   29SAPC  C318 3945   5.348   2.612   8.597 -0.5182 -0.0001 -0.8044
   29SAPC  H18X 3946   5.333   2.535   8.676 -2.4990  0.2952 -0.8311
   29SAPC  H18Y 3947   5.256   2.673   8.597  0.3986  1.4147 -0.4075
   29SAPC  H18Z 3948   5.436   2.675   8.620 -0.5493  0.9882 -3.1743
   30SAPC     N 3949   0.705   3.370   6.294 -0.4858  0.3709 -0.2110
   30SAPC   C12 3950   0.668   3.509   6.258  0.5867  0.1795 -0.2369
   30SAPC  H12A 3951   0.641   3.511   6.154  0.4423 -0.6997 -0.2258
   30SAPC  H12B 3952   0.751   3.577   6.264  1.4316 -0.9039  1.1093
   30SAPC   C13 3953   0.800   3.314   6.195  0.2538  0.3517 -0.3536
   30SAPC  H13A 3954   0.896   3.364   6.206  0.3087  0.1709  0.0026
   30SAPC  H13B 3955   0.819   3.210   6.216  0.6023  0.9217  2.6828
   30SAPC  H13C 3956   0.767   3.324   6.093  0.0970 -0.2156 -0.3568
   30SAPC   C14 3957   0.777   3.379   6.429  0.9359 -0.2270 -0.3573
   30SAPC  H14A 3958   0.717   3.421   6.509  1.0537 -2.4188  0.9733
   30SAPC  H14B 3959   0.808   3.286   6.475  0.4731 -0.1857  0.0579
   30SAPC  H14C 3960   0.866   3.439   6.424  0.8440 -0.0008  0.4974
   30SAPC   C15 3961   0.590   3.279   6.310 -0.5581 -0.1799 -0.1574
   30SAPC  H15A 3962   0.532   3.307   6.397 -0.2660 -3.3627  1.1714
   30SAPC  H15B 3963   0.529   3.282   6.221  0.2915  1.9265 -0.7348
   30SAPC  H15C 3964   0.620   3.176   6.312  1.3806  0.3242 -1.0216
   30SAPC   C11 3965   0.540   3.561   6.328 -0.1366 -0.1935 -0.0729
   30SAPC  H11A 3966   0.568   3.597   6.430  0.3087 -1.6958  0.3527
   30SAPC  H11B 3967   0.462   3.484   6.344 -0.6689  0.5150  0.8634
   30SAPC     P 3968   0.385   3.656   6.138 -0.2919  0.4176 -0.4709
   30SAPC   O13 3969   0.313   3.780   6.114 -0.0039  0.4593  0.5473
   30SAPC   O14 3970   0.456   3.593   6.023  0.7145 -0.4435 -0.4117
   30SAPC   O12 3971   0.489   3.674   6.256 -0.2131 -0.1910  0.0352
   30SAPC   O11 3972   0.277   3.550   6.195  0.4395 -0.2958 -0.5977
   30SAPC    C1 3973   0.161   3.589   6.280  0.4571 -0.0758  0.0342
   30SAPC    HA 3974   0.145   3.699   6.288  0.2309 -0.1801  1.2048
   30SAPC    HB 3975   0.072   3.548   6.227  2.6266 -1.6729 -2.6604
   30SAPC    C2 3976   0.184   3.528   6.416 -0.4054 -0.3033  0.3925
   30SAPC    HS 3977   0.284   3.558   6.455  0.9500 -2.3492 -1.2555
   30SAPC   O21 3978   0.187   3.383   6.405 -0.5104 -0.4978 -0.5247
   30SAPC   C21 3979   0.267   3.321   6.495  0.7200  0.2101  0.8810
   30SAPC   O22 3980   0.348   3.373   6.566  0.3296  0.0422 -0.1101
   30SAPC   C22 3981   0.217   3.176   6.515 -0.3285 -0.3345 -1.3631
   30SAPC   H2R 3982   0.237   3.119   6.422  3.5008 -1.0223 -0.2698
   30SAPC   H2S 3983   0.291   3.139   6.589 -1.1893  2.7997  1.3155
   30SAPC    C3 3984   0.073   3.567   6.511 -0.1029 -0.1585 -0.5241
   30SAPC    HX 3985   0.106   3.532   6.611 -0.6882 -0.4905 -0.4444
   30SAPC    HY 3986  -0.023   3.525   6.475  0.6168 -1.5830 -0.8900
   30SAPC   O31 3987   0.062   3.710   6.516  0.2152 -0.1937 -0.3839
   30SAPC   C31 3988   0.144   3.777   6.599 -0.2757  0.3217 -0.1349
   30SAPC   O32 3989   0.251   3.737   6.637  0.8328  0.0130  0.0290
   30SAPC   C32 3990   0.094   3.925   6.612  0.2388  0.2613 -0.9963
   30SAPC   H2X 3991   0.041   3.946   6.516  0.8630 -2.0993 -1.9191
   30SAPC   H2Y 3992   0.182   3.993   6.606 -0.4357  1.1686 -0.8791
   30SAPC   C23 3993   0.076   3.170   6.578 -0.0084  0.2269 -0.0611
   30SAPC   H3R 3994   0.001   3.215   6.509 -0.5581 -2.5663 -1.4305
   30SAPC   H3S 3995   0.080   3.224   6.675 -0.8093 -0.3729  0.3225
   30SAPC   C24 3996   0.026   3.033   6.608 -0.5100 -0.0486 -0.2535
   30SAPC   H4R 3997   0.029   2.974   6.514 -0.5953 -0.7032  0.1495
   30SAPC   H4S 3998  -0.077   3.052   6.645  0.3444  4.0013  0.5277
   30SAPC   C25 3999   0.105   2.957   6.708 -0.0447 -0.3386  0.6889
   30SAPC   H5R 4000   0.192   2.902   6.669  0.6197  0.2227  1.3364
   30SAPC   C26 4001   0.086   2.944   6.836  0.7252  0.5454 -0.2973
   30SAPC   H6R 4002   0.153   2.884   6.900 -1.0120 -1.8669 -0.5804
   30SAPC   C27 4003  -0.027   3.012   6.914 -0.3591  0.0912 -0.5310
   30SAPC   H7R 4004  -0.051   3.114   6.877  0.0992  1.4227  2.5527
   30SAPC   H7S 4005   0.016   3.034   7.014 -2.5428 -0.3238  0.5415
   30SAPC   C28 4006  -0.157   2.933   6.914 -0.3023  0.1474 -0.6479
   30SAPC   H8R 4007  -0.200   2.923   6.813  1.8194  1.9751 -1.8182
   30SAPC   C29 4008  -0.222   2.885   7.020  0.2686 -0.6338  0.2098
   30SAPC   H9R 4009  -0.314   2.830   6.995  1.2380 -1.2390 -2.3167
   30SAPC  C210 4010  -0.174   2.899   7.160  0.0486 -0.8432 -0.1572
   30SAPC  H10R 4011  -0.203   2.997   7.203 -0.6010 -1.3716  0.6487
   30SAPC  H10S 4012  -0.063   2.889   7.159  0.3117  1.1797  1.5785
   30SAPC  C211 4013  -0.245   2.785   7.234 -0.5832  0.0839 -0.4195
   30SAPC  H11R 4014  -0.331   2.738   7.184 -2.4625  1.7934  1.0053
   30SAPC  C212 4015  -0.189   2.734   7.349  0.0222 -0.0998  0.4168
   30SAPC  H12R 4016  -0.235   2.660   7.415  3.2906 -1.3445  1.4682
   30SAPC  C213 4017  -0.064   2.771   7.412 -0.0594 -0.0121 -0.1879
   30SAPC  H13R 4018  -0.072   2.807   7.517 -2.5985  1.1428 -0.6975
   30SAPC  H13S 4019  -0.017   2.860   7.365 -1.3207  0.9943  0.4200
   30SAPC  C214 4020   0.038   2.660   7.393 -0.1829 -0.3482 -0.2870
   30SAPC  H14R 4021   0.114   2.691   7.320  0.0927 -1.2064 -0.3695
   30SAPC  C215 4022   0.044   2.540   7.459 -0.4727 -1.2295 -0.6008
   30SAPC  H15R 4023   0.126   2.471   7.433  0.6057 -1.3438  2.6351
   30SAPC  C216 4024  -0.056   2.509   7.570  0.2236 -0.2105  0.3055
   30SAPC  H16R 4025  -0.070   2.399   7.579 -2.1832 -0.0420 -0.5692
   30SAPC  H16S 4026  -0.158   2.552   7.557 -0.4477 -1.5233  1.0530
   30SAPC  C217 4027   0.003   2.574   7.694 -0.2437  0.0304  0.0930
   30SAPC  H17R 4028  -0.070   2.561   7.777  1.1170 -1.1509  1.1403
   30SAPC  H17S 4029   0.027   2.682   7.682  1.4500 -0.1532  1.5152
   30SAPC  C218 4030   0.129   2.509   7.750 -0.0138  0.0398 -0.8421
   30SAPC  H18R 4031   0.206   2.496   7.671 -0.0857 -1.2094 -0.7270
   30SAPC  H18S 4032   0.103   2.408   7.788 -1.8015  1.1564  1.1104
   30SAPC  C219 4033   0.180   2.580   7.870 -0.2459 -0.6744  0.2861
   30SAPC  H19R 4034   0.100   2.599   7.945 -0.2122 -0.3548  0.2428
   30SAPC  H19S 4035   0.235   2.672   7.838  1.4686 -1.8889 -0.4157
   30SAPC  C220 4036   0.278   2.500   7.943  0.3095  0.9637 -0.1779
   30SAPC  H20R 4037   0.303   2.538   8.044 -2.8261 -1.0181  1.4800
   30SAPC  H20S 4038   0.372   2.493   7.883 -0.4451 -1.8454 -1.1698
   30SAPC  H20T 4039   0.249   2.393   7.952 -0.2232  1.1292  0.0986
   30SAPC   C33 4040  -0.003   3.942   6.730  0.4019  0.0976 -0.0959
   30SAPC   H3X 4041  -0.099   3.897   6.699 -0.7398  1.5665  1.1652
   30SAPC   H3Y 4042  -0.031   4.049   6.736 -3.1901 -0.6823 -0.8975
   30SAPC   C34 4043   0.052   3.902   6.871  0.0473  1.0035  0.7261
   30SAPC   H4X 4044   0.147   3.959   6.883  0.9816 -0.2396 -0.4482
   30SAPC   H4Y 4045   0.088   3.797   6.880 -2.4050 -0.1867 -1.9132
   30SAPC   C35 4046  -0.043   3.947   6.989 -0.1947  0.0703 -0.0360
   30SAPC   H5X 4047  -0.130   3.879   7.002  1.4071 -2.2344 -0.8283
   30SAPC   H5Y 4048  -0.077   4.050   6.966  0.3699  0.1264 -0.6336
   30SAPC   C36 4049   0.030   3.935   7.128  0.2715 -0.2016  0.0604
   30SAPC   H6X 4050   0.130   3.984   7.127  1.8999 -3.2162 -2.0488
   30SAPC   H6Y 4051   0.036   3.827   7.152  0.6524 -0.2725 -0.3383
   30SAPC   C37 4052  -0.064   3.990   7.232  0.7539  0.7508  0.5996
   30SAPC   H7X 4053  -0.148   3.920   7.251  1.7215 -0.7259 -0.3265
   30SAPC   H7Y 4054  -0.106   4.084   7.191  2.1449  1.4458  0.6999
   30SAPC   C38 4055   0.008   4.014   7.361 -0.2825  0.0247 -0.3824
   30SAPC   H8X 4056   0.089   4.089   7.346  0.4591 -0.6827 -0.0005
   30SAPC   H8Y 4057   0.068   3.931   7.405  1.1254  0.1813 -1.8825
   30SAPC   C39 4058  -0.077   4.068   7.481 -0.8112 -0.0054  0.1037
   30SAPC   H9X 4059  -0.136   3.978   7.510  1.9244 -1.4731  1.5154
   30SAPC   H9Y 4060  -0.140   4.155   7.454 -0.8710 -0.5444 -1.5816
   30SAPC  C310 4061   0.010   4.103   7.604 -0.4604 -0.2017  0.2216
   30SAPC  H10X 4062   0.059   4.200   7.581  0.2016 -0.7053 -0.5597
   30SAPC  H10Y 4063   0.092   4.030   7.621  0.7124  0.5535 -1.8881
   30SAPC  C311 4064  -0.068   4.116   7.737  0.1428  0.4663  0.3402
   30SAPC  H11X 4065  -0.089   4.012   7.769 -3.5663  0.3260 -1.9631
   30SAPC  H11Y 4066  -0.167   4.164   7.716 -0.8759 -1.8598 -0.5413
   30SAPC  C312 4067   0.014   4.187   7.857  0.8123 -0.2673  0.8410
   30SAPC  H12X 4068  -0.062   4.175   7.937 -0.7259 -0.0976 -0.5454
   30SAPC  H12Y 4069   0.031   4.291   7.823 -1.0681 -0.1070  0.2702
   30SAPC  C313 4070   0.144   4.120   7.914 -0.9462 -0.2569  0.4113
   30SAPC  H13X 4071   0.227   4.132   7.840 -1.3035 -0.7568 -0.0771
   30SAPC  H13Y 4072   0.119   4.012   7.922 -0.8314 -0.3512 -0.4233
   30SAPC  C314 4073   0.189   4.178   8.052 -0.4279  0.2641  0.2586
   30SAPC  H14X 4074   0.129   4.266   8.082 -1.3712 -0.1639 -0.3121
   30SAPC  H14Y 4075   0.296   4.207   8.045 -0.5699  0.8993  0.6588
   30SAPC  C315 4076   0.190   4.061   8.155  0.1892  0.4341 -0.1081
   30SAPC  H15X 4077   0.230   3.972   8.101 -1.6184 -1.2729  1.1873
   30SAPC  H15Y 4078   0.090   4.032   8.194  0.7311 -2.0887 -0.4239
   30SAPC  C316 4079   0.290   4.092   8.271 -0.2328 -0.2466 -0.4411
   30SAPC  H16X 4080   0.253   4.189   8.310 -1.3051 -1.6041  2.1606
   30SAPC  H16Y 4081   0.395   4.105   8.238  0.6589 -0.0225  2.2217
   30SAPC  C317 4082   0.278   3.985   8.385  0.3386  0.8574  0.5007
   30SAPC  H17X 4083   0.366   4.007   8.448  0.1973  0.6820  0.7571
   30SAPC  H17Y 4084   0.304   3.888   8.339  0.1569  1.2250 -0.4255
   30SAPC  C318 4085   0.152   3.996   8.474 -0.1109  0.4427  0.3402
   30SAPC  H18X 4086   0.176   3.939   8.567  2.1602  2.0200  0.8011
   30SAPC  H18Y 4087   0.069   3.955   8.413  1.1799  0.4976 -1.5446
   30SAPC  H18Z 4088   0.120   4.101   8.492 -2.7910  0.0596 -1.6378
   31SAPC     N 4089   0.960   2.511   5.966 -0.0653 -0.6745 -0.3767
   31SAPC   C12 4090   0.891   2.477   6.095 -0.2013  0.4646 -1.2199
   31SAPC  H12A 4091   0.875   2.370   6.106  1.7082  0.2714  0.1139
   31SAPC  H12B 4092   0.795   2.524   6.085 -0.1590  0.6873 -0.6035
   31SAPC   C13 4093   0.983   2.659   5.953 -0.3803  0.0828  0.2458
   31SAPC  H13A 4094   1.029   2.676   5.857 -1.6473 -0.5395 -0.4910
   31SAPC  H13B 4095   0.893   2.716   5.968  0.5475  1.8393 -0.5386
   31SAPC  H13C 4096   1.040   2.700   6.036 -0.1359 -1.1995  0.7351
   31SAPC   C14 4097   1.098   2.456   5.948  0.5269 -0.6925 -0.2098
   31SAPC  H14A 4098   1.173   2.505   6.007 -1.9282  0.9198  1.7874
   31SAPC  H14B 4099   1.104   2.352   5.975  0.1257 -0.4138  0.9907
   31SAPC  H14C 4100   1.135   2.451   5.846 -0.1172  1.2310 -0.5801
   31SAPC   C15 4101   0.875   2.451   5.860  0.3517  0.4344 -0.0306
   31SAPC  H15A 4102   0.905   2.480   5.760 -2.6204 -2.2596 -1.9185
   31SAPC  H15B 4103   0.857   2.345   5.873 -1.2495  0.7400  0.3708
   31SAPC  H15C 4104   0.776   2.491   5.872  0.5087  0.5437  0.9426
   31SAPC   C11 4105   0.959   2.526   6.233  0.4228 -0.1039  0.4971
   31SAPC  H11A 4106   1.058   2.477   6.245  1.4112  1.1425 -1.9059
   31SAPC  H11B 4107   0.900   2.494   6.321  1.3287 -0.2058  1.0761
   31SAPC     P 4108   0.897   2.775   6.295 -0.2282  0.1120  0.1230
   31SAPC   O13 4109   0.972   2.898   6.327 -0.1170  0.1789  0.3045
   31SAPC   O14 4110   0.772   2.777   6.215  0.2039 -0.5026  0.8134
   31SAPC   O12 4111   0.984   2.669   6.233  0.1700 -0.1407 -0.1507
   31SAPC   O11 4112   0.857   2.707   6.432  0.6872 -0.2961 -0.2031
   31SAPC    C1 4113   0.955   2.697   6.533 -0.1838 -0.6344  0.2453
   31SAPC    HA 4114   1.041   2.632   6.508  0.2347  0.4396 -1.1593
   31SAPC    HB 4115   1.005   2.793   6.557 -3.0621  0.8188  0.8420
   31SAPC    C2 4116   0.886   2.651   6.665  0.6242 -0.1066 -0.1733
   31SAPC    HS 4117   0.858   2.740   6.726  1.0861  1.2856 -1.9060
   31SAPC   O21 4118   0.981   2.566   6.743 -0.1575 -0.2399  0.1047
   31SAPC   C21 4119   1.084   2.629   6.789 -0.6412 -0.9062 -0.9253
   31SAPC   O22 4120   1.089   2.752   6.806  0.3081 -0.6476 -0.0073
   31SAPC   C22 4121   1.202   2.539   6.824 -0.1765 -0.5301  0.7225
   31SAPC   H2R 4122   1.153   2.459   6.883  2.3788 -1.1287  2.1692
   31SAPC   H2S 4123   1.254   2.498   6.735  1.0796  0.4195  0.9949
   31SAPC    C3 4124   0.761   2.568   6.616 -0.4521 -0.3414 -0.0206
   31SAPC    HX 4125   0.801   2.490   6.548  2.5278 -0.2232  1.4244
   31SAPC    HY 4126   0.684   2.623   6.560 -2.8631 -2.4848  0.9565
   31SAPC   O31 4127   0.690   2.510   6.738 -0.3970  0.9140  0.5657
   31SAPC   C31 4128   0.721   2.381   6.759  0.2227  0.0568 -0.4197
   31SAPC   O32 4129   0.772   2.311   6.674 -0.4710 -0.1626  0.1338
   31SAPC   C32 4130   0.658   2.335   6.892  0.5005 -0.2163 -0.4254
   31SAPC   H2X 4131   0.587   2.254   6.866  0.7050 -0.9140  1.1016
   31SAPC   H2Y 4132   0.610   2.417   6.949 -2.9229 -3.5814  2.0313
   31SAPC   C23 4133   1.295   2.604   6.924  0.0971  0.4335  0.0990
   31SAPC   H3R 4134   1.238   2.665   6.997 -1.5773 -0.1206 -0.7052
   31SAPC   H3S 4135   1.360   2.678   6.872 -1.4894  1.1777 -0.8792
   31SAPC   C24 4136   1.363   2.483   6.988 -0.3849 -0.1705 -0.3559
   31SAPC   H4R 4137   1.429   2.432   6.914  0.0897 -1.3980  0.8674
   31SAPC   H4S 4138   1.283   2.418   7.027 -0.7082 -0.5825 -1.6503
   31SAPC   C25 4139   1.457   2.538   7.091 -0.6677 -0.4214 -0.3202
   31SAPC   H5R 4140   1.558   2.564   7.057 -1.0418  0.8012 -0.5487
   31SAPC   C26 4141   1.429   2.564   7.219  0.2492  0.6344 -1.2141
   31SAPC   H6R 4142   1.515   2.590   7.283 -0.9932  0.0169  0.8123
   31SAPC   C27 4143   1.297   2.534   7.285 -0.5334 -0.8949 -0.1508
   31SAPC   H7R 4144   1.220   2.558   7.208  0.0795  0.3999 -0.3779
   31SAPC   H7S 4145   1.276   2.615   7.357 -1.6125 -0.5875 -0.7770
   31SAPC   C28 4146   1.290   2.402   7.354  0.0229 -0.2853  0.0870
   31SAPC   H8R 4147   1.336   2.320   7.298 -0.1708  0.7012 -1.5896
   31SAPC   C29 4148   1.231   2.378   7.470 -0.0466  0.4152 -0.6772
   31SAPC   H9R 4149   1.238   2.276   7.510 -1.3532  0.5351 -0.0785
   31SAPC  C210 4150   1.167   2.486   7.552 -0.0480  0.3146 -0.2571
   31SAPC  H10R 4151   1.082   2.526   7.492 -0.1179 -1.4385 -1.3975
   31SAPC  H10S 4152   1.246   2.563   7.564  0.3176 -0.1098  0.0780
   31SAPC  C211 4153   1.117   2.437   7.681  0.3675  0.2925  0.5731
   31SAPC  H11R 4154   1.019   2.388   7.671  0.3243  0.7938 -2.5360
   31SAPC  C212 4155   1.179   2.443   7.798 -0.0619 -0.1777 -0.9732
   31SAPC  H12R 4156   1.126   2.405   7.886 -1.6953  0.8825 -1.4482
   31SAPC  C213 4157   1.314   2.502   7.826 -0.3124  1.0481 -0.1709
   31SAPC  H13R 4158   1.298   2.600   7.875  1.1729  1.4884 -0.5286
   31SAPC  H13S 4159   1.373   2.530   7.737  1.4886 -1.0539  0.2693
   31SAPC  C214 4160   1.396   2.409   7.911  0.5847  0.0784 -0.0837
   31SAPC  H14R 4161   1.473   2.355   7.854  0.1183 -2.6565  1.6936
   31SAPC  C215 4162   1.373   2.366   8.041 -0.1876 -0.0934  0.1274
   31SAPC  H15R 4163   1.449   2.309   8.096 -1.2098 -0.2581  1.4249
   31SAPC  C216 4164   1.275   2.421   8.140  0.0099 -0.3375  0.3373
   31SAPC  H16R 4165   1.198   2.342   8.149  0.3107 -0.5134  1.7106
   31SAPC  H16S 4166   1.208   2.499   8.099 -1.6213 -1.6129  0.4690
   31SAPC  C217 4167   1.324   2.465   8.278  0.3685  0.2916 -0.3227
   31SAPC  H17R 4168   1.228   2.488   8.328 -0.2272 -0.9593 -0.8413
   31SAPC  H17S 4169   1.388   2.554   8.264 -0.1222  0.4564 -1.7531
   31SAPC  C218 4170   1.411   2.365   8.359 -0.5095  0.4954  0.3124
   31SAPC  H18R 4171   1.510   2.365   8.308 -1.5637  0.6943 -1.8591
   31SAPC  H18S 4172   1.376   2.259   8.355  1.0431 -0.0125 -0.8967
   31SAPC  C219 4173   1.426   2.406   8.501 -0.0315  0.2996  0.6651
   31SAPC  H19R 4174   1.466   2.323   8.564  2.4670  0.1737 -0.9375
   31SAPC  H19S 4175   1.323   2.437   8.527 -0.9825 -1.4315 -0.8238
   31SAPC  C220 4176   1.520   2.529   8.522 -0.5355  0.1057 -0.2851
   31SAPC  H20R 4177   1.559   2.527   8.626  0.6331  1.1807 -0.6707
   31SAPC  H20S 4178   1.468   2.627   8.523 -2.1813 -0.7348  0.5480
   31SAPC  H20T 4179   1.601   2.529   8.445  0.1288 -0.6231  0.3907
   31SAPC   C33 4180   0.750   2.255   6.984 -0.0071  0.0194 -0.4291
   31SAPC   H3X 4181   0.781   2.155   6.949  1.3162  0.3895 -0.3753
   31SAPC   H3Y 4182   0.688   2.229   7.071 -1.6394  1.0932 -1.2156
   31SAPC   C34 4183   0.863   2.341   7.030  0.9467  0.4793 -0.4932
   31SAPC   H4X 4184   0.933   2.370   6.949  0.6056  0.2029 -0.8878
   31SAPC   H4Y 4185   0.929   2.285   7.099  1.2827 -0.8368 -1.8437
   31SAPC   C35 4186   0.805   2.472   7.095 -0.1232  1.3092  0.8371
   31SAPC   H5X 4187   0.715   2.455   7.157  0.5944 -0.7626  1.3962
   31SAPC   H5Y 4188   0.776   2.543   7.014 -0.1204  1.3117  0.8378
   31SAPC   C36 4189   0.916   2.549   7.165  0.4339  0.1427 -0.6701
   31SAPC   H6X 4190   1.015   2.520   7.125  1.4018 -0.4799  1.9261
   31SAPC   H6Y 4191   0.905   2.504   7.267 -3.0592 -1.1099 -1.4548
   31SAPC   C37 4192   0.900   2.703   7.163 -0.9343  0.2788  0.8024
   31SAPC   H7X 4193   0.795   2.716   7.128 -0.1448  1.3388 -1.3587
   31SAPC   H7Y 4194   0.970   2.750   7.091  1.6051 -1.5463  1.9424
   31SAPC   C38 4195   0.936   2.773   7.290 -0.0671 -0.4431 -0.9759
   31SAPC   H8X 4196   0.924   2.883   7.288  0.4349  0.1382  5.3832
   31SAPC   H8Y 4197   1.039   2.751   7.325 -0.2318  0.6084  0.2655
   31SAPC   C39 4198   0.837   2.737   7.407 -0.3785  0.5750 -0.3733
   31SAPC   H9X 4199   0.866   2.636   7.442 -0.4344  0.0327 -1.8636
   31SAPC   H9Y 4200   0.733   2.751   7.371 -0.0913 -0.3862 -1.6265
   31SAPC  C310 4201   0.862   2.830   7.524 -0.4643  0.3148  0.1220
   31SAPC  H10X 4202   0.862   2.931   7.480 -0.2287  0.9795  1.5782
   31SAPC  H10Y 4203   0.966   2.828   7.566  0.9275  2.6736 -2.8509
   31SAPC  C311 4204   0.761   2.820   7.637 -0.1543  0.5255  0.1889
   31SAPC  H11X 4205   0.763   2.713   7.669  0.5705  1.2542  2.8177
   31SAPC  H11Y 4206   0.662   2.832   7.589  0.0089  3.6078  0.4179
   31SAPC  C312 4207   0.793   2.919   7.749  0.5083  1.1161  0.0606
   31SAPC  H12X 4208   0.702   2.924   7.813  0.9805 -0.3530  0.9032
   31SAPC  H12Y 4209   0.802   3.006   7.681 -1.4583  0.5350 -1.0022
   31SAPC  C313 4210   0.912   2.892   7.843  0.4439 -0.5545 -0.6899
   31SAPC  H13X 4211   0.960   2.987   7.875  0.6271 -1.5006  2.0690
   31SAPC  H13Y 4212   0.988   2.832   7.789  0.9885  1.6284 -2.5665
   31SAPC  C314 4213   0.867   2.827   7.975  0.2379 -0.1376  0.7635
   31SAPC  H14X 4214   0.806   2.739   7.947 -0.0754  0.0720  0.7810
   31SAPC  H14Y 4215   0.805   2.902   8.030 -0.4713 -1.3775  1.6943
   31SAPC  C315 4216   0.987   2.785   8.068  0.8595  0.0031 -0.9256
   31SAPC  H15X 4217   1.040   2.874   8.107 -0.0934 -0.5462  1.7906
   31SAPC  H15Y 4218   1.060   2.728   8.007 -0.5706 -2.5334 -0.3980
   31SAPC  C316 4219   0.934   2.710   8.196 -0.6647 -0.2465 -0.4031
   31SAPC  H16X 4220   1.021   2.685   8.261 -0.8108  3.2412  1.3941
   31SAPC  H16Y 4221   0.880   2.621   8.159 -0.9379 -1.4337  2.5398
   31SAPC  C317 4222   0.840   2.798   8.278  0.2247  0.5350 -0.2342
   31SAPC  H17X 4223   0.742   2.811   8.227 -0.7144  1.0035  1.5985
   31SAPC  H17Y 4224   0.888   2.898   8.277  1.2699  0.0417 -0.4204
   31SAPC  C318 4225   0.813   2.752   8.419 -0.3098 -1.1347  0.0549
   31SAPC  H18X 4226   0.907   2.716   8.466  1.4533  3.0974  0.2693
   31SAPC  H18Y 4227   0.730   2.678   8.422 -1.1214 -0.2512 -0.0907
   31SAPC  H18Z 4228   0.779   2.839   8.480 -0.3846 -1.5055  0.5510
   32SAPC     N 4229   2.421   4.432   5.841  0.0872 -0.5856 -0.0817
   32SAPC   C12 4230   2.498   4.454   5.976  0.0781  0.2614  0.1920
   32SAPC  H12A 4231   2.472   4.542   6.032  1.1574  2.0928 -2.0159
   32SAPC  H12B 4232   2.604   4.454   5.954  0.1530 -2.3539  0.1501
   32SAPC   C13 4233   2.452   4.301   5.773  0.1511  0.1246 -0.1391
   32SAPC  H13A 4234   2.387   4.224   5.812 -0.7548  0.7581 -0.3438
   32SAPC  H13B 4235   2.429   4.319   5.669  0.7694 -0.7366 -0.4324
   32SAPC  H13C 4236   2.555   4.271   5.782 -0.5694 -2.4363  0.3149
   32SAPC   C14 4237   2.272   4.432   5.861  0.1491  0.3073 -0.1276
   32SAPC  H14A 4238   2.246   4.521   5.917  2.7767 -0.2971  2.2544
   32SAPC  H14B 4239   2.208   4.418   5.775 -0.6716  0.5318  0.4345
   32SAPC  H14C 4240   2.241   4.358   5.933  0.6103  1.0112  0.8184
   32SAPC   C15 4241   2.460   4.537   5.743  0.1077  0.0693  0.0568
   32SAPC  H15A 4242   2.567   4.552   5.737  0.5778 -3.1481 -2.9522
   32SAPC  H15B 4243   2.441   4.494   5.646  0.8935  0.4556 -0.2828
   32SAPC  H15C 4244   2.418   4.630   5.778  2.1752  0.0424  3.0252
   32SAPC   C11 4245   2.492   4.339   6.077 -0.7126 -0.4580 -0.2756
   32SAPC  H11A 4246   2.554   4.376   6.162 -1.2934  1.0249 -0.4692
   32SAPC  H11B 4247   2.546   4.248   6.043 -1.1751 -0.4143 -1.1492
   32SAPC     P 4248   2.283   4.371   6.232 -0.0703  0.5770  0.0016
   32SAPC   O13 4249   2.283   4.514   6.204  0.6642 -0.5013 -0.1046
   32SAPC   O14 4250   2.146   4.316   6.241 -0.4043 -0.4123 -0.2452
   32SAPC   O12 4251   2.359   4.298   6.117  0.8495  0.1709 -0.1625
   32SAPC   O11 4252   2.360   4.332   6.370 -0.5595 -0.2503  0.1118
   32SAPC    C1 4253   2.407   4.202   6.397  0.3258  0.6639 -0.0353
   32SAPC    HA 4254   2.352   4.121   6.343  0.4688  1.9637 -2.2801
   32SAPC    HB 4255   2.502   4.182   6.341 -0.8769  0.7025 -2.2210
   32SAPC    C2 4256   2.417   4.175   6.552 -0.4186  0.0446  0.9981
   32SAPC    HS 4257   2.325   4.126   6.590 -1.6154 -0.3620 -2.0859
   32SAPC   O21 4258   2.452   4.292   6.624  0.2800 -0.4573 -0.2872
   32SAPC   C21 4259   2.351   4.358   6.683 -0.3017  0.0505  0.4223
   32SAPC   O22 4260   2.235   4.324   6.685 -0.6525  0.1721  0.6562
   32SAPC   C22 4261   2.414   4.456   6.774  0.5773  0.8387  0.3796
   32SAPC   H2R 4262   2.450   4.392   6.857 -0.1492  2.7633  2.2846
   32SAPC   H2S 4263   2.504   4.507   6.734  1.2888 -1.2808 -0.8492
   32SAPC    C3 4264   2.526   4.075   6.561  0.7589 -0.3115  0.1938
   32SAPC    HX 4265   2.619   4.130   6.535 -0.1673  1.2046  0.0102
   32SAPC    HY 4266   2.501   3.995   6.488 -0.7754  0.8490 -0.5990
   32SAPC   O31 4267   2.529   4.025   6.694 -1.0614 -0.1077 -0.8798
   32SAPC   C31 4268   2.579   3.904   6.708  0.2108  0.8536 -0.5126
   32SAPC   O32 4269   2.639   3.838   6.625  0.0460  0.4287  0.2153
   32SAPC   C32 4270   2.558   3.839   6.844 -0.1380 -0.4828 -0.0245
   32SAPC   H2X 4271   2.653   3.856   6.899  1.5042 -3.1007 -1.7979
   32SAPC   H2Y 4272   2.553   3.728   6.836 -1.2679 -0.5708  1.4237
   32SAPC   C23 4273   2.327   4.566   6.835 -0.7908 -0.1746  0.0382
   32SAPC   H3R 4274   2.279   4.623   6.753 -0.5530 -0.0536 -0.0160
   32SAPC   H3S 4275   2.402   4.634   6.878 -0.1828 -0.1151 -1.0798
   32SAPC   C24 4276   2.233   4.503   6.938  0.0508  0.3968  0.1905
   32SAPC   H4R 4277   2.296   4.485   7.028  0.9969  1.7964 -0.1506
   32SAPC   H4S 4278   2.192   4.409   6.896  4.0762 -0.3680 -2.7145
   32SAPC   C25 4279   2.125   4.605   6.965  0.1642 -0.0848  0.0232
   32SAPC   H5R 4280   2.075   4.637   6.872 -1.2351 -2.7472 -0.2461
   32SAPC   C26 4281   2.078   4.656   7.083 -0.3057  0.2834  0.1106
   32SAPC   H6R 4282   2.002   4.733   7.063 -2.3959 -1.8018 -0.3444
   32SAPC   C27 4283   2.116   4.626   7.228 -0.5813 -0.4186  0.2521
   32SAPC   H7R 4284   2.040   4.670   7.296  1.0179  2.8846  0.1339
   32SAPC   H7S 4285   2.210   4.674   7.264 -1.0675 -0.5302  1.7334
   32SAPC   C28 4286   2.102   4.483   7.271 -0.2937 -0.0320  0.4676
   32SAPC   H8R 4287   2.087   4.410   7.190  1.7849 -0.2432  0.1977
   32SAPC   C29 4288   2.132   4.436   7.391  0.3062  0.2656 -0.1646
   32SAPC   H9R 4289   2.121   4.327   7.403 -1.0005  0.3919 -0.0218
   32SAPC  C210 4290   2.184   4.507   7.508  1.1097 -1.0437  0.4308
   32SAPC  H10R 4291   2.154   4.613   7.500  2.1247 -0.7857 -0.0419
   32SAPC  H10S 4292   2.295   4.512   7.502  0.9958 -0.2603 -3.6850
   32SAPC  C211 4293   2.132   4.449   7.634  0.5573  0.2629  0.0372
   32SAPC  H11R 4294   2.104   4.342   7.628  1.2135  0.0044  1.1725
   32SAPC  C212 4295   2.127   4.507   7.755  0.1540 -0.4652  0.3939
   32SAPC  H12R 4296   2.088   4.452   7.841  0.8550  1.5151  2.0566
   32SAPC  C213 4297   2.184   4.646   7.777  0.8443 -0.2398  0.0494
   32SAPC  H13R 4298   2.129   4.705   7.853  0.3718  0.9143 -1.1444
   32SAPC  H13S 4299   2.167   4.707   7.686 -2.8010  0.3016  0.9312
   32SAPC  C214 4300   2.329   4.655   7.822  0.1286 -0.4312  0.3356
   32SAPC  H14R 4301   2.379   4.691   7.731  0.6481 -0.3462  0.6482
   32SAPC  C215 4302   2.399   4.622   7.931  0.0914 -0.0021 -0.3385
   32SAPC  H15R 4303   2.507   4.634   7.948 -0.2247  0.7206  1.3688
   32SAPC  C216 4304   2.329   4.556   8.052  0.0702  0.3695 -0.4748
   32SAPC  H16R 4305   2.390   4.467   8.078  0.6827  0.7602 -0.5818
   32SAPC  H16S 4306   2.226   4.517   8.032  0.6761 -0.7629 -1.5507
   32SAPC  C217 4307   2.316   4.670   8.155  0.2069  1.0630 -0.1072
   32SAPC  H17R 4308   2.267   4.755   8.104 -0.8835  0.2985 -0.3648
   32SAPC  H17S 4309   2.416   4.705   8.189  0.7865  0.7928 -1.4556
   32SAPC  C218 4310   2.215   4.629   8.267  0.2091  0.6695  0.2905
   32SAPC  H18R 4311   2.124   4.589   8.217  0.5628 -2.1078  1.6871
   32SAPC  H18S 4312   2.192   4.724   8.321  0.8619  0.8309  0.2949
   32SAPC  C219 4313   2.258   4.522   8.369  0.3707 -0.4752  0.0468
   32SAPC  H19R 4314   2.332   4.578   8.430 -2.2584  2.3184  0.9217
   32SAPC  H19S 4315   2.315   4.438   8.323  1.6592 -0.6810  1.9076
   32SAPC  C220 4316   2.150   4.463   8.453 -0.0422  0.1675  0.2153
   32SAPC  H20R 4317   2.103   4.544   8.514 -0.0631 -0.6615  1.3463
   32SAPC  H20S 4318   2.201   4.392   8.522 -1.8631 -0.1648  1.2899
   32SAPC  H20T 4319   2.084   4.414   8.378  1.1373  1.4096 -1.7007
   32SAPC   C33 4320   2.433   3.890   6.917 -0.6651 -0.0966  0.1092
   32SAPC   H3X 4321   2.404   3.805   6.982  2.5209 -1.0857  0.4132
   32SAPC   H3Y 4322   2.354   3.894   6.840 -0.0716 -0.1417 -0.5137
   32SAPC   C34 4323   2.437   4.023   7.001 -0.2747 -0.1977  0.3388
   32SAPC   H4X 4324   2.334   4.059   7.018 -1.5067 -2.9532 -0.6525
   32SAPC   H4Y 4325   2.503   4.094   6.947  0.4013 -0.1412  1.2001
   32SAPC   C35 4326   2.498   4.003   7.145 -0.3122  0.4127 -0.1755
   32SAPC   H5X 4327   2.601   3.965   7.127 -0.1316  0.8623 -0.1154
   32SAPC   H5Y 4328   2.443   3.924   7.200  1.9119 -0.4447  0.9732
   32SAPC   C36 4329   2.507   4.125   7.231  0.0969  0.6803 -0.5517
   32SAPC   H6X 4330   2.527   4.212   7.164  0.5356  0.8674 -0.1801
   32SAPC   H6Y 4331   2.597   4.120   7.296  0.3243 -1.6547 -0.9516
   32SAPC   C37 4332   2.378   4.144   7.310  0.5049  0.0531 -0.8554
   32SAPC   H7X 4333   2.293   4.143   7.238 -0.0189 -1.0789 -0.2515
   32SAPC   H7Y 4334   2.384   4.243   7.361  3.3003 -0.9264  0.9094
   32SAPC   C38 4335   2.351   4.043   7.425  0.6367 -0.6418  0.1876
   32SAPC   H8X 4336   2.428   4.045   7.505 -0.3074  0.8753  1.1056
   32SAPC   H8Y 4337   2.342   3.936   7.394 -0.2823 -1.0451  1.7504
   32SAPC   C39 4338   2.230   4.085   7.515 -0.0191 -0.1326  0.3508
   32SAPC   H9X 4339   2.137   4.091   7.456 -0.0162 -1.3838  0.1888
   32SAPC   H9Y 4340   2.242   4.191   7.546 -3.7452  0.1768  1.1234
   32SAPC  C310 4341   2.217   4.001   7.644  0.0302 -0.6032 -0.3585
   32SAPC  H10X 4342   2.294   4.048   7.710  2.0158  0.0196 -2.9548
   32SAPC  H10Y 4343   2.243   3.895   7.624  0.2550 -0.6837  0.3346
   32SAPC  C311 4344   2.079   4.016   7.705 -0.6863 -0.2344 -0.5155
   32SAPC  H11X 4345   2.010   3.953   7.645 -1.1285 -0.9692  0.7311
   32SAPC  H11Y 4346   2.055   4.124   7.703 -1.1619 -0.3111  0.4971
   32SAPC  C312 4347   2.070   3.969   7.850 -0.1484  0.1470  0.6619
   32SAPC  H12X 4348   2.142   3.885   7.865 -0.6217 -0.7474 -1.6845
   32SAPC  H12Y 4349   1.966   3.947   7.882 -1.3185  1.6490 -1.7968
   32SAPC  C313 4350   2.134   4.064   7.954 -0.4471 -0.4703  0.4406
   32SAPC  H13X 4351   2.074   4.158   7.945  1.0671  0.8526  2.9408
   32SAPC  H13Y 4352   2.243   4.078   7.941  0.0965 -3.2610  1.4206
   32SAPC  C314 4353   2.103   4.008   8.095  0.1649  0.5160  0.5734
   32SAPC  H14X 4354   2.145   3.905   8.104 -0.2805  0.2235 -0.5422
   32SAPC  H14Y 4355   1.993   3.993   8.098  0.3831 -1.1153  2.1726
   32SAPC  C315 4356   2.144   4.088   8.218 -0.1169  0.0546  0.2878
   32SAPC  H15X 4357   2.078   4.177   8.217  0.6297  0.6210 -0.8618
   32SAPC  H15Y 4358   2.244   4.134   8.200  0.3404 -0.9632  0.1703
   32SAPC  C316 4359   2.147   4.009   8.347  0.3145  0.8615 -0.5962
   32SAPC  H16X 4360   2.191   4.085   8.415 -0.9276  0.3087  0.8749
   32SAPC  H16Y 4361   2.202   3.913   8.332 -1.0038  0.0247 -0.2753
   32SAPC  C317 4362   2.005   3.973   8.393 -0.5739  0.3726 -0.4797
   32SAPC  H17X 4363   1.966   3.896   8.323 -0.0291 -0.2710 -0.0915
   32SAPC  H17Y 4364   1.941   4.064   8.389 -2.0158 -0.6216 -0.6962
   32SAPC  C318 4365   1.999   3.914   8.535  0.0464 -0.6538  0.0223
   32SAPC  H18X 4366   2.029   3.988   8.613 -0.1677 -1.2618  0.6876
   32SAPC  H18Y 4367   2.067   3.827   8.546  0.2219 -0.5896 -0.5331
   32SAPC  H18Z 4368   1.895   3.884   8.559  0.1898  0.2694  2.0466
   33POPC     N 4369   5.219   1.477  10.676  0.2134 -0.0842  0.5850
   33POPC   C12 4370   5.198   1.477  10.521  0.5645  0.2339 -0.5102
   33POPC  H12A 4371   5.092   1.494  10.509  0.8169  2.0028 -0.4981
   33POPC  H12B 4372   5.219   1.380  10.480 -2.3211 -1.2665  1.2835
   33POPC   C13 4373   5.145   1.364  10.736 -0.1979 -0.8544 -0.2497
   33POPC  H13A 4374   5.041   1.361  10.710 -0.6949  3.3494  0.5098
   33POPC  H13B 4375   5.194   1.271  10.713  0.3231 -0.3467 -1.2698
   33POPC  H13C 4376   5.163   1.372  10.843  0.1148 -0.9035 -0.2975
   33POPC   C14 4377   5.360   1.476  10.711  0.2095 -0.4770 -0.5954
   33POPC  H14A 4378   5.376   1.508  10.813  1.0413 -0.9151 -0.5853
   33POPC  H14B 4379   5.397   1.376  10.698 -2.7498 -1.6345 -0.9738
   33POPC  H14C 4380   5.415   1.549  10.653  2.3782 -0.2532  1.5861
   33POPC   C15 4381   5.157   1.602  10.734  0.5407 -0.4135  0.3624
   33POPC  H15A 4382   5.214   1.688  10.703 -0.2788 -0.0010 -0.0515
   33POPC  H15B 4383   5.150   1.594  10.841  0.4984 -3.4646  0.2362
   33POPC  H15C 4384   5.054   1.606  10.700  0.2906  1.9169  1.1871
   33POPC   C11 4385   5.274   1.575  10.434 -0.2201 -0.3369  0.5443
   33POPC  H11A 4386   5.227   1.568  10.333  1.9487 -0.3446 -0.5335
   33POPC  H11B 4387   5.379   1.542  10.418 -0.0575  0.6044 -0.4733
   33POPC     P 4388   5.403   1.801  10.491 -0.1819 -0.4426  0.1344
   33POPC   O13 4389   5.506   1.734  10.574 -0.1259  0.5154 -0.1122
   33POPC   O14 4390   5.365   1.935  10.534  0.4048 -0.0504  0.1674
   33POPC   O12 4391   5.271   1.712  10.483 -0.0840 -0.1714  0.0712
   33POPC   O11 4392   5.446   1.812  10.336  0.5973 -0.0245  0.3364
   33POPC    C1 4393   5.377   1.913  10.260 -0.0735 -0.2832 -0.2247
   33POPC    HA 4394   5.271   1.897  10.290  0.5564  1.6518  3.7065
   33POPC    HB 4395   5.396   2.014  10.302 -0.8527  0.6912 -2.1177
   33POPC    C2 4396   5.395   1.897  10.111  0.1327 -0.4778  0.6993
   33POPC    HS 4397   5.329   1.966  10.055 -1.0278 -2.1691 -0.0722
   33POPC   O21 4398   5.374   1.762  10.063 -0.0672 -0.0217 -0.5926
   33POPC   C21 4399   5.240   1.734  10.067  0.3865  0.9129  0.2650
   33POPC   O22 4400   5.149   1.814  10.096 -0.0251  0.4231 -0.5218
   33POPC   C22 4401   5.209   1.587  10.018 -0.5531 -0.2352 -0.9945
   33POPC   H2R 4402   5.239   1.518  10.100 -0.7390  1.2278  0.3478
   33POPC   H2S 4403   5.285   1.562   9.942  0.3861 -1.6007  0.3303
   33POPC    C3 4404   5.544   1.939  10.089  0.1636  0.1350 -0.7993
   33POPC    HX 4405   5.603   1.852  10.125  0.0678 -0.6007 -2.3654
   33POPC    HY 4406   5.579   2.018  10.159 -0.8751 -1.1749  1.3330
   33POPC   O31 4407   5.578   1.979   9.950  0.2461  0.3556 -0.0427
   33POPC   C31 4408   5.615   1.886   9.864 -0.1429 -0.0192 -0.7230
   33POPC   O32 4409   5.634   1.768   9.888 -0.2298 -0.1272 -0.1117
   33POPC   C32 4410   5.638   1.939   9.722 -0.1598 -0.0911  0.2360
   33POPC   H2X 4411   5.689   2.038   9.728 -1.4939  0.7711 -1.6006
   33POPC   H2Y 4412   5.541   1.960   9.673 -0.3935 -0.0435  0.7197
   33POPC   C23 4413   5.069   1.563   9.962  0.1777  0.5718 -0.5837
   33POPC   H3R 4414   4.993   1.623  10.017  1.2237 -1.1847  3.1153
   33POPC   H3S 4415   5.033   1.458   9.963  2.3585 -0.2562  1.6088
   33POPC   C24 4416   5.062   1.595   9.806 -0.4056 -0.5261  0.1558
   33POPC   H4R 4417   5.104   1.697   9.790 -1.2363 -0.0237  1.0962
   33POPC   H4S 4418   4.958   1.598   9.768 -0.5966  0.8354  0.7130
   33POPC   C25 4419   5.143   1.488   9.718 -0.3567 -0.5332 -0.2000
   33POPC   H5R 4420   5.110   1.384   9.739 -2.2483 -0.1114 -0.8382
   33POPC   H5S 4421   5.249   1.501   9.746  0.1199 -1.7164 -1.3369
   33POPC   C26 4422   5.117   1.497   9.565 -0.5404 -0.2171 -0.9006
   33POPC   H6R 4423   5.174   1.589   9.538 -0.4773  0.2961  0.8360
   33POPC   H6S 4424   5.012   1.529   9.549 -0.5458  1.2982  1.5909
   33POPC   C27 4425   5.158   1.370   9.490  0.4962 -0.6911 -0.3529
   33POPC   H7R 4426   5.094   1.290   9.534 -2.2157  2.0124  0.9723
   33POPC   H7S 4427   5.267   1.351   9.494  0.8577  0.6440 -2.4466
   33POPC   C28 4428   5.088   1.369   9.346 -0.2016  0.2515 -0.7515
   33POPC   H8R 4429   5.097   1.461   9.285 -1.1786  0.2929 -0.8443
   33POPC   H8S 4430   4.978   1.360   9.360 -0.0497 -0.8417 -0.1679
   33POPC   C29 4431   5.139   1.246   9.277 -0.3044  0.5891  0.6320
   33POPC   H91 4432   5.248   1.238   9.295 -0.3864 -0.3363  0.7611
   33POPC  C210 4433   5.087   1.161   9.188 -0.0895 -0.0338 -0.4541
   33POPC  H101 4434   5.156   1.080   9.161  1.2934  0.5704  1.0941
   33POPC  C211 4435   4.940   1.152   9.144  0.7819  0.5693 -0.7700
   33POPC  H11R 4436   4.893   1.219   9.218  0.7897  1.1992 -1.3322
   33POPC  H11S 4437   4.905   1.048   9.163  2.9123 -0.0189  0.3830
   33POPC  C212 4438   4.910   1.193   8.999 -0.2281 -0.2505  0.2536
   33POPC  H12R 4439   4.980   1.130   8.940 -0.5697 -0.3181 -0.0915
   33POPC  H12S 4440   4.904   1.303   8.982 -1.3225 -0.5283 -1.4895
   33POPC  C213 4441   4.770   1.134   8.956 -0.1613  0.0451 -0.2216
   33POPC  H13R 4442   4.700   1.161   9.038  0.0920  0.0590 -0.0071
   33POPC  H13S 4443   4.773   1.024   8.947  1.9076  0.2208 -3.3662
   33POPC  C214 4444   4.734   1.191   8.820 -0.6593 -0.2018  0.1159
   33POPC  H14R 4445   4.712   1.298   8.838 -1.7362 -0.6489  1.6657
   33POPC  H14S 4446   4.642   1.136   8.792 -0.7661 -0.0655  0.2005
   33POPC  C215 4447   4.847   1.174   8.706 -0.0847  0.8122  0.1207
   33POPC  H15R 4448   4.863   1.064   8.717  1.4406  1.2073  2.5503
   33POPC  H15S 4449   4.936   1.230   8.740 -0.5522  0.4651  2.0976
   33POPC  C216 4450   4.813   1.222   8.571 -0.5339 -0.0873  0.5103
   33POPC  H16R 4451   4.782   1.329   8.574  1.9171  0.6921  0.1716
   33POPC  H16S 4452   4.732   1.156   8.532  0.7215 -1.4983  0.2099
   33POPC  C217 4453   4.923   1.208   8.457  0.8677 -0.3295 -0.5478
   33POPC  H17R 4454   4.995   1.279   8.503  0.8131 -0.6945  0.1178
   33POPC  H17S 4455   4.880   1.258   8.368 -0.9910  0.1379  0.5582
   33POPC  C218 4456   4.971   1.070   8.440  0.8573 -0.1100 -0.0345
   33POPC  H18R 4457   4.889   0.996   8.442  0.9602 -0.2139  0.7457
   33POPC  H18S 4458   5.059   1.039   8.501  0.6322 -0.4931  0.0992
   33POPC  H18T 4459   5.017   1.055   8.340  0.1643 -0.6793 -0.2703
   33POPC   C33 4460   5.722   1.842   9.633  0.5754  0.1573 -0.3102
   33POPC   H3X 4461   5.669   1.747   9.612  0.0968 -0.1107  1.8789
   33POPC   H3Y 4462   5.815   1.805   9.680 -0.5869 -4.4281 -1.1704
   33POPC   C34 4463   5.758   1.907   9.498  0.4654  0.2828  0.0189
   33POPC   H4X 4464   5.818   1.834   9.440  0.4667 -0.1821  0.5977
   33POPC   H4Y 4465   5.826   1.992   9.521  0.3685  0.2608  0.3914
   33POPC   C35 4466   5.636   1.957   9.413 -0.1411 -0.1598 -0.0496
   33POPC   H5X 4467   5.584   2.042   9.462 -0.0053  1.0427 -1.8638
   33POPC   H5Y 4468   5.576   1.873   9.373 -1.9238 -0.3275  2.6875
   33POPC   C36 4469   5.688   2.030   9.287 -0.2063  0.5683  0.0229
   33POPC   H6X 4470   5.755   2.115   9.311  0.3746  0.5089 -1.3244
   33POPC   H6Y 4471   5.599   2.068   9.234  0.8594  0.3176 -2.0342
   33POPC   C37 4472   5.764   1.933   9.192  0.1522  0.2699 -0.4346
   33POPC   H7X 4473   5.691   1.855   9.163 -0.4736  0.8257 -0.3892
   33POPC   H7Y 4474   5.844   1.874   9.240  0.9571  0.7774 -1.1368
   33POPC   C38 4475   5.820   2.004   9.070 -1.0158  0.6621 -0.9480
   33POPC   H8X 4476   5.903   2.064   9.113  0.7679 -2.0761 -0.3477
   33POPC   H8Y 4477   5.736   2.068   9.035 -0.2560  2.3551  0.1922
   33POPC   C39 4478   5.863   1.906   8.963  0.0817 -0.6101 -0.5120
   33POPC   H9X 4479   5.772   1.879   8.904  0.6782 -1.9287 -0.8771
   33POPC   H9Y 4480   5.902   1.806   8.994 -0.4094 -0.2886  1.2544
   33POPC  C310 4481   5.957   1.966   8.859 -0.8197 -0.5440  0.3291
   33POPC  H10X 4482   5.996   1.883   8.797 -0.4769 -1.8174  2.1661
   33POPC  H10Y 4483   6.045   1.996   8.920 -1.1947  0.9748  0.1580
   33POPC  C311 4484   5.904   2.085   8.784 -0.5944 -0.1837 -0.0564
   33POPC  H11X 4485   5.853   2.168   8.838 -0.5772  0.8452 -1.5713
   33POPC  H11Y 4486   5.823   2.044   8.719  1.3369 -1.7812 -1.5716
   33POPC  C312 4487   5.999   2.150   8.683 -0.5840  0.1024 -0.2916
   33POPC  H12X 4488   6.061   2.218   8.745 -0.4418 -1.0343  0.8506
   33POPC  H12Y 4489   5.928   2.202   8.615 -0.5953 -0.1160 -0.4507
   33POPC  C313 4490   6.092   2.056   8.603  0.6414 -0.1306  0.0125
   33POPC  H13X 4491   6.033   1.975   8.556 -1.5569  0.6969  1.1819
   33POPC  H13Y 4492   6.163   2.006   8.672  0.6384 -1.5410 -0.9618
   33POPC  C314 4493   6.170   2.131   8.493 -0.2474  0.1596  0.8743
   33POPC  H14X 4494   6.190   2.233   8.533 -1.2229 -0.0144  1.8492
   33POPC  H14Y 4495   6.108   2.149   8.402  1.8121  0.5635 -0.5185
   33POPC  C315 4496   6.295   2.064   8.440  0.3453  0.3488  0.0909
   33POPC  H15X 4497   6.269   1.993   8.359  0.6174  0.7984 -0.3992
   33POPC  H15Y 4498   6.346   2.012   8.523  0.7605  1.6152  0.6615
   33POPC  C316 4499   6.401   2.159   8.383  0.6098  0.2567 -0.1023
   33POPC  H16X 4500   6.342   2.224   8.315 -1.7334  0.3267  1.8774
   33POPC  H16Y 4501   6.473   2.106   8.317  0.8365  0.0569  0.3004
   33POPC  H16Z 4502   6.464   2.218   8.453  0.5119 -0.9987  1.0731
   34POPC     N 4503   4.756   3.072  10.836  0.2944 -0.0209 -0.0333
   34POPC   C12 4504   4.760   3.027  10.688 -0.4638 -0.2362 -0.0829
   34POPC  H12A 4505   4.861   2.990  10.675 -0.9727 -1.8440  0.2497
   34POPC  H12B 4506   4.729   3.111  10.628 -2.3889 -0.7512  0.1112
   34POPC   C13 4507   4.863   3.166  10.870  0.5094 -0.1195  0.5270
   34POPC  H13A 4508   4.869   3.193  10.975  1.3546  0.5898  0.3106
   34POPC  H13B 4509   4.962   3.143  10.834  0.1099 -2.4510  0.7337
   34POPC  H13C 4510   4.833   3.259  10.824  1.4838 -1.0934 -2.2263
   34POPC   C14 4511   4.622   3.121  10.868 -0.6908 -1.0793  0.0677
   34POPC  H14A 4512   4.588   3.205  10.809 -2.9200 -0.6557  1.7890
   34POPC  H14B 4513   4.548   3.043  10.860  0.0163 -1.5879 -2.2680
   34POPC  H14C 4514   4.614   3.165  10.967 -0.3907  0.7077 -0.6555
   34POPC   C15 4515   4.785   2.954  10.929  0.3100  0.0176 -0.5768
   34POPC  H15A 4516   4.886   2.919  10.918  0.3743 -1.1945  2.8248
   34POPC  H15B 4517   4.727   2.866  10.908  2.4046 -1.5813  0.0490
   34POPC  H15C 4518   4.778   2.978  11.034  0.1283 -2.0605 -0.0800
   34POPC   C11 4519   4.674   2.903  10.659 -0.8096 -0.6560  0.6355
   34POPC  H11A 4520   4.668   2.892  10.548 -0.4991 -2.6671  0.7844
   34POPC  H11B 4521   4.569   2.923  10.689 -0.9776 -0.9996  0.2889
   34POPC     P 4522   4.856   2.712  10.642  0.0593 -0.4808  0.6370
   34POPC   O13 4523   4.863   2.570  10.676 -0.4240  0.2629 -0.3431
   34POPC   O14 4524   4.966   2.800  10.689  0.0780  0.2524 -0.3725
   34POPC   O12 4525   4.728   2.780  10.714 -0.4044  0.0633  0.5259
   34POPC   O11 4526   4.823   2.725  10.485 -1.0079 -0.7383 -0.0021
   34POPC    C1 4527   4.708   2.654  10.436 -0.3453  0.0583 -0.3016
   34POPC    HA 4528   4.657   2.705  10.351  0.6173 -1.1758 -1.6750
   34POPC    HB 4529   4.635   2.630  10.516  1.0486 -1.0001  0.7117
   34POPC    C2 4530   4.754   2.515  10.376 -0.8022 -0.6365  0.0019
   34POPC    HS 4531   4.811   2.465  10.458  0.0228  1.4382  0.7554
   34POPC   O21 4532   4.840   2.536  10.261  0.6540 -0.7398  0.1273
   34POPC   C21 4533   4.914   2.435  10.233  0.0011 -0.4647  0.1659
   34POPC   O22 4534   4.918   2.330  10.287 -0.5035  0.7257 -0.9835
   34POPC   C22 4535   4.997   2.476  10.113 -0.8343 -0.2044 -0.2456
   34POPC   H2R 4536   5.050   2.570  10.142  0.6300 -0.7686 -1.0093
   34POPC   H2S 4537   4.935   2.503  10.025 -0.6991  2.6948  0.4485
   34POPC    C3 4538   4.629   2.421  10.337 -0.2515  0.2041 -1.1913
   34POPC    HX 4539   4.586   2.418  10.440  2.6048  1.4475  0.1724
   34POPC    HY 4540   4.652   2.316  10.310  0.5962  0.1778 -0.4208
   34POPC   O31 4541   4.536   2.479  10.248  0.5322 -0.4617  0.4454
   34POPC   C31 4542   4.549   2.451  10.113  0.4062 -0.0192  0.2727
   34POPC   O32 4543   4.614   2.363  10.067 -0.5605  0.1441  0.5574
   34POPC   C32 4544   4.464   2.536  10.018  0.4833 -0.3049  0.6304
   34POPC   H2X 4545   4.504   2.640  10.013 -0.7104  0.1613  0.3531
   34POPC   H2Y 4546   4.355   2.546  10.035  0.2712  2.4864 -1.6162
   34POPC   C23 4547   5.089   2.357  10.075  0.1405  0.7390  0.2444
   34POPC   H3R 4548   5.132   2.322  10.171 -0.0170  0.2698  0.1440
   34POPC   H3S 4549   5.172   2.391  10.010  0.7388  0.4869  0.8664
   34POPC   C24 4550   5.003   2.248   9.998  0.3085 -0.4548 -0.0095
   34POPC   H4R 4551   4.944   2.293   9.915  0.8835 -0.0720 -0.2119
   34POPC   H4S 4552   4.926   2.198  10.062  0.3638  0.7027  0.9860
   34POPC   C25 4553   5.093   2.140   9.924  0.2632 -0.1198 -0.1579
   34POPC   H5R 4554   5.024   2.072   9.869 -0.3877  0.0487  0.4410
   34POPC   H5S 4555   5.154   2.089  10.002  1.4568 -1.8431 -2.0710
   34POPC   C26 4556   5.192   2.189   9.818 -0.5830 -0.4247 -0.3617
   34POPC   H6R 4557   5.256   2.268   9.860 -0.2865 -1.3049  0.8843
   34POPC   H6S 4558   5.128   2.222   9.732 -0.5052 -2.2969 -1.2016
   34POPC   C27 4559   5.282   2.079   9.756 -0.3040  0.2462 -0.5061
   34POPC   H7R 4560   5.358   2.053   9.833 -2.2353  1.7064  2.0530
   34POPC   H7S 4561   5.348   2.128   9.681  0.0904 -0.4836 -0.6510
   34POPC   C28 4562   5.212   1.947   9.718 -0.6150 -0.4739 -0.0833
   34POPC   H8R 4563   5.128   1.974   9.650  0.1958 -0.5914 -1.1548
   34POPC   H8S 4564   5.169   1.906   9.813 -2.0542 -0.0313 -0.5171
   34POPC   C29 4565   5.307   1.849   9.652  0.1317 -0.3372  0.2845
   34POPC   H91 4566   5.364   1.782   9.718  1.2335 -0.1504 -0.4456
   34POPC  C210 4567   5.336   1.834   9.521  0.2298  0.1575  0.2626
   34POPC  H101 4568   5.406   1.759   9.481 -0.0365 -0.1294  0.3332
   34POPC  C211 4569   5.275   1.917   9.414 -0.0222  0.0653  0.5266
   34POPC  H11R 4570   5.341   1.999   9.379 -1.0428  0.9211  0.5827
   34POPC  H11S 4571   5.177   1.961   9.440 -1.5717 -2.6056 -0.3145
   34POPC  C212 4572   5.242   1.828   9.286 -0.0134 -0.4375 -0.0757
   34POPC  H12R 4573   5.203   1.892   9.205  1.0184 -0.4699 -0.6219
   34POPC  H12S 4574   5.165   1.752   9.312  0.0867 -1.0632 -1.5235
   34POPC  C213 4575   5.370   1.763   9.216 -0.1305 -0.7574 -0.0395
   34POPC  H13R 4576   5.429   1.699   9.285 -1.5130 -0.1020  1.8308
   34POPC  H13S 4577   5.431   1.854   9.195  0.0003 -0.3423  1.9064
   34POPC  C214 4578   5.329   1.675   9.097  0.3603 -0.1709 -0.1777
   34POPC  H14R 4579   5.296   1.573   9.127 -0.0691  0.1002  0.2785
   34POPC  H14S 4580   5.429   1.662   9.050  0.8114 -1.4781  1.0735
   34POPC  C215 4581   5.234   1.753   9.003 -0.4050  0.1269  0.1251
   34POPC  H15R 4582   5.249   1.863   8.991  1.4077 -0.0177  0.7636
   34POPC  H15S 4583   5.138   1.759   9.059  0.7188  0.2104  2.1342
   34POPC  C216 4584   5.209   1.687   8.870 -0.1754  0.5221  0.3457
   34POPC  H16R 4585   5.207   1.578   8.893 -1.7895  0.6038  0.7222
   34POPC  H16S 4586   5.290   1.710   8.798 -1.2984 -1.7708 -1.8013
   34POPC  C217 4587   5.079   1.735   8.809  0.0178 -0.5406 -0.5394
   34POPC  H17R 4588   5.099   1.842   8.787  1.3079 -0.1128  2.3573
   34POPC  H17S 4589   4.996   1.731   8.882  0.0089 -1.1580 -0.5763
   34POPC  C218 4590   5.023   1.664   8.686 -0.3898  0.1087  0.7830
   34POPC  H18R 4591   5.006   1.555   8.697  0.1238 -0.3343 -1.9929
   34POPC  H18S 4592   5.086   1.683   8.596 -0.7129  0.4779  0.6312
   34POPC  H18T 4593   4.924   1.706   8.661  0.0930  0.0417 -1.4716
   34POPC   C33 4594   4.463   2.491   9.866 -0.0137  0.2106 -0.6632
   34POPC   H3X 4595   4.562   2.468   9.823  0.4120  0.8822 -0.0617
   34POPC   H3Y 4596   4.418   2.574   9.808 -0.1006  0.2281 -0.5713
   34POPC   C34 4597   4.370   2.368   9.858 -0.6530  0.0787 -0.0657
   34POPC   H4X 4598   4.265   2.403   9.869 -0.5086  0.1495  1.2752
   34POPC   H4Y 4599   4.402   2.304   9.942 -0.8335  1.4926  1.1238
   34POPC   C35 4600   4.385   2.305   9.724  0.0054  0.1052 -0.5652
   34POPC   H5X 4601   4.323   2.213   9.721 -0.4454  0.4279 -1.3095
   34POPC   H5Y 4602   4.495   2.288   9.713  0.5406  0.3010  3.1315
   34POPC   C36 4603   4.347   2.397   9.608  0.3449 -0.4223  0.3101
   34POPC   H6X 4604   4.429   2.470   9.593 -0.0263  0.0697  0.6634
   34POPC   H6Y 4605   4.244   2.432   9.632 -1.4543 -1.9001 -4.1484
   34POPC   C37 4606   4.328   2.310   9.480  0.3398 -0.5928 -0.0911
   34POPC   H7X 4607   4.241   2.363   9.437  1.2312  0.3698 -0.7709
   34POPC   H7Y 4608   4.307   2.202   9.487  1.1199 -0.8567 -1.4710
   34POPC   C38 4609   4.447   2.327   9.389 -0.8043  0.2079  0.5359
   34POPC   H8X 4610   4.538   2.286   9.438 -0.4762  2.5555  2.0688
   34POPC   H8Y 4611   4.468   2.436   9.380  1.0436  0.0033  1.7481
   34POPC   C39 4612   4.417   2.258   9.257 -0.0447 -0.4916 -0.1940
   34POPC   H9X 4613   4.339   2.318   9.206  1.3020  0.2501 -1.4840
   34POPC   H9Y 4614   4.371   2.159   9.277  1.2547 -1.3155 -1.1314
   34POPC  C310 4615   4.536   2.253   9.167 -0.3323 -0.4153  0.5700
   34POPC  H10X 4616   4.603   2.173   9.204 -1.1129 -1.9483 -1.1273
   34POPC  H10Y 4617   4.593   2.348   9.160 -0.0100 -0.6764 -0.4368
   34POPC  C311 4618   4.495   2.204   9.025 -0.3490  0.5214 -0.4862
   34POPC  H11X 4619   4.443   2.282   8.966 -1.1218  0.9337  0.7092
   34POPC  H11Y 4620   4.426   2.117   9.032 -0.1485  0.1635 -2.3225
   34POPC  C312 4621   4.618   2.149   8.943  0.4182  0.1884 -0.0414
   34POPC  H12X 4622   4.680   2.082   9.006  2.1552  0.3744 -1.4736
   34POPC  H12Y 4623   4.691   2.231   8.925  0.6425 -0.4017 -2.0447
   34POPC  C313 4624   4.575   2.079   8.818 -0.1972  0.3728 -0.4742
   34POPC  H13X 4625   4.540   2.162   8.753 -2.5873  2.1535  2.7612
   34POPC  H13Y 4626   4.485   2.015   8.828 -0.7686  1.0448 -1.1528
   34POPC  C314 4627   4.675   1.987   8.749  0.4199  0.8082 -0.0379
   34POPC  H14X 4628   4.698   1.893   8.803 -0.2642 -0.3824 -1.7582
   34POPC  H14Y 4629   4.763   2.054   8.736 -0.1778  1.3426 -1.4163
   34POPC  C315 4630   4.628   1.947   8.613 -0.2576 -0.1302 -0.5533
   34POPC  H15X 4631   4.520   1.920   8.611 -0.4319  0.5262 -0.2149
   34POPC  H15Y 4632   4.689   1.854   8.614  0.9428  0.5669  2.6932
   34POPC  C316 4633   4.655   2.042   8.491  0.1103 -0.6892 -0.0242
   34POPC  H16X 4634   4.616   2.144   8.513 -0.1701 -1.1514  1.7941
   34POPC  H16Y 4635   4.612   1.995   8.400 -2.1215 -1.4453  1.3374
   34POPC  H16Z 4636   4.764   2.059   8.478  0.1996 -0.6010  0.7540
   35POPC     N 4637   5.140   6.204  10.978 -0.4891 -0.6527 -0.0267
   35POPC   C12 4638   5.141   6.058  10.948 -0.3430 -0.1870 -0.2298
   35POPC  H12A 4639   5.102   6.006  11.034 -0.3843 -1.8028 -1.1908
   35POPC  H12B 4640   5.245   6.028  10.940 -0.4998 -0.4471 -1.7120
   35POPC   C13 4641   5.210   6.229  11.107 -0.2697  0.7134 -0.3226
   35POPC  H13A 4642   5.154   6.196  11.193  2.9944  1.0057  2.1150
   35POPC  H13B 4643   5.299   6.168  11.110 -0.3009  0.6836  0.1067
   35POPC  H13C 4644   5.232   6.333  11.123  2.5762  0.2636 -0.7459
   35POPC   C14 4645   5.212   6.282  10.871 -0.2185  0.3649 -1.4127
   35POPC  H14A 4646   5.162   6.282  10.775 -2.5066 -0.8007 -0.2950
   35POPC  H14B 4647   5.221   6.384  10.906  1.8375 -0.2099 -0.0750
   35POPC  H14C 4648   5.315   6.249  10.866  0.9233  2.7362  2.3600
   35POPC   C15 4649   5.003   6.265  10.977  0.3777 -0.2883  0.0385
   35POPC  H15A 4650   5.010   6.373  10.978  1.0078 -0.3178  1.9721
   35POPC  H15B 4651   4.942   6.239  11.062 -1.0708  3.4318  0.3244
   35POPC  H15C 4652   4.949   6.239  10.887 -2.3212  0.5690  1.2997
   35POPC   C11 4653   5.069   6.005  10.820 -0.1014  0.0198 -0.2211
   35POPC  H11A 4654   5.100   5.899  10.807  0.0568  0.0776 -0.3247
   35POPC  H11B 4655   5.111   6.056  10.731 -1.4794  1.4919 -0.0785
   35POPC     P 4656   4.840   5.900  10.876 -0.6277  0.0854  0.0211
   35POPC   O13 4657   4.694   5.936  10.868 -0.3831 -0.2333 -0.5016
   35POPC   O14 4658   4.888   5.872  11.015  0.0940  0.1384 -0.0964
   35POPC   O12 4659   4.930   6.026  10.823 -0.2309  0.6935  0.7995
   35POPC   O11 4660   4.873   5.773  10.784  0.1395 -0.0334  0.0715
   35POPC    C1 4661   4.805   5.773  10.651 -0.2687 -0.1274 -0.6396
   35POPC    HA 4662   4.766   5.873  10.621 -0.6126 -0.4666 -1.3394
   35POPC    HB 4663   4.712   5.712  10.650 -0.8997  0.7832 -2.6405
   35POPC    C2 4664   4.880   5.703  10.538 -1.1324 -0.2277  0.3206
   35POPC    HS 4665   4.980   5.747  10.523 -0.9482 -0.2855  1.3281
   35POPC   O21 4666   4.804   5.704  10.413 -0.4071  0.2813 -0.7627
   35POPC   C21 4667   4.784   5.825  10.361  0.1253 -0.1354  0.0399
   35POPC   O22 4668   4.841   5.928  10.398  0.2204  0.5855 -0.9095
   35POPC   C22 4669   4.686   5.813  10.246 -0.3630 -0.1273  0.3574
   35POPC   H2R 4670   4.581   5.829  10.279 -1.1853 -0.5743 -1.8597
   35POPC   H2S 4671   4.699   5.713  10.199 -0.2539 -0.2850  0.7228
   35POPC    C3 4672   4.910   5.553  10.569 -0.1677 -0.3026  0.2829
   35POPC    HX 4673   4.823   5.498  10.610  0.9850 -2.2993  0.1699
   35POPC    HY 4674   4.974   5.557  10.659 -0.7507 -0.0985  0.6982
   35POPC   O31 4675   4.977   5.478  10.464  0.3712 -0.7491  0.2386
   35POPC   C31 4676   4.890   5.425  10.377  0.5125  0.4099 -0.1108
   35POPC   O32 4677   4.770   5.434  10.380  0.1313 -0.1705 -0.0476
   35POPC   C32 4678   4.966   5.375  10.253  0.3560  0.2984 -0.2864
   35POPC   H2X 4679   4.939   5.267  10.244 -1.4359  0.7361 -0.7362
   35POPC   H2Y 4680   5.072   5.376  10.284 -0.0178  0.1269  1.0704
   35POPC   C23 4681   4.715   5.922  10.139  0.0907  0.7236 -0.3039
   35POPC   H3R 4682   4.826   5.931  10.136  0.0769  1.1823  0.2737
   35POPC   H3S 4683   4.691   6.022  10.181 -1.3377  0.8038 -1.2433
   35POPC   C24 4684   4.646   5.896  10.006 -0.4216 -0.1529  0.2806
   35POPC   H4R 4685   4.670   5.982   9.940 -0.5605  0.0322  0.4688
   35POPC   H4S 4686   4.537   5.908  10.017 -0.9612 -1.6666 -2.5863
   35POPC   C25 4687   4.683   5.757   9.939  0.3857 -0.0600  0.6804
   35POPC   H5R 4688   4.687   5.675  10.013  0.2939 -0.9066 -0.2305
   35POPC   H5S 4689   4.790   5.760   9.907 -0.3350  0.7833 -1.9252
   35POPC   C26 4690   4.594   5.727   9.818  0.2362  0.1202  1.0772
   35POPC   H6R 4691   4.485   5.730   9.838 -0.0705 -2.3141  0.1382
   35POPC   H6S 4692   4.614   5.623   9.783  2.8578  1.4182 -1.8069
   35POPC   C27 4693   4.620   5.811   9.691  0.3566 -0.3433  0.2869
   35POPC   H7R 4694   4.722   5.797   9.649 -0.5779  1.4052 -2.9419
   35POPC   H7S 4695   4.627   5.918   9.722  0.4837  0.0167 -0.8959
   35POPC   C28 4696   4.526   5.801   9.574  0.2052 -0.2374  0.4394
   35POPC   H8R 4697   4.508   5.692   9.564 -0.2987 -0.0554 -0.8572
   35POPC   H8S 4698   4.575   5.838   9.482  0.1925  2.0366  1.2811
   35POPC   C29 4699   4.398   5.887   9.597  0.0979  0.5193 -1.0327
   35POPC   H91 4700   4.390   5.942   9.692  1.1166  1.5642 -1.5191
   35POPC  C210 4701   4.287   5.871   9.518 -0.1555  0.1618 -0.0906
   35POPC  H101 4702   4.198   5.932   9.540 -0.1431  0.6242 -1.2643
   35POPC  C211 4703   4.271   5.779   9.403 -0.3294 -0.2667 -0.4352
   35POPC  H11R 4704   4.178   5.717   9.407 -0.3675 -0.1517  0.9926
   35POPC  H11S 4705   4.358   5.710   9.399  0.5806  0.5818  2.3013
   35POPC  C212 4706   4.267   5.854   9.266 -0.1556  0.3840  0.1510
   35POPC  H12R 4707   4.297   5.776   9.194  1.4936 -0.5988  1.8118
   35POPC  H12S 4708   4.334   5.943   9.263  1.5023 -0.8085  0.6174
   35POPC  C213 4709   4.124   5.899   9.204 -0.6716 -0.2192 -0.2573
   35POPC  H13R 4710   4.138   5.971   9.120  0.8084 -2.0848 -1.7046
   35POPC  H13S 4711   4.062   5.948   9.282  1.5775  0.1078  1.4368
   35POPC  C214 4712   4.040   5.784   9.152  0.4664 -0.0901 -0.5598
   35POPC  H14R 4713   4.010   5.722   9.239 -2.0782  3.7133  1.5906
   35POPC  H14S 4714   4.107   5.727   9.084  1.4511  0.4298 -0.0614
   35POPC  C215 4715   3.914   5.829   9.072  0.5883  0.5039  0.2020
   35POPC  H15R 4716   3.848   5.889   9.139 -0.1408 -0.6331  0.5347
   35POPC  H15S 4717   3.863   5.734   9.049  2.2397 -0.8022  1.5824
   35POPC  C216 4718   3.952   5.901   8.945  0.4169  0.0982  0.2960
   35POPC  H16R 4719   4.017   5.987   8.972 -1.7807  2.2083 -0.7366
   35POPC  H16S 4720   3.853   5.932   8.905 -0.0736 -0.0719  1.3529
   35POPC  C217 4721   4.016   5.812   8.834  0.1793 -0.0823  0.5538
   35POPC  H17R 4722   3.954   5.721   8.823  0.6115 -0.2335 -0.8121
   35POPC  H17S 4723   4.116   5.776   8.865  0.6656  0.4292 -0.3635
   35POPC  C218 4724   3.999   5.877   8.696  1.0442  0.2928  0.4396
   35POPC  H18R 4725   3.997   5.988   8.694 -2.4660  0.3453 -0.8247
   35POPC  H18S 4726   3.905   5.848   8.644  1.3367 -0.7317  0.4683
   35POPC  H18T 4727   4.069   5.841   8.618 -0.1714  0.3481 -0.7192
   35POPC   C33 4728   4.921   5.435  10.114  0.0243  0.0516 -0.0595
   35POPC   H3X 4729   4.988   5.400  10.032 -0.9627  1.1154 -1.3573
   35POPC   H3Y 4730   4.920   5.546  10.111 -2.0633  0.1389  1.8255
   35POPC   C34 4731   4.782   5.384  10.076 -0.4660  0.4460  0.4475
   35POPC   H4X 4732   4.713   5.454  10.128  0.6503  0.6802  1.6479
   35POPC   H4Y 4733   4.767   5.284  10.121  1.0875  0.7173  1.6492
   35POPC   C35 4734   4.754   5.364   9.927 -0.2078 -0.7811  0.5740
   35POPC   H5X 4735   4.837   5.292   9.910 -0.3810 -1.2253  1.5630
   35POPC   H5Y 4736   4.786   5.462   9.885 -0.5076 -0.5603  0.8596
   35POPC   C36 4737   4.617   5.320   9.885 -0.0282  0.3225  0.5632
   35POPC   H6X 4738   4.539   5.394   9.913 -0.0721  0.2719  0.5756
   35POPC   H6Y 4739   4.589   5.222   9.930  1.7092 -1.0933 -1.2276
   35POPC   C37 4740   4.603   5.304   9.737 -0.2998  0.9340 -0.0457
   35POPC   H7X 4741   4.679   5.230   9.704 -0.3661 -0.1163  1.9767
   35POPC   H7Y 4742   4.623   5.397   9.681 -1.7655  0.5040 -1.3714
   35POPC   C38 4743   4.473   5.229   9.695 -0.4053 -0.5492 -0.0618
   35POPC   H8X 4744   4.386   5.296   9.715  2.2983  3.2479  0.0989
   35POPC   H8Y 4745   4.445   5.152   9.769  0.0575 -1.4326 -0.7824
   35POPC   C39 4746   4.469   5.177   9.549 -0.4621 -0.4490  0.2748
   35POPC   H9X 4747   4.379   5.112   9.542 -1.8585  1.4707 -0.7197
   35POPC   H9Y 4748   4.565   5.135   9.514  0.7658  2.2223  0.2117
   35POPC  C310 4749   4.447   5.289   9.449 -0.2123 -0.3615 -0.1085
   35POPC  H10X 4750   4.534   5.358   9.442  0.0902 -0.7668 -0.3945
   35POPC  H10Y 4751   4.353   5.338   9.481 -0.7929 -2.0332  0.8444
   35POPC  C311 4752   4.412   5.239   9.306  0.0781 -0.6176  0.4499
   35POPC  H11X 4753   4.305   5.208   9.305 -0.0770 -0.1014 -1.0417
   35POPC  H11Y 4754   4.480   5.158   9.271  0.0749  0.2620 -1.7300
   35POPC  C312 4755   4.420   5.355   9.213 -0.4471  0.0289  0.8671
   35POPC  H12X 4756   4.527   5.367   9.188 -0.2877  1.1407  1.9768
   35POPC  H12Y 4757   4.380   5.442   9.269 -2.0387 -0.3613  0.3901
   35POPC  C313 4758   4.320   5.338   9.100  0.3608  0.1607  0.6746
   35POPC  H13X 4759   4.221   5.351   9.148 -0.5870 -0.4655 -1.0281
   35POPC  H13Y 4760   4.324   5.237   9.053 -2.4883  0.4710 -0.4267
   35POPC  C314 4761   4.337   5.444   8.995  0.2030 -0.3014  0.7324
   35POPC  H14X 4762   4.438   5.440   8.949 -1.7498  2.2226 -4.5510
   35POPC  H14Y 4763   4.325   5.546   9.039 -0.5982  0.3819 -0.9690
   35POPC  C315 4764   4.231   5.429   8.880 -0.3952 -0.9737 -0.3641
   35POPC  H15X 4765   4.137   5.470   8.922  1.2081 -0.4348  3.0041
   35POPC  H15Y 4766   4.211   5.326   8.843 -1.2343 -0.5048 -1.2636
   35POPC  C316 4767   4.271   5.520   8.760 -0.3239  0.5124 -0.0557
   35POPC  H16X 4768   4.380   5.515   8.741 -0.7027 -1.6766 -2.1705
   35POPC  H16Y 4769   4.252   5.626   8.785 -0.5831  0.5570 -0.4530
   35POPC  H16Z 4770   4.214   5.497   8.668 -0.9098  2.9601 -0.3570
   36POPC     N 4771   3.416   3.002  10.926  0.0505 -0.1227 -0.1968
   36POPC   C12 4772   3.444   3.049  10.783 -0.0039  0.2815  0.5355
   36POPC  H12A 4773   3.495   2.975  10.724  2.2781  1.4117  0.9922
   36POPC  H12B 4774   3.521   3.124  10.788  1.7579 -1.4629  1.0550
   36POPC   C13 4775   3.522   2.907  10.969 -0.5036 -0.2194 -0.0041
   36POPC  H13A 4776   3.502   2.865  11.066  0.9769 -0.9584  0.0006
   36POPC  H13B 4777   3.532   2.817  10.910  1.6390 -0.7563  1.0794
   36POPC  H13C 4778   3.616   2.960  10.969 -1.5480  1.7282  0.1222
   36POPC   C14 4779   3.413   3.115  11.021 -0.5395  0.5606  0.5216
   36POPC  H14A 4780   3.511   3.159  11.013  0.4111 -1.5494 -0.0499
   36POPC  H14B 4781   3.341   3.192  10.996  0.7420  1.3698 -0.8303
   36POPC  H14C 4782   3.387   3.093  11.123 -3.5189 -1.2970 -0.5047
   36POPC   C15 4783   3.288   2.933  10.928 -0.2077 -0.1462  0.7354
   36POPC  H15A 4784   3.268   2.886  11.023  2.1183  0.2751  1.5154
   36POPC  H15B 4785   3.297   2.859  10.850  1.2934  0.3395  0.4061
   36POPC  H15C 4786   3.207   2.996  10.893  1.4200 -0.4700 -4.4495
   36POPC   C11 4787   3.329   3.111  10.688  0.7724  0.1228 -0.0987
   36POPC  H11A 4788   3.257   3.028  10.677  1.9415 -1.0121  0.4835
   36POPC  H11B 4789   3.377   3.128  10.589  0.6703  1.2742  0.0355
   36POPC     P 4790   3.330   3.367  10.766  0.2473  0.3248 -0.1469
   36POPC   O13 4791   3.469   3.348  10.713  0.2749 -0.1133  0.0784
   36POPC   O14 4792   3.313   3.408  10.903  0.2906  0.7169  0.1136
   36POPC   O12 4793   3.268   3.222  10.754 -0.4104 -0.5885  0.0656
   36POPC   O11 4794   3.253   3.453  10.665 -0.9827 -0.7797  0.4964
   36POPC    C1 4795   3.115   3.428  10.634 -0.6892  0.2120 -0.0900
   36POPC    HA 4796   3.059   3.521  10.661  0.4915  0.7021  0.7206
   36POPC    HB 4797   3.074   3.341  10.689 -0.8220  0.9463  1.0145
   36POPC    C2 4798   3.089   3.385  10.486 -0.1617 -0.2860 -0.0565
   36POPC    HS 4799   3.125   3.280  10.480 -3.7687 -1.5775 -2.1879
   36POPC   O21 4800   3.164   3.469  10.399  0.3634  0.2312  0.5293
   36POPC   C21 4801   3.200   3.418  10.284  0.1398  0.2125 -0.0883
   36POPC   O22 4802   3.226   3.301  10.258  0.3609  0.3341  0.6782
   36POPC   C22 4803   3.222   3.535  10.191 -0.2943 -0.3936 -0.0729
   36POPC   H2R 4804   3.268   3.623  10.240  1.2484 -1.0481 -0.2894
   36POPC   H2S 4805   3.123   3.566  10.150 -0.4326 -2.9284 -1.9850
   36POPC    C3 4806   2.944   3.379  10.452  0.3283  0.2704 -0.7026
   36POPC    HX 4807   2.894   3.477  10.438 -1.0843 -0.5538 -1.6962
   36POPC    HY 4808   2.890   3.335  10.539 -1.0192  0.3017 -1.4904
   36POPC   O31 4809   2.925   3.289  10.348  0.3151 -0.0787  0.0593
   36POPC   C31 4810   2.873   3.347  10.237  0.0925  0.5439 -0.0119
   36POPC   O32 4811   2.839   3.466  10.228  0.3313 -0.2107 -0.3683
   36POPC   C32 4812   2.853   3.243  10.132 -0.3366 -0.1220  0.2326
   36POPC   H2X 4813   2.756   3.191  10.149 -0.4367 -0.4002 -1.0518
   36POPC   H2Y 4814   2.937   3.171  10.133 -1.7232 -1.8048 -0.0003
   36POPC   C23 4815   3.307   3.474  10.070  0.0217  0.8135 -0.8708
   36POPC   H3R 4816   3.259   3.381  10.031 -1.3903  1.2725 -0.2863
   36POPC   H3S 4817   3.410   3.442  10.098 -0.0765  0.0912 -1.3163
   36POPC   C24 4818   3.333   3.573   9.958  0.1247  0.0658 -0.6445
   36POPC   H4R 4819   3.401   3.652   9.997 -0.8146  1.2224 -1.2733
   36POPC   H4S 4820   3.245   3.620   9.909  0.1125  1.6922  0.7914
   36POPC   C25 4821   3.390   3.499   9.838 -1.2547 -0.2905  0.4089
   36POPC   H5R 4822   3.336   3.411   9.798  1.6915 -0.8286 -2.8934
   36POPC   H5S 4823   3.493   3.470   9.869 -1.2987  0.6731  1.5033
   36POPC   C26 4824   3.420   3.583   9.710 -0.2893 -0.7648 -0.7709
   36POPC   H6R 4825   3.519   3.633   9.719 -0.6426 -0.4185  3.5155
   36POPC   H6S 4826   3.335   3.654   9.709  1.5360  1.8452  3.0040
   36POPC   C27 4827   3.428   3.495   9.580  0.3638  0.4297  0.0942
   36POPC   H7R 4828   3.347   3.418   9.590  0.4237  0.4612  0.8813
   36POPC   H7S 4829   3.524   3.440   9.589  0.2420  0.5510  3.5832
   36POPC   C28 4830   3.419   3.580   9.454  0.3641 -0.1614  0.0965
   36POPC   H8R 4831   3.476   3.537   9.369  0.4318  0.4548 -0.1733
   36POPC   H8S 4832   3.460   3.680   9.479  0.8216  0.2009 -1.9413
   36POPC   C29 4833   3.275   3.594   9.418  0.8250 -0.0886 -0.2324
   36POPC   H91 4834   3.213   3.652   9.487 -3.6414 -0.2555 -3.6757
   36POPC  C210 4835   3.214   3.555   9.308 -0.6553  0.2103  0.2626
   36POPC  H101 4836   3.105   3.573   9.303 -1.1701 -2.4292  0.6303
   36POPC  C211 4837   3.277   3.489   9.191  0.2211 -0.2371 -0.0209
   36POPC  H11R 4838   3.388   3.495   9.195  0.1563  0.6693  2.0178
   36POPC  H11S 4839   3.237   3.533   9.097 -2.4205 -0.3754  0.9539
   36POPC  C212 4840   3.231   3.344   9.186 -0.4618 -0.1932  0.4033
   36POPC  H12R 4841   3.121   3.335   9.175 -0.3420  0.8120 -2.1725
   36POPC  H12S 4842   3.274   3.288   9.272  0.4359  0.0051  0.0948
   36POPC  C213 4843   3.284   3.284   9.054  0.4627  0.1369 -0.4390
   36POPC  H13R 4844   3.395   3.287   9.060  0.5330 -1.8079 -0.2894
   36POPC  H13S 4845   3.252   3.327   8.957  2.1394 -0.0238 -1.0888
   36POPC  C214 4846   3.239   3.139   9.057 -0.4040  0.0451  0.5192
   36POPC  H14R 4847   3.129   3.134   9.046 -0.3430 -1.2440  0.2899
   36POPC  H14S 4848   3.264   3.083   9.149 -1.1460 -1.4423 -0.1514
   36POPC  C215 4849   3.309   3.059   8.933  0.4031 -0.4988 -0.8655
   36POPC  H15R 4850   3.413   3.091   8.912  1.2394 -3.8686 -2.7344
   36POPC  H15S 4851   3.238   3.091   8.853  0.3785  3.1962  0.4864
   36POPC  C216 4852   3.308   2.910   8.953  0.2777  0.6097 -0.4806
   36POPC  H16R 4853   3.211   2.880   8.996  2.3773 -0.8329  3.7317
   36POPC  H16S 4854   3.384   2.885   9.030  0.8667  1.0545 -0.9073
   36POPC  C217 4855   3.353   2.820   8.837 -1.0060 -0.8247 -0.0749
   36POPC  H17R 4856   3.279   2.811   8.755 -0.8332  0.5076 -0.4019
   36POPC  H17S 4857   3.368   2.717   8.877  0.6117 -0.4879  0.2439
   36POPC  C218 4858   3.482   2.859   8.763  0.2391 -0.7240  0.0424
   36POPC  H18R 4859   3.489   2.967   8.738 -1.9649  0.1204  2.5242
   36POPC  H18S 4860   3.471   2.805   8.667 -1.1320 -0.8767  0.2647
   36POPC  H18T 4861   3.575   2.821   8.810  0.7115  1.1717  0.7597
   36POPC   C33 4862   2.854   3.287   9.982  0.1054  0.6368  0.4390
   36POPC   H3X 4863   2.775   3.364   9.965  1.3178  1.3657 -2.4943
   36POPC   H3Y 4864   2.835   3.200   9.916  1.0952  1.8188 -1.4898
   36POPC   C34 4865   2.992   3.345   9.937 -0.4301  0.0762  0.4122
   36POPC   H4X 4866   3.069   3.270   9.963 -0.9188 -0.3503  0.6434
   36POPC   H4Y 4867   3.022   3.436   9.993  2.2373  1.0366 -2.2696
   36POPC   C35 4868   3.005   3.361   9.788  0.2503  0.2257  0.4632
   36POPC   H5X 4869   2.986   3.266   9.734 -2.6356  0.2918  1.2190
   36POPC   H5Y 4870   3.111   3.387   9.768  0.3673  0.2840  1.1630
   36POPC   C36 4871   2.923   3.481   9.731  0.0356 -0.6109 -0.0373
   36POPC   H6X 4872   2.981   3.564   9.775  1.8261 -2.1377  0.6474
   36POPC   H6Y 4873   2.817   3.471   9.763  0.8594  1.3674  3.8593
   36POPC   C37 4874   2.923   3.490   9.580  0.2569  0.0117  0.3572
   36POPC   H7X 4875   3.029   3.497   9.548  0.3505 -3.0227 -0.2841
   36POPC   H7Y 4876   2.876   3.584   9.541 -0.9064 -1.4547 -2.0481
   36POPC   C38 4877   2.863   3.370   9.508 -0.1063 -0.1052 -0.0688
   36POPC   H8X 4878   2.760   3.350   9.545  0.0913  1.6496  1.6079
   36POPC   H8Y 4879   2.925   3.285   9.543  1.0620  0.4370 -0.7643
   36POPC   C39 4880   2.868   3.372   9.353 -0.0512 -0.0994 -0.5181
   36POPC   H9X 4881   2.854   3.272   9.308 -1.5629  0.1019 -0.5387
   36POPC   H9Y 4882   2.970   3.404   9.324 -0.2156  2.8098  1.6388
   36POPC  C310 4883   2.763   3.475   9.292  0.0302  1.1494 -0.4704
   36POPC  H10X 4884   2.783   3.575   9.335 -0.2635  0.6651  0.8157
   36POPC  H10Y 4885   2.660   3.450   9.324  0.4748 -1.4159 -0.7754
   36POPC  C311 4886   2.777   3.481   9.142 -0.2785  0.7240 -0.1562
   36POPC  H11X 4887   2.759   3.385   9.089  1.2155  0.3614 -0.0377
   36POPC  H11Y 4888   2.876   3.526   9.122  0.9106 -0.5984  2.2606
   36POPC  C312 4889   2.681   3.586   9.080 -0.2505 -0.7357 -0.7376
   36POPC  H12X 4890   2.713   3.584   8.974 -1.0679 -0.8159 -0.9909
   36POPC  H12Y 4891   2.687   3.690   9.121  2.5532 -0.7852 -0.8529
   36POPC  C313 4892   2.535   3.536   9.083 -0.1732  1.4414 -0.2297
   36POPC  H13X 4893   2.502   3.527   9.189 -1.1742  1.6624 -0.5122
   36POPC  H13Y 4894   2.530   3.429   9.051 -1.1598  1.1195  0.9367
   36POPC  C314 4895   2.435   3.618   9.003 -0.7695  0.2500  0.1626
   36POPC  H14X 4896   2.406   3.712   9.056  0.9757  1.4519 -0.8764
   36POPC  H14Y 4897   2.345   3.555   8.994 -0.8592  0.6861 -2.7882
   36POPC  C315 4898   2.481   3.651   8.854 -0.1166 -0.3416 -1.5395
   36POPC  H15X 4899   2.546   3.564   8.827 -0.7346 -0.7671 -1.6765
   36POPC  H15Y 4900   2.533   3.749   8.848 -1.0013  0.1150 -1.9408
   36POPC  C316 4901   2.361   3.666   8.760  0.1213 -0.2847 -0.5869
   36POPC  H16X 4902   2.404   3.669   8.658  0.8276 -2.0381 -0.3895
   36POPC  H16Y 4903   2.295   3.754   8.775 -2.2924 -1.9888 -0.6977
   36POPC  H16Z 4904   2.286   3.584   8.763 -0.3019 -0.0466 -3.0878
   37POPC     N 4905   3.249   5.193   6.563 -0.0541 -0.9291 -0.2593
   37POPC   C12 4906   3.196   5.316   6.632 -0.4884  0.4969 -0.5407
   37POPC  H12A 4907   3.171   5.389   6.556  0.9815  1.8923  0.2467
   37POPC  H12B 4908   3.274   5.357   6.694 -0.9072 -0.2926  0.5508
   37POPC   C13 4909   3.299   5.093   6.663  0.3049 -0.3801 -0.2059
   37POPC  H13A 4910   3.382   5.141   6.714  0.6414  2.1614 -2.8844
   37POPC  H13B 4911   3.214   5.077   6.728 -0.4963 -1.9477 -1.5644
   37POPC  H13C 4912   3.331   5.000   6.619 -0.3072 -0.8204  0.2637
   37POPC   C14 4913   3.145   5.132   6.471  0.2780 -0.4130  0.0074
   37POPC  H14A 4914   3.131   5.201   6.390  1.5033  0.1908  0.2783
   37POPC  H14B 4915   3.173   5.036   6.430  2.2089 -0.3527  1.0499
   37POPC  H14C 4916   3.049   5.133   6.521 -0.0877 -0.4002 -0.6798
   37POPC   C15 4917   3.374   5.232   6.486  0.4383  0.5047  0.7435
   37POPC  H15A 4918   3.355   5.300   6.404 -0.4735 -0.5285  0.0638
   37POPC  H15B 4919   3.411   5.150   6.425  0.9791  1.3705 -0.1341
   37POPC  H15C 4920   3.461   5.259   6.543  0.9679 -0.9624  0.6881
   37POPC   C11 4921   3.076   5.304   6.737  0.5441  1.0851  0.6201
   37POPC  H11A 4922   3.064   5.397   6.796  0.0825  0.5750  1.3486
   37POPC  H11B 4923   3.090   5.214   6.801 -0.6821  0.2139 -0.2729
   37POPC     P 4924   2.880   5.387   6.570  0.2720 -0.5842 -0.4909
   37POPC   O13 4925   2.759   5.327   6.510  0.2498 -0.2194 -0.1335
   37POPC   O14 4926   2.981   5.448   6.480  0.5608  0.1066 -0.1312
   37POPC   O12 4927   2.955   5.276   6.654 -0.4020 -0.4635 -0.3804
   37POPC   O11 4928   2.839   5.504   6.670  0.3226 -0.0384  0.0208
   37POPC    C1 4929   2.743   5.472   6.773  0.1820  0.1629 -0.6086
   37POPC    HA 4930   2.747   5.363   6.792  0.6108  0.3530  0.4279
   37POPC    HB 4931   2.651   5.509   6.723 -0.4171  1.8227  1.6102
   37POPC    C2 4932   2.758   5.561   6.897 -0.2739  0.4672 -0.2105
   37POPC    HS 4933   2.810   5.654   6.865  0.5064  0.6265  1.3881
   37POPC   O21 4934   2.829   5.484   6.986 -0.3639 -0.3490  0.3404
   37POPC   C21 4935   2.951   5.537   7.025 -0.1091  0.2824  0.0896
   37POPC   O22 4936   2.999   5.638   6.980  0.0744  0.0364  0.4445
   37POPC   C22 4937   3.021   5.452   7.123  0.7199  0.4631 -0.0065
   37POPC   H2R 4938   3.078   5.385   7.055  1.1174  0.6305  0.1569
   37POPC   H2S 4939   2.955   5.393   7.190 -0.4777 -0.3487 -1.8335
   37POPC    C3 4940   2.622   5.600   6.957 -0.0349  0.3220  0.2463
   37POPC    HX 4941   2.581   5.503   6.994  0.7671 -0.4233 -0.7361
   37POPC    HY 4942   2.544   5.633   6.887 -0.3526  1.6099  1.1675
   37POPC   O31 4943   2.636   5.692   7.073 -0.0408 -0.0067 -0.7114
   37POPC   C31 4944   2.605   5.821   7.047  0.2504 -0.5040  0.0800
   37POPC   O32 4945   2.567   5.861   6.937  0.6540 -0.0672  0.2850
   37POPC   C32 4946   2.602   5.898   7.175  0.4900 -0.3739 -0.6784
   37POPC   H2X 4947   2.497   5.934   7.175  0.3308 -0.8187 -1.6380
   37POPC   H2Y 4948   2.668   5.985   7.156  1.3758 -0.7878  0.3500
   37POPC   C23 4949   3.118   5.540   7.205 -0.2095  0.2482 -0.3055
   37POPC   H3R 4950   3.173   5.611   7.140 -3.3420  0.7723 -2.6718
   37POPC   H3S 4951   3.185   5.465   7.252  0.5260  0.2356 -1.3353
   37POPC   C24 4952   3.047   5.626   7.322  0.3984  0.5382  0.0410
   37POPC   H4R 4953   2.956   5.573   7.356  0.0683  1.4010  0.5214
   37POPC   H4S 4954   3.020   5.729   7.292 -0.7461  0.0337 -0.7376
   37POPC   C25 4955   3.141   5.633   7.447  0.3580  0.2624  0.5025
   37POPC   H5R 4956   3.146   5.740   7.476 -2.3678  0.0897  1.9892
   37POPC   H5S 4957   3.242   5.590   7.429 -0.3995 -1.8616  1.0597
   37POPC   C26 4958   3.084   5.559   7.572 -0.3661  0.3689  0.2936
   37POPC   H6R 4959   3.080   5.456   7.530 -1.7808  1.7477 -3.3766
   37POPC   H6S 4960   2.978   5.589   7.586 -0.5214  1.0363 -1.8778
   37POPC   C27 4961   3.154   5.567   7.710  0.5034  0.3469 -0.3808
   37POPC   H7R 4962   3.259   5.535   7.692  0.5093  1.5459 -2.9344
   37POPC   H7S 4963   3.112   5.503   7.791 -0.1520  0.8577 -0.3126
   37POPC   C28 4964   3.139   5.714   7.768  0.8621  0.1367 -0.0926
   37POPC   H8R 4965   3.194   5.787   7.705  3.6159 -0.3161  1.5728
   37POPC   H8S 4966   3.203   5.708   7.860  1.4025  3.2191 -0.1655
   37POPC   C29 4967   2.998   5.747   7.805  0.0860 -0.6892 -0.4411
   37POPC   H91 4968   2.939   5.786   7.720  2.6539 -1.7472 -2.8438
   37POPC  C210 4969   2.940   5.720   7.922 -0.1099 -0.5200  0.2717
   37POPC  H101 4970   2.835   5.752   7.918  0.5392  1.7747  0.1822
   37POPC  C211 4971   2.992   5.642   8.038 -0.1147 -0.5056 -0.6337
   37POPC  H11R 4972   3.076   5.583   7.994 -0.7405 -3.0936  1.3683
   37POPC  H11S 4973   2.926   5.556   8.062 -1.8815  0.0900 -3.0536
   37POPC  C212 4974   3.034   5.739   8.149 -0.2495 -0.7090 -0.6299
   37POPC  H12R 4975   2.945   5.790   8.190  1.3871 -0.3199  2.7367
   37POPC  H12S 4976   3.114   5.814   8.128  0.5499 -1.4404 -0.2169
   37POPC  C213 4977   3.084   5.661   8.272  0.1142  0.3472  0.1904
   37POPC  H13R 4978   2.993   5.607   8.307  0.8662 -0.1161  1.5041
   37POPC  H13S 4979   3.110   5.736   8.350  0.0039  0.0538  0.5110
   37POPC  C214 4980   3.198   5.560   8.248 -0.0118 -0.0468 -0.2124
   37POPC  H14R 4981   3.297   5.609   8.239  0.7746 -1.7379 -1.1284
   37POPC  H14S 4982   3.195   5.505   8.152  3.6554 -0.5568 -0.1578
   37POPC  C215 4983   3.206   5.460   8.363 -1.4327  0.1965  0.9445
   37POPC  H15R 4984   3.113   5.400   8.358 -0.3502 -1.5871  0.9917
   37POPC  H15S 4985   3.214   5.529   8.450  2.4865  0.7744  0.3198
   37POPC  C216 4986   3.337   5.369   8.370 -0.2939  0.2875 -0.3468
   37POPC  H16R 4987   3.425   5.433   8.353 -1.0805  0.8185 -2.8806
   37POPC  H16S 4988   3.344   5.286   8.295 -1.0517 -0.3117  0.2216
   37POPC  C217 4989   3.338   5.294   8.507  0.3537  0.3390  0.3767
   37POPC  H17R 4990   3.237   5.256   8.531  0.0237  2.0820  2.0048
   37POPC  H17S 4991   3.374   5.350   8.595  1.8616 -0.8474  0.5678
   37POPC  C218 4992   3.433   5.170   8.495  0.4727 -0.7646 -0.7542
   37POPC  H18R 4993   3.436   5.118   8.593  1.5467  0.0924 -0.3164
   37POPC  H18S 4994   3.535   5.191   8.458  0.8089 -1.1560 -0.0682
   37POPC  H18T 4995   3.387   5.088   8.436  2.1500 -2.0029 -0.4063
   37POPC   C33 4996   2.631   5.836   7.314 -0.5675 -0.2718 -0.1625
   37POPC   H3X 4997   2.737   5.806   7.332 -0.5427 -0.4805 -0.6269
   37POPC   H3Y 4998   2.568   5.747   7.335  1.3447 -0.9922  3.2752
   37POPC   C34 4999   2.599   5.937   7.429 -0.6384 -0.2638 -0.2459
   37POPC   H4X 5000   2.506   5.995   7.412  0.0890  0.2454 -3.0581
   37POPC   H4Y 5001   2.676   6.018   7.428 -2.1522  1.2403 -1.7394
   37POPC   C35 5002   2.602   5.869   7.561 -0.3549  0.1145 -0.7713
   37POPC   H5X 5003   2.696   5.812   7.577  0.5129  1.9321  1.1747
   37POPC   H5Y 5004   2.514   5.801   7.565  0.1469 -0.5207 -0.4212
   37POPC   C36 5005   2.599   5.966   7.677  0.1640  0.1509  0.2392
   37POPC   H6X 5006   2.522   6.045   7.659  0.6018  0.1924 -1.5599
   37POPC   H6Y 5007   2.702   6.004   7.665  0.1648  1.1706  2.8108
   37POPC   C37 5008   2.593   5.883   7.803 -0.5690  0.6076  0.2627
   37POPC   H7X 5009   2.674   5.808   7.789 -2.8062 -1.9503  0.1034
   37POPC   H7Y 5010   2.503   5.818   7.804  0.8534 -1.4846  1.5845
   37POPC   C38 5011   2.607   5.962   7.935 -0.6831  0.3446 -0.4542
   37POPC   H8X 5012   2.624   5.892   8.019 -0.0040 -0.6297 -1.3763
   37POPC   H8Y 5013   2.515   6.024   7.943 -0.1017  1.1506  0.0833
   37POPC   C39 5014   2.722   6.067   7.933 -0.3612  0.6739  0.3336
   37POPC   H9X 5015   2.695   6.140   7.854  1.1906 -2.4357 -3.3674
   37POPC   H9Y 5016   2.811   6.007   7.906 -1.8357 -1.9392  0.9284
   37POPC  C310 5017   2.744   6.135   8.068  0.0488  0.1301 -0.4290
   37POPC  H10X 5018   2.760   6.051   8.138  2.0242  1.4424  0.7719
   37POPC  H10Y 5019   2.657   6.188   8.112 -0.7645  1.0769 -3.0040
   37POPC  C311 5020   2.869   6.227   8.080 -0.3308 -0.8007  0.1005
   37POPC  H11X 5021   2.858   6.323   8.025 -1.2408 -0.3540  1.0369
   37POPC  H11Y 5022   2.950   6.181   8.020 -0.2223  0.2290 -0.5732
   37POPC  C312 5023   2.925   6.252   8.217 -0.3556 -0.6943  0.0740
   37POPC  H12X 5024   3.020   6.307   8.203 -0.3618 -0.9920 -1.3191
   37POPC  H12Y 5025   2.956   6.152   8.255  0.1256 -0.1534  1.1632
   37POPC  C313 5026   2.835   6.321   8.319  0.2761  0.4731 -0.2121
   37POPC  H13X 5027   2.750   6.253   8.338 -0.8674  1.4130 -1.7252
   37POPC  H13Y 5028   2.809   6.419   8.274  2.4455  0.3760 -1.8306
   37POPC  C314 5029   2.906   6.358   8.450  0.2996  0.6380 -0.2824
   37POPC  H14X 5030   2.991   6.427   8.430  1.0433 -0.5964 -1.6081
   37POPC  H14Y 5031   2.949   6.270   8.502 -2.1085  0.0377  0.8038
   37POPC  C315 5032   2.811   6.438   8.549  0.1054 -0.0158 -0.8524
   37POPC  H15X 5033   2.712   6.390   8.565 -0.3585  1.7711  2.9472
   37POPC  H15Y 5034   2.778   6.531   8.498 -1.0704  2.3058  3.6115
   37POPC  C316 5035   2.860   6.472   8.692 -0.3863 -0.1588  0.0825
   37POPC  H16X 5036   2.768   6.516   8.737  1.2504  1.5853  1.8950
   37POPC  H16Y 5037   2.946   6.540   8.702  0.3944 -1.0827 -0.2251
   37POPC  H16Z 5038   2.885   6.379   8.748  1.1283  0.6309  0.7413
   38POPC     N 5039   6.392   2.663   6.066  0.4246 -0.2515  0.7281
   38POPC   C12 5040   6.448   2.616   6.194 -0.3626  0.0687 -0.2588
   38POPC  H12A 5041   6.476   2.698   6.258 -0.6726  0.9892 -1.2688
   38POPC  H12B 5042   6.541   2.566   6.171 -0.4766 -0.5133  0.5114
   38POPC   C13 5043   6.332   2.549   5.979  0.4049 -0.4899 -0.3258
   38POPC  H13A 5044   6.399   2.465   5.969  1.1057 -0.3832  2.7215
   38POPC  H13B 5045   6.251   2.502   6.033  0.9401 -1.3686 -0.2810
   38POPC  H13C 5046   6.307   2.579   5.878 -0.1512 -2.9974 -1.0036
   38POPC   C14 5047   6.291   2.765   6.086 -0.0350 -0.0507 -0.2153
   38POPC  H14A 5048   6.217   2.733   6.157  0.8734 -0.5698  0.5279
   38POPC  H14B 5049   6.341   2.852   6.127  0.9445  0.0625 -1.5481
   38POPC  H14C 5050   6.242   2.794   5.994 -1.5470 -2.7152 -0.3402
   38POPC   C15 5051   6.504   2.730   5.983  0.0984 -0.7720  0.4070
   38POPC  H15A 5052   6.569   2.662   5.931 -0.9447  0.0565 -2.1593
   38POPC  H15B 5053   6.556   2.802   6.044  0.8543  0.4796 -1.5988
   38POPC  H15C 5054   6.453   2.779   5.900 -0.8917 -2.7208 -0.2133
   38POPC   C11 5055   6.365   2.514   6.277 -0.0530  0.3135 -0.0109
   38POPC  H11A 5056   6.422   2.497   6.371 -0.5014  0.3538  0.2711
   38POPC  H11B 5057   6.373   2.417   6.224  0.0829 -0.9620  2.2327
   38POPC     P 5058   6.192   2.640   6.428  0.2864  0.3372 -0.1768
   38POPC   O13 5059   6.133   2.545   6.523  0.2437 -0.0665  0.2675
   38POPC   O14 5060   6.111   2.755   6.395  0.4784  0.0443 -0.9293
   38POPC   O12 5061   6.230   2.550   6.305 -0.3930  0.1570  0.2552
   38POPC   O11 5062   6.326   2.702   6.475  0.3536 -0.2504  0.6003
   38POPC    C1 5063   6.330   2.791   6.590 -0.8049 -0.2372 -0.2348
   38POPC    HA 5064   6.232   2.841   6.601 -0.8057  0.3444 -2.3600
   38POPC    HB 5065   6.414   2.864   6.578 -1.0982  0.2562  0.6822
   38POPC    C2 5066   6.365   2.713   6.723  0.0193 -0.2210  0.7198
   38POPC    HS 5067   6.292   2.630   6.738  0.5587 -0.3635  2.7614
   38POPC   O21 5068   6.369   2.799   6.841  0.4808  0.0395  0.4836
   38POPC   C21 5069   6.249   2.823   6.895 -0.0621  0.0625  0.8104
   38POPC   O22 5070   6.144   2.773   6.862  0.3932  0.4151 -0.1312
   38POPC   C22 5071   6.260   2.932   7.011 -0.1403 -0.4911 -0.4824
   38POPC   H2R 5072   6.295   3.022   6.956  1.9892  0.0818  1.5950
   38POPC   H2S 5073   6.333   2.906   7.092 -1.4871 -0.7084  0.7055
   38POPC    C3 5074   6.505   2.645   6.704 -0.1429  0.8924  0.4516
   38POPC    HX 5075   6.584   2.722   6.692  2.9458 -2.3252 -2.6058
   38POPC    HY 5076   6.506   2.586   6.609  0.3549 -1.2233  1.7048
   38POPC   O31 5077   6.542   2.549   6.807  0.5110  0.7793  0.1303
   38POPC   C31 5078   6.662   2.526   6.834 -0.8864  0.4224 -0.1012
   38POPC   O32 5079   6.764   2.563   6.776 -0.0559  0.1280 -0.1753
   38POPC   C32 5080   6.681   2.452   6.963  0.1890  0.6084 -0.3722
   38POPC   H2X 5081   6.594   2.434   7.030  2.2751 -0.1717  2.2991
   38POPC   H2Y 5082   6.750   2.508   7.029 -0.6619  0.8264  0.3576
   38POPC   C23 5083   6.128   2.960   7.085 -0.2806  0.2337 -0.1826
   38POPC   H3R 5084   6.040   2.958   7.017 -0.6572 -2.4017  0.2804
   38POPC   H3S 5085   6.130   3.058   7.136  1.9582  0.7837 -1.2148
   38POPC   C24 5086   6.105   2.857   7.202  0.3590 -0.5708 -0.0958
   38POPC   H4R 5087   6.124   2.755   7.162  2.7710  0.2857 -1.3229
   38POPC   H4S 5088   5.999   2.865   7.237 -0.5401 -1.0035 -2.5357
   38POPC   C25 5089   6.203   2.869   7.320  0.1369  0.2273 -0.2238
   38POPC   H5R 5090   6.195   2.966   7.374 -2.2509  1.5225 -2.6591
   38POPC   H5S 5091   6.307   2.867   7.281  0.3598 -1.6441  0.3676
   38POPC   C26 5092   6.191   2.764   7.428  0.1832  0.3794  0.3502
   38POPC   H6R 5093   6.209   2.660   7.392 -0.8561  0.3847 -0.2147
   38POPC   H6S 5094   6.088   2.766   7.471  0.5800  0.8721  1.3071
   38POPC   C27 5095   6.297   2.783   7.537 -0.5602 -0.0503 -0.6136
   38POPC   H7R 5096   6.283   2.890   7.564  0.4532  0.1174 -0.7112
   38POPC   H7S 5097   6.397   2.783   7.488  0.7112  1.1715  1.8036
   38POPC   C28 5098   6.279   2.693   7.665  0.1444 -0.0460  0.0423
   38POPC   H8R 5099   6.368   2.707   7.730 -0.4914 -2.3854  1.5204
   38POPC   H8S 5100   6.275   2.593   7.617 -1.3037  0.0471 -0.0856
   38POPC   C29 5101   6.158   2.716   7.743  0.3991  0.5954 -0.3450
   38POPC   H91 5102   6.063   2.720   7.687 -0.7351 -0.9589  1.3378
   38POPC  C210 5103   6.136   2.702   7.878 -0.4493  0.1336 -0.1861
   38POPC  H101 5104   6.035   2.704   7.922 -1.2874 -0.6482 -1.9560
   38POPC  C211 5105   6.244   2.671   7.983 -0.1960 -0.2948  0.3962
   38POPC  H11R 5106   6.250   2.757   8.052  0.2471  0.8985 -1.0889
   38POPC  H11S 5107   6.348   2.651   7.949  1.3330  2.3070  3.0894
   38POPC  C212 5108   6.205   2.557   8.081  0.1689 -0.7999 -0.1795
   38POPC  H12R 5109   6.196   2.465   8.019 -0.5512 -2.4536  2.2373
   38POPC  H12S 5110   6.103   2.569   8.122 -0.1352  0.6762 -1.3147
   38POPC  C213 5111   6.306   2.523   8.192 -0.4382 -0.7412 -0.0562
   38POPC  H13R 5112   6.293   2.433   8.257  1.3906 -1.3658 -0.4977
   38POPC  H13S 5113   6.286   2.605   8.265 -2.0949 -2.5510  1.6523
   38POPC  C214 5114   6.461   2.523   8.154  0.2703 -1.0207 -0.0759
   38POPC  H14R 5115   6.505   2.513   8.256  1.5960 -2.0030 -0.7063
   38POPC  H14S 5116   6.495   2.620   8.111  0.6788 -1.6034 -1.1006
   38POPC  C215 5117   6.495   2.402   8.073 -0.3245  0.0639 -0.3547
   38POPC  H15R 5118   6.467   2.434   7.970 -0.3064  3.7495  0.6533
   38POPC  H15S 5119   6.426   2.321   8.105 -0.4832  0.0408 -0.7461
   38POPC  C216 5120   6.636   2.361   8.082 -0.0256 -0.1852  0.9244
   38POPC  H16R 5121   6.652   2.331   8.188 -2.9055  0.8362  1.7385
   38POPC  H16S 5122   6.705   2.443   8.051 -3.0901  1.5077 -2.1135
   38POPC  C217 5123   6.671   2.235   8.000  0.1351  0.9011 -0.0553
   38POPC  H17R 5124   6.610   2.150   8.037  1.0928 -0.1862 -0.8653
   38POPC  H17S 5125   6.778   2.220   8.026 -0.2772  0.2569  1.3585
   38POPC  C218 5126   6.662   2.247   7.854  0.2466  0.2746  0.8037
   38POPC  H18R 5127   6.716   2.161   7.809  0.3640  1.1623 -0.8359
   38POPC  H18S 5128   6.728   2.328   7.816  0.2334  1.8682  3.8621
   38POPC  H18T 5129   6.562   2.261   7.808 -0.1106 -0.1544  1.4409
   38POPC   C33 5130   6.745   2.314   6.939 -0.3853  0.2904  0.0526
   38POPC   H3X 5131   6.827   2.329   6.865 -0.2611 -2.7696 -0.5887
   38POPC   H3Y 5132   6.672   2.240   6.902  1.3456 -0.4796 -2.0256
   38POPC   C34 5133   6.820   2.265   7.064  0.0584  0.6490  0.8144
   38POPC   H4X 5134   6.875   2.351   7.107 -1.7338  1.4694  1.5805
   38POPC   H4Y 5135   6.896   2.193   7.028 -0.7752  0.5738 -0.8990
   38POPC   C35 5136   6.730   2.206   7.167  0.0410  0.4561  0.5199
   38POPC   H5X 5137   6.642   2.160   7.117 -0.6896  3.8948 -1.7595
   38POPC   H5Y 5138   6.684   2.285   7.230  1.1474  0.8385  0.8560
   38POPC   C36 5139   6.796   2.110   7.266 -0.2468  0.3664  0.9592
   38POPC   H6X 5140   6.878   2.053   7.217 -0.6361 -0.2383  0.9994
   38POPC   H6Y 5141   6.720   2.036   7.299 -0.5867 -1.6329 -3.6185
   38POPC   C37 5142   6.851   2.183   7.390 -0.2189  0.2126 -0.0046
   38POPC   H7X 5143   6.763   2.218   7.448 -2.1107  0.2702 -2.7205
   38POPC   H7Y 5144   6.918   2.263   7.350 -0.1080  0.4506  0.6410
   38POPC   C38 5145   6.942   2.099   7.482 -0.2550  0.3757  0.7531
   38POPC   H8X 5146   7.018   2.058   7.413 -0.2182  2.0179 -0.2397
   38POPC   H8Y 5147   6.888   2.010   7.522  2.4109 -1.6262  0.2212
   38POPC   C39 5148   7.005   2.180   7.596 -0.6119 -0.8946  0.2843
   38POPC   H9X 5149   6.921   2.226   7.652  0.6400  3.1758 -0.7676
   38POPC   H9Y 5150   7.063   2.266   7.555 -0.8767 -0.3910  0.9471
   38POPC  C310 5151   7.089   2.096   7.684  0.3686  0.2868 -0.0406
   38POPC  H10X 5152   7.175   2.058   7.625 -0.5990 -1.5444 -0.3339
   38POPC  H10Y 5153   7.018   2.014   7.708  1.7110 -1.2167 -1.0450
   38POPC  C311 5154   7.149   2.152   7.812  0.4136 -0.1596 -0.4971
   38POPC  H11X 5155   7.085   2.184   7.897  2.6038  6.0701 -0.6434
   38POPC  H11Y 5156   7.211   2.240   7.783  0.1754 -0.2667 -1.3567
   38POPC  C312 5157   7.265   2.056   7.866  0.0679 -0.1290  0.1686
   38POPC  H12X 5158   7.340   2.037   7.787  0.6429  2.6975 -0.0661
   38POPC  H12Y 5159   7.214   1.961   7.891 -1.1278  0.5938  0.5801
   38POPC  C313 5160   7.327   2.107   7.994 -0.5683 -0.5413  0.5411
   38POPC  H13X 5161   7.351   2.216   7.988 -2.4979 -0.0902  0.5480
   38POPC  H13Y 5162   7.421   2.052   8.019 -0.1050  0.3247  0.7548
   38POPC  C314 5163   7.233   2.060   8.108  0.3409 -0.8225 -0.4868
   38POPC  H14X 5164   7.213   1.950   8.107 -1.6171 -0.5358  1.1723
   38POPC  H14Y 5165   7.135   2.112   8.096  0.9035  0.0773 -1.3178
   38POPC  C315 5166   7.277   2.091   8.255  0.5827  0.9644  0.1575
   38POPC  H15X 5167   7.290   2.202   8.256  3.3052  0.7072  0.2259
   38POPC  H15Y 5168   7.373   2.041   8.276 -1.2593 -3.4490 -0.9168
   38POPC  C316 5169   7.164   2.061   8.364  0.9587  0.2442  0.6749
   38POPC  H16X 5170   7.182   2.116   8.460  1.6953  1.9254 -0.3741
   38POPC  H16Y 5171   7.158   1.953   8.387  0.4362 -0.1062 -1.0513
   38POPC  H16Z 5172   7.068   2.104   8.330  0.2035 -2.2878 -0.6188
   39POPC     N 5173   0.646   5.808   5.636  0.0624 -0.1696 -0.3578
   39POPC   C12 5174   0.498   5.805   5.611  0.0900  0.3349  0.5746
   39POPC  H12A 5175   0.454   5.715   5.650 -0.6795 -0.0045 -0.9863
   39POPC  H12B 5176   0.482   5.787   5.506  0.2539 -2.4974  0.9585
   39POPC   C13 5177   0.694   5.943   5.595 -0.5512 -0.4253 -0.0399
   39POPC  H13A 5178   0.797   5.958   5.621 -0.6611 -0.8305  0.6264
   39POPC  H13B 5179   0.687   5.965   5.489  3.2194  3.3713  0.2265
   39POPC  H13C 5180   0.622   6.017   5.629 -2.3592 -1.6556 -0.9875
   39POPC   C14 5181   0.683   5.783   5.778  0.0649 -0.1369  0.0653
   39POPC  H14A 5182   0.642   5.690   5.815  0.6714 -1.7363 -2.9966
   39POPC  H14B 5183   0.791   5.783   5.784  0.1664 -2.9287 -0.0883
   39POPC  H14C 5184   0.641   5.858   5.843  0.1740 -1.2721  1.5166
   39POPC   C15 5185   0.717   5.701   5.557  0.5685 -0.0627  0.6368
   39POPC  H15A 5186   0.693   5.694   5.452 -2.6843  0.1879  1.2469
   39POPC  H15B 5187   0.683   5.607   5.596 -1.3310  0.4674  0.3533
   39POPC  H15C 5188   0.824   5.710   5.571  0.8196 -0.2493 -1.0204
   39POPC   C11 5189   0.405   5.927   5.648 -0.5027  0.2312 -0.0998
   39POPC  H11A 5190   0.307   5.906   5.602 -2.2827  0.1130  3.4435
   39POPC  H11B 5191   0.445   6.022   5.607 -0.0684  1.2349  2.4725
   39POPC     P 5192   0.284   5.861   5.870  0.0595 -0.0277 -0.0535
   39POPC   O13 5193   0.287   5.726   5.821  0.2004  0.3976  0.6929
   39POPC   O14 5194   0.160   5.941   5.859 -0.0410  0.4066 -0.2774
   39POPC   O12 5195   0.408   5.939   5.798  0.3126 -0.1027 -0.2918
   39POPC   O11 5196   0.322   5.863   6.022 -0.2074  0.2618 -0.4504
   39POPC    C1 5197   0.451   5.890   6.076 -0.1825  0.1861 -0.7449
   39POPC    HA 5198   0.500   5.969   6.015  1.2220  1.2989  1.6930
   39POPC    HB 5199   0.518   5.803   6.060  2.5943  1.7476  1.5016
   39POPC    C2 5200   0.443   5.936   6.228  0.4176 -0.6032 -0.1296
   39POPC    HS 5201   0.538   5.994   6.238  0.2999 -0.2018 -1.1876
   39POPC   O21 5202   0.431   5.825   6.311 -0.1535 -0.1802 -0.2675
   39POPC   C21 5203   0.530   5.809   6.397  0.5108 -0.3775 -0.1599
   39POPC   O22 5204   0.630   5.879   6.405 -0.0265 -0.2252 -0.2510
   39POPC   C22 5205   0.499   5.680   6.479 -0.2205  0.2208 -0.1144
   39POPC   H2R 5206   0.505   5.598   6.404  1.7061  3.5999 -4.0168
   39POPC   H2S 5207   0.393   5.678   6.513  0.1047  1.6143  1.0612
   39POPC    C3 5208   0.327   6.034   6.259 -0.0269  0.0074  0.9763
   39POPC    HX 5209   0.226   5.988   6.265 -0.2230  0.4574  1.1845
   39POPC    HY 5210   0.329   6.096   6.167  0.0953  0.7815  1.4862
   39POPC   O31 5211   0.349   6.127   6.363 -0.5807 -0.3539  0.2833
   39POPC   C31 5212   0.330   6.076   6.493 -0.1211  0.3938  0.0845
   39POPC   O32 5213   0.293   5.964   6.510 -0.1423  0.4352  0.6562
   39POPC   C32 5214   0.333   6.187   6.595 -0.3889  0.2918  0.2521
   39POPC   H2X 5215   0.438   6.223   6.590 -1.1673  2.6765 -0.0505
   39POPC   H2Y 5216   0.262   6.269   6.575 -1.8070 -0.8016  0.6607
   39POPC   C23 5217   0.587   5.664   6.597  0.0688  0.7304 -0.8068
   39POPC   H3R 5218   0.693   5.679   6.569  0.8863 -1.1382  1.0301
   39POPC   H3S 5219   0.586   5.560   6.635  0.6705  0.8262 -0.5237
   39POPC   C24 5220   0.556   5.756   6.722  0.1717 -0.0990  0.4161
   39POPC   H4R 5221   0.453   5.742   6.762  0.4928 -1.8425  0.6993
   39POPC   H4S 5222   0.562   5.861   6.688  3.1175 -0.0620  0.8200
   39POPC   C25 5223   0.645   5.722   6.839  0.4136  0.0166  0.1567
   39POPC   H5R 5224   0.743   5.774   6.830  0.0701  0.6330 -0.0800
   39POPC   H5S 5225   0.650   5.611   6.842 -2.2850 -0.2565 -1.4340
   39POPC   C26 5226   0.593   5.774   6.977 -0.2058 -0.1365 -0.2443
   39POPC   H6R 5227   0.487   5.741   6.988  0.1269 -1.7800 -1.5483
   39POPC   H6S 5228   0.588   5.885   6.980  0.0383 -0.1297 -0.0869
   39POPC   C27 5229   0.661   5.698   7.096  0.2877  0.2053  0.3820
   39POPC   H7R 5230   0.770   5.695   7.077  0.2334  0.2652  0.0621
   39POPC   H7S 5231   0.634   5.591   7.091  3.3185 -0.6439  0.1159
   39POPC   C28 5232   0.609   5.765   7.223 -0.0105 -0.6410 -0.2297
   39POPC   H8R 5233   0.504   5.740   7.248 -0.2108 -0.7232 -1.1212
   39POPC   H8S 5234   0.613   5.874   7.201  0.2349 -0.5509  0.2500
   39POPC   C29 5235   0.705   5.735   7.338 -0.2533 -0.7456  0.2440
   39POPC   H91 5236   0.800   5.689   7.305  0.4677  2.6361 -3.0987
   39POPC  C210 5237   0.683   5.760   7.467  0.6870 -0.6184 -0.3918
   39POPC  H101 5238   0.763   5.743   7.541 -0.4833 -1.2239  0.7888
   39POPC  C211 5239   0.557   5.831   7.514  0.1035  0.0024 -0.4969
   39POPC  H11R 5240   0.498   5.876   7.431 -1.5449  1.0821  1.1685
   39POPC  H11S 5241   0.584   5.911   7.586 -0.2727 -0.6179  0.3638
   39POPC  C212 5242   0.473   5.727   7.597 -0.3272 -0.0755  0.0289
   39POPC  H12R 5243   0.442   5.647   7.526  1.6706  0.2640 -1.2839
   39POPC  H12S 5244   0.388   5.790   7.631 -0.3953 -0.0885 -0.1160
   39POPC  C213 5245   0.546   5.676   7.720 -0.7348  0.4144 -0.5503
   39POPC  H13R 5246   0.571   5.763   7.784 -0.2384  0.7724 -1.2159
   39POPC  H13S 5247   0.649   5.639   7.700  0.2838  2.0819  1.2698
   39POPC  C214 5248   0.467   5.573   7.803 -0.1376 -0.4319  0.2982
   39POPC  H14R 5249   0.454   5.489   7.731  2.1737  1.1406 -2.1510
   39POPC  H14S 5250   0.375   5.623   7.841 -0.1835 -0.9287  0.8559
   39POPC  C215 5251   0.545   5.531   7.938 -0.1117  0.1259 -0.8873
   39POPC  H15R 5252   0.559   5.627   7.992  0.0788  0.5972 -1.7547
   39POPC  H15S 5253   0.643   5.481   7.923  0.0398  0.4639 -1.0295
   39POPC  C216 5254   0.458   5.449   8.029  0.0381  0.1978  0.8315
   39POPC  H16R 5255   0.501   5.419   8.127  2.9720  0.4604 -0.2766
   39POPC  H16S 5256   0.427   5.358   7.973  0.3134  0.9874 -0.6803
   39POPC  C217 5257   0.327   5.525   8.072 -0.0734  0.2114  0.4674
   39POPC  H17R 5258   0.251   5.498   7.995  1.3469 -2.5192 -0.0786
   39POPC  H17S 5259   0.336   5.635   8.058  1.0143 -0.2478 -3.8518
   39POPC  C218 5260   0.266   5.492   8.209  0.0569  0.0682  0.2223
   39POPC  H18R 5261   0.213   5.588   8.229  1.1981  0.7046  0.2483
   39POPC  H18S 5262   0.349   5.470   8.279  1.2486  2.8548 -0.1858
   39POPC  H18T 5263   0.181   5.421   8.202  0.4157 -0.3364 -0.0950
   39POPC   C33 5264   0.310   6.134   6.740  0.0437 -0.2581  0.0228
   39POPC   H3X 5265   0.371   6.194   6.811  0.2654  0.1324 -0.4958
   39POPC   H3Y 5266   0.356   6.033   6.753  1.1512  0.3510  1.0768
   39POPC   C34 5267   0.164   6.146   6.786  0.0886  0.4458  0.3038
   39POPC   H4X 5268   0.088   6.110   6.714  2.1921 -1.4864 -1.0894
   39POPC   H4Y 5269   0.144   6.254   6.802 -1.2382  0.3202 -0.4583
   39POPC   C35 5270   0.137   6.078   6.915  0.1643 -0.1645 -0.2666
   39POPC   H5X 5271   0.220   6.100   6.985  0.1055 -3.5895  1.1077
   39POPC   H5Y 5272   0.133   5.968   6.901  1.3621 -0.8238  3.4282
   39POPC   C36 5273   0.003   6.112   6.971  0.0658  0.6602 -0.5241
   39POPC   H6X 5274  -0.080   6.076   6.906  0.6421  2.4970 -2.3996
   39POPC   H6Y 5275  -0.002   6.223   6.981 -1.8229  0.4545  1.3342
   39POPC   C37 5276   0.003   6.052   7.118 -0.5343  0.0860  0.2764
   39POPC   H7X 5277   0.103   6.074   7.160 -0.1254 -0.5002 -0.3636
   39POPC   H7Y 5278  -0.004   5.941   7.114  0.9742 -0.0440  0.6622
   39POPC   C38 5279  -0.099   6.107   7.219  0.0668 -0.7415 -0.4778
   39POPC   H8X 5280  -0.201   6.071   7.196 -1.7362  2.3242  1.8970
   39POPC   H8Y 5281  -0.096   6.218   7.233 -0.5801 -0.7057 -0.6172
   39POPC   C39 5282  -0.075   6.046   7.354  0.7115  0.6498  0.1786
   39POPC   H9X 5283   0.033   6.056   7.379  0.2223 -0.6323  3.2724
   39POPC   H9Y 5284  -0.108   5.940   7.349 -2.3092  1.5508 -1.0767
   39POPC  C310 5285  -0.148   6.116   7.469  0.0798  0.7495  0.2288
   39POPC  H10X 5286  -0.255   6.112   7.439 -0.6722  3.9380  2.0695
   39POPC  H10Y 5287  -0.126   6.224   7.466  1.7090  0.4282 -0.6555
   39POPC  C311 5288  -0.117   6.069   7.613 -0.3706 -0.1181  0.6477
   39POPC  H11X 5289  -0.123   5.958   7.618  3.2856 -0.4902 -0.4473
   39POPC  H11Y 5290  -0.193   6.116   7.680 -1.0012 -1.7039  1.0817
   39POPC  C312 5291   0.032   6.092   7.665 -0.5460  0.0185 -0.3738
   39POPC  H12X 5292   0.038   6.197   7.701  1.7306 -0.3637  0.4970
   39POPC  H12Y 5293   0.114   6.076   7.592  1.0144 -1.2612  1.5617
   39POPC  C313 5294   0.059   6.004   7.791 -1.3588  0.7664  0.0952
   39POPC  H13X 5295   0.043   5.896   7.773 -0.7197  0.6015  0.4922
   39POPC  H13Y 5296  -0.013   6.029   7.871 -1.7142  1.2770 -0.3721
   39POPC  C314 5297   0.204   6.020   7.843  0.2421  0.1467  0.0729
   39POPC  H14X 5298   0.219   6.124   7.878  1.0980 -0.0942  0.4419
   39POPC  H14Y 5299   0.281   6.003   7.765 -0.1077  0.1898 -0.2858
   39POPC  C315 5300   0.218   5.926   7.961 -0.9590 -0.5703 -0.4037
   39POPC  H15X 5301   0.215   5.823   7.921  0.0079 -0.3017 -1.2040
   39POPC  H15Y 5302   0.140   5.946   8.038  0.9788 -0.2250  1.5674
   39POPC  C316 5303   0.361   5.939   8.029  0.1140 -0.4537  0.1192
   39POPC  H16X 5304   0.445   5.912   7.962  0.8535 -0.1186  0.9000
   39POPC  H16Y 5305   0.373   5.870   8.115  0.7015 -1.4296 -0.7305
   39POPC  H16Z 5306   0.387   6.043   8.060 -2.2682  0.0803  0.5488
   40POPC     N 5307   0.894   3.843   5.861  0.3974  0.3133  0.2865
   40POPC   C12 5308   0.758   3.874   5.935 -0.6169  0.1313 -0.3333
   40POPC  H12A 5309   0.684   3.812   5.887  0.1342 -0.7331 -0.4021
   40POPC  H12B 5310   0.744   3.981   5.938  2.6552  0.6713  1.6295
   40POPC   C13 5311   0.937   3.702   5.889  0.2087 -0.2740 -0.5560
   40POPC  H13A 5312   1.039   3.687   5.857 -0.4317 -3.4902 -1.5224
   40POPC  H13B 5313   0.919   3.683   5.994  1.9161  0.6591 -0.0681
   40POPC  H13C 5314   0.873   3.635   5.832 -2.5658  0.0879  1.8857
   40POPC   C14 5315   0.873   3.865   5.711  0.1146  0.8987 -0.0240
   40POPC  H14A 5316   0.789   3.804   5.681 -0.4443  1.1572  0.9569
   40POPC  H14B 5317   0.847   3.968   5.692 -3.2559  0.9487  3.4317
   40POPC  H14C 5318   0.950   3.843   5.639 -1.4646 -1.3718 -1.1204
   40POPC   C15 5319   1.003   3.928   5.899 -0.2922  1.3916  0.9414
   40POPC  H15A 5320   0.990   3.946   6.004  0.5668 -0.8161  1.4619
   40POPC  H15B 5321   1.001   4.025   5.851  2.4967  0.4748 -1.3253
   40POPC  H15C 5322   1.101   3.886   5.883 -0.6508  0.0661  2.0385
   40POPC   C11 5323   0.747   3.839   6.086  0.6041  0.2452  0.6313
   40POPC  H11A 5324   0.765   3.730   6.097 -2.8403 -0.5771 -0.7996
   40POPC  H11B 5325   0.639   3.848   6.106  0.1793 -2.9581  0.1785
   40POPC     P 5326   0.804   4.048   6.248 -0.3114  0.0500 -0.0835
   40POPC   O13 5327   0.782   4.157   6.154  0.0321  0.1598  0.2685
   40POPC   O14 5328   0.908   4.056   6.355  0.1498 -0.6383  0.4148
   40POPC   O12 5329   0.833   3.919   6.170  0.4327 -0.4184  0.2817
   40POPC   O11 5330   0.658   4.009   6.307 -0.2038 -0.3613  0.5582
   40POPC    C1 5331   0.651   3.912   6.409 -0.8624 -0.8602 -0.5284
   40POPC    HA 5332   0.711   3.820   6.390 -3.0128 -2.2842 -0.7967
   40POPC    HB 5333   0.549   3.869   6.408 -0.6947 -1.3623  1.1526
   40POPC    C2 5334   0.655   3.979   6.552 -0.4324 -0.1519  0.3141
   40POPC    HS 5335   0.591   4.069   6.554  2.8425  2.3660  0.6618
   40POPC   O21 5336   0.796   4.009   6.583  0.3921  0.1698 -0.2577
   40POPC   C21 5337   0.806   4.115   6.659 -0.3446 -0.5138  0.1050
   40POPC   O22 5338   0.717   4.187   6.696 -0.2545 -0.0709  0.0366
   40POPC   C22 5339   0.947   4.147   6.703  0.2262 -0.2905  0.1307
   40POPC   H2R 5340   0.985   4.218   6.627 -2.1396  1.7471  0.7136
   40POPC   H2S 5341   1.012   4.057   6.710 -0.0840 -0.4526  1.1300
   40POPC    C3 5342   0.592   3.885   6.660  0.4017  0.0217 -0.5745
   40POPC    HX 5343   0.654   3.793   6.649  0.4983  0.0984 -0.6735
   40POPC    HY 5344   0.491   3.852   6.626 -0.3902  1.9340 -0.2323
   40POPC   O31 5345   0.606   3.942   6.791  0.0503  0.2804  0.1632
   40POPC   C31 5346   0.499   3.994   6.829  0.0494  0.3004 -0.1941
   40POPC   O32 5347   0.391   4.000   6.771  0.7668  0.2130 -0.2519
   40POPC   C32 5348   0.524   4.039   6.974 -0.4710  0.3573 -0.4689
   40POPC   H2X 5349   0.590   4.128   6.964  2.3657 -1.5299  0.3138
   40POPC   H2Y 5350   0.584   3.958   7.021  1.4751  0.9608 -1.7776
   40POPC   C23 5351   0.951   4.201   6.848 -0.1767  0.0286 -0.1726
   40POPC   H3R 5352   0.885   4.288   6.866  0.2251  0.7081 -1.7782
   40POPC   H3S 5353   1.053   4.242   6.867 -0.1730  0.0030 -0.1379
   40POPC   C24 5354   0.936   4.092   6.952  0.1972 -0.5686  0.0792
   40POPC   H4R 5355   1.023   4.023   6.952 -0.9219 -2.0394  0.1397
   40POPC   H4S 5356   0.860   4.017   6.922 -1.3320  0.0408  2.1956
   40POPC   C25 5357   0.913   4.135   7.097 -0.3411  0.8789 -0.0459
   40POPC   H5R 5358   0.819   4.193   7.113 -1.2926 -1.1127  2.2140
   40POPC   H5S 5359   0.994   4.208   7.116  0.3350 -0.2363  1.5504
   40POPC   C26 5360   0.923   4.016   7.202  0.2548  1.2577  0.0737
   40POPC   H6R 5361   1.027   3.978   7.200 -0.1094  0.1428  1.1016
   40POPC   H6S 5362   0.845   3.938   7.189 -0.0755  1.5902  0.0130
   40POPC   C27 5363   0.910   4.064   7.345  0.3829 -0.2927 -0.3523
   40POPC   H7R 5364   0.800   4.074   7.351  0.2295 -1.7285 -0.4006
   40POPC   H7S 5365   0.948   4.169   7.349  0.2658 -0.2552 -0.1983
   40POPC   C28 5366   0.968   3.974   7.458  0.2638 -0.1648  1.8688
   40POPC   H8R 5367   1.079   3.977   7.447  0.0856 -0.8051 -0.6793
   40POPC   H8S 5368   0.937   3.869   7.442  1.6145 -0.3341  0.0687
   40POPC   C29 5369   0.912   4.021   7.587 -0.3991 -0.6259 -0.4958
   40POPC   H91 5370   0.804   4.034   7.601 -0.2556 -1.2264  1.6047
   40POPC  C210 5371   0.984   4.046   7.693 -0.0827 -0.4766 -0.5084
   40POPC  H101 5372   0.919   4.098   7.766  0.1552  0.8720 -1.2321
   40POPC  C211 5373   1.131   4.028   7.719 -0.4320  0.1939  0.5627
   40POPC  H11R 5374   1.186   4.119   7.749  0.5150 -0.2896  0.3328
   40POPC  H11S 5375   1.182   3.995   7.626 -1.5676 -0.9619  0.3152
   40POPC  C212 5376   1.165   3.906   7.815 -0.0228  0.6338  0.2083
   40POPC  H12R 5377   1.275   3.887   7.807 -0.4028 -1.0031 -4.0100
   40POPC  H12S 5378   1.117   3.816   7.772 -0.0750  1.2039 -0.9902
   40POPC  C213 5379   1.114   3.918   7.953 -0.2651 -0.6493  0.2027
   40POPC  H13R 5380   1.003   3.920   7.953 -0.2867 -0.1213 -1.9104
   40POPC  H13S 5381   1.157   4.011   7.997  0.3043 -0.1902 -1.2577
   40POPC  C214 5382   1.149   3.787   8.024  0.3425 -0.1280  0.1585
   40POPC  H14R 5383   1.258   3.768   8.007  0.3971  1.0458 -1.0044
   40POPC  H14S 5384   1.093   3.705   7.973  1.1458  0.0968 -1.1563
   40POPC  C215 5385   1.118   3.777   8.169  0.3463  0.2992 -1.1527
   40POPC  H15R 5386   1.192   3.852   8.205 -0.8720  2.6478 -3.1985
   40POPC  H15S 5387   1.128   3.671   8.200 -1.1676  0.8258  1.4626
   40POPC  C216 5388   0.975   3.830   8.210 -0.0192  0.2946 -0.6404
   40POPC  H16R 5389   0.900   3.779   8.146  0.1113 -0.0470 -0.5229
   40POPC  H16S 5390   0.980   3.940   8.192  1.3658  0.5948  1.2073
   40POPC  C217 5391   0.950   3.796   8.361 -0.6000 -0.0451 -0.1321
   40POPC  H17R 5392   1.028   3.851   8.418  1.3745 -0.3639 -2.3766
   40POPC  H17S 5393   0.967   3.687   8.375  0.8796  0.1003 -0.5880
   40POPC  C218 5394   0.821   3.852   8.431  0.4017 -0.5286 -0.5614
   40POPC  H18R 5395   0.802   3.812   8.533  0.1168  0.6614 -0.1327
   40POPC  H18S 5396   0.734   3.827   8.367 -0.2101  0.2388 -0.0501
   40POPC  H18T 5397   0.822   3.963   8.437  1.6213 -0.4746 -1.3558
   40POPC   C33 5398   0.397   4.064   7.048  0.0645 -0.4716  0.5256
   40POPC   H3X 5399   0.325   3.980   7.053  0.4209 -0.7429  1.1912
   40POPC   H3Y 5400   0.340   4.149   7.004 -1.3102 -1.6317 -0.0298
   40POPC   C34 5401   0.430   4.093   7.197  0.1966 -0.2169  0.6171
   40POPC   H4X 5402   0.336   4.128   7.245 -1.9575 -1.7582 -2.0738
   40POPC   H4Y 5403   0.513   4.166   7.195  0.0714 -0.0866 -0.7532
   40POPC   C35 5404   0.449   3.962   7.275  0.8245  0.6071  0.0001
   40POPC   H5X 5405   0.552   3.927   7.253  0.4331  0.5459 -1.8618
   40POPC   H5Y 5406   0.386   3.877   7.241  1.3718  0.2723 -0.1899
   40POPC   C36 5407   0.404   3.970   7.426  0.3147 -0.4569 -0.3800
   40POPC   H6X 5408   0.430   3.878   7.482 -1.1619 -1.2789 -1.0005
   40POPC   H6Y 5409   0.294   3.976   7.415  0.0021 -0.1256  2.2879
   40POPC   C37 5410   0.456   4.096   7.493  0.1822 -0.5102 -0.5730
   40POPC   H7X 5411   0.432   4.194   7.446  3.0845  1.1982  1.1770
   40POPC   H7Y 5412   0.566   4.096   7.484  0.0628 -0.5365 -2.2538
   40POPC   C38 5413   0.417   4.083   7.639 -0.3544 -0.4034 -0.2038
   40POPC   H8X 5414   0.310   4.054   7.644 -0.0060 -1.7744 -0.5559
   40POPC   H8Y 5415   0.421   4.188   7.677 -0.2807 -0.3483 -0.3625
   40POPC   C39 5416   0.511   3.985   7.716 -0.1618 -0.3242 -0.4571
   40POPC   H9X 5417   0.605   4.043   7.731 -0.1428 -0.3609 -0.4355
   40POPC   H9Y 5418   0.536   3.893   7.659 -0.4479 -1.5194  1.2997
   40POPC  C310 5419   0.452   3.956   7.859  0.3708  0.5735 -0.2242
   40POPC  H10X 5420   0.356   3.906   7.831  0.5010  0.2981 -0.1809
   40POPC  H10Y 5421   0.429   4.033   7.936 -3.2572 -0.9181  0.4270
   40POPC  C311 5422   0.516   3.824   7.919  0.1788  0.3695 -0.0816
   40POPC  H11X 5423   0.619   3.845   7.954  0.8807 -1.1188 -1.1698
   40POPC  H11Y 5424   0.531   3.749   7.838  0.5978 -0.4867  0.7686
   40POPC  C312 5425   0.427   3.765   8.037 -0.5222 -0.1408  0.3944
   40POPC  H12X 5426   0.320   3.756   8.011 -0.0038 -1.8943 -1.4034
   40POPC  H12Y 5427   0.442   3.838   8.119  0.5764 -0.5336  0.5639
   40POPC  C313 5428   0.486   3.626   8.080 -0.1212 -0.0102  0.2094
   40POPC  H13X 5429   0.597   3.631   8.072 -0.0810  3.0172  1.3591
   40POPC  H13Y 5430   0.472   3.553   7.997  1.1134  1.5032 -1.4201
   40POPC  C314 5431   0.426   3.593   8.221  0.2795 -0.5305 -0.5361
   40POPC  H14X 5432   0.317   3.575   8.210 -0.1974  2.2997 -1.0344
   40POPC  H14Y 5433   0.440   3.689   8.275 -0.6145 -0.4221 -0.4922
   40POPC  C315 5434   0.501   3.485   8.297 -0.2438  0.2582  0.4932
   40POPC  H15X 5435   0.611   3.500   8.286 -0.3042 -1.0438 -3.9054
   40POPC  H15Y 5436   0.472   3.387   8.253  1.4643  0.1920 -0.5889
   40POPC  C316 5437   0.480   3.499   8.446  0.2718  0.0238  0.0838
   40POPC  H16X 5438   0.549   3.426   8.494  2.9582 -0.0205 -3.4064
   40POPC  H16Y 5439   0.376   3.472   8.473  0.3731 -0.8008 -0.3260
   40POPC  H16Z 5440   0.497   3.604   8.480  0.0662  0.1869 -0.3156
   41CHL1    C3 5441   6.058   2.639   9.985 -0.1380  0.7354 -0.1205
   41CHL1    H3 5442   6.167   2.625  10.004 -0.1755 -0.2647 -0.6135
   41CHL1    O3 5443   5.987   2.609  10.106 -0.1825  0.5693  0.5890
   41CHL1   H3' 5444   5.945   2.528  10.079  3.3713 -0.5241 -2.6214
   41CHL1    C4 5445   6.020   2.781   9.948  0.2040  0.5550  0.0040
   41CHL1   H4A 5446   5.909   2.779   9.949  0.1923 -2.0154  1.1576
   41CHL1   H4B 5447   6.048   2.845  10.034 -0.8136  0.2793  0.5556
   41CHL1    C5 5448   6.068   2.824   9.813 -0.2412 -1.1366  0.2702
   41CHL1    C6 5449   6.151   2.929   9.802  0.1898  0.9646 -0.6223
   41CHL1    H6 5450   6.182   2.996   9.883  0.1893  1.5527 -1.1035
   41CHL1    C7 5451   6.226   2.955   9.674  0.4276  0.3037  0.8828
   41CHL1   H7A 5452   6.227   3.064   9.652 -1.3454  0.1800  0.0351
   41CHL1   H7B 5453   6.333   2.930   9.690  0.3799  0.1559  0.9700
   41CHL1    C8 5454   6.166   2.895   9.550  0.8713 -0.1380 -0.2127
   41CHL1    H8 5455   6.070   2.944   9.523  0.1777 -0.6682  1.2137
   41CHL1   C14 5456   6.252   2.917   9.428 -0.3157  0.7668 -0.7973
   41CHL1   H14 5457   6.347   2.865   9.456 -1.3856 -0.9072 -0.1467
   41CHL1   C15 5458   6.311   3.052   9.394  0.4529 -0.1201 -0.6711
   41CHL1  H15A 5459   6.222   3.119   9.397  1.1601  0.8893 -1.2674
   41CHL1  H15B 5460   6.386   3.091   9.466 -0.0190  1.4545 -0.9860
   41CHL1   C16 5461   6.361   3.059   9.256  0.1337 -0.0631  0.4399
   41CHL1  H16A 5462   6.300   3.130   9.196  1.0799 -0.1663 -0.6666
   41CHL1  H16B 5463   6.468   3.088   9.258  0.5544 -1.0558 -2.5398
   41CHL1   C17 5464   6.315   2.918   9.190  0.7102  0.0001 -0.5430
   41CHL1   H17 5465   6.397   2.846   9.208  0.0725 -0.8418 -0.9431
   41CHL1   C13 5466   6.212   2.857   9.296  0.7390 -0.6828  1.1851
   41CHL1   C18 5467   6.075   2.907   9.258 -0.3900 -0.8888  0.0985
   41CHL1  H18A 5468   6.042   2.883   9.155 -0.6379 -1.1781  0.2454
   41CHL1  H18B 5469   5.993   2.904   9.333  0.7484 -0.6253  1.3933
   41CHL1  H18C 5470   6.086   3.018   9.254 -0.7914 -0.8795 -1.9716
   41CHL1   C12 5471   6.204   2.704   9.316  0.3646 -0.2225 -0.1602
   41CHL1  H12A 5472   6.166   2.653   9.225  0.9088  1.5230 -1.4271
   41CHL1  H12B 5473   6.299   2.649   9.332 -1.2360 -2.6230  1.9430
   41CHL1   C11 5474   6.107   2.677   9.439  0.0075  0.4346  0.0593
   41CHL1  H11A 5475   6.001   2.699   9.413 -0.6653 -1.4553  0.9761
   41CHL1  H11B 5476   6.111   2.568   9.461 -1.2178 -0.4319 -3.4172
   41CHL1    C9 5477   6.144   2.743   9.573 -0.3321 -0.5574  0.6792
   41CHL1    H9 5478   6.242   2.698   9.600  1.3198  1.1855 -1.8799
   41CHL1   C10 5479   6.049   2.726   9.691 -0.1833 -0.7090 -0.5925
   41CHL1   C19 5480   5.899   2.734   9.642 -0.0398 -0.2232 -0.9580
   41CHL1  H19A 5481   5.838   2.730   9.734  1.2162 -2.3016 -0.1474
   41CHL1  H19B 5482   5.877   2.825   9.581 -0.2253  1.5274  1.5787
   41CHL1  H19C 5483   5.874   2.638   9.591  1.3247 -2.1651  1.7772
   41CHL1    C1 5484   6.073   2.581   9.741  0.2606  0.0884 -0.6091
   41CHL1   H1A 5485   6.032   2.513   9.663  0.2014  2.1025 -2.4234
   41CHL1   H1B 5486   6.182   2.559   9.749  0.2827  0.3574 -0.1762
   41CHL1    C2 5487   6.015   2.536   9.879  0.0377 -0.2477  0.8278
   41CHL1   H2A 5488   6.053   2.435   9.903 -1.8348 -0.8074  1.5167
   41CHL1   H2B 5489   5.906   2.553   9.878  0.3694  2.4782  0.5823
   41CHL1   C20 5490   6.284   2.913   9.040  0.2835 -0.2995 -0.5032
   41CHL1   H20 5491   6.203   2.986   9.015 -1.5119 -1.5091  1.4627
   41CHL1   C21 5492   6.244   2.781   8.984  0.3293 -0.2735 -0.5867
   41CHL1  H21A 5493   6.337   2.720   8.985  0.8182  0.4546  0.6838
   41CHL1  H21B 5494   6.217   2.789   8.876 -1.0234 -0.5044 -0.2837
   41CHL1  H21C 5495   6.165   2.720   9.033  0.5352  0.1131  0.2454
   41CHL1   C22 5496   6.426   2.947   8.971 -0.5347  0.2743 -0.1715
   41CHL1  H22A 5497   6.459   3.046   9.009 -2.3715  0.5798  0.7111
   41CHL1  H22B 5498   6.500   2.869   9.001 -0.4242 -0.4433 -2.1375
   41CHL1   C23 5499   6.438   2.950   8.818 -0.6907 -0.2751 -0.3213
   41CHL1  H23A 5500   6.540   2.983   8.789 -1.0648  0.7652 -0.5168
   41CHL1  H23B 5501   6.425   2.851   8.769 -2.2208 -2.0391  3.2976
   41CHL1   C24 5502   6.347   3.049   8.754  0.4507 -0.4121 -0.0724
   41CHL1  H24A 5503   6.247   3.002   8.754 -0.2060  0.7875  2.7217
   41CHL1  H24B 5504   6.332   3.128   8.831 -1.3704 -2.2414  1.5541
   41CHL1   C25 5505   6.389   3.084   8.613  0.1101 -0.0803  0.1012
   41CHL1   H25 5506   6.499   3.090   8.601  0.0663 -1.4068 -1.3477
   41CHL1   C26 5507   6.352   2.965   8.515  0.0576 -0.0839 -0.1341
   41CHL1  H26A 5508   6.390   2.868   8.553 -0.4245  0.0937  0.8357
   41CHL1  H26B 5509   6.242   2.949   8.508  0.0793 -1.1342  1.4628
   41CHL1  H26C 5510   6.383   2.985   8.410 -0.8397  1.5597 -0.1202
   41CHL1   C27 5511   6.327   3.219   8.570  0.3681  0.1994 -0.3726
   41CHL1  H27A 5512   6.359   3.300   8.640 -1.8557 -0.2039  1.2280
   41CHL1  H27B 5513   6.366   3.261   8.474  0.2545  0.3247 -0.3653
   41CHL1  H27C 5514   6.216   3.228   8.573  0.2155 -1.6479  0.3304
   42CHL1    C3 5515   5.313   1.059   9.918 -0.2730 -0.1039 -0.0769
   42CHL1    H3 5516   5.214   1.012   9.938  0.2690 -2.9392 -3.2273
   42CHL1    O3 5517   5.346   1.150  10.023  0.2649 -0.3066 -0.3747
   42CHL1   H3' 5518   5.413   1.208   9.987  0.1663  0.4676  0.6572
   42CHL1    C4 5519   5.413   0.944   9.912 -0.1251  0.1650 -0.6161
   42CHL1   H4A 5520   5.516   0.986   9.916  0.3144 -0.9055 -0.5912
   42CHL1   H4B 5521   5.383   0.888  10.003  0.4723 -0.2613 -0.6736
   42CHL1    C5 5522   5.395   0.852   9.795  0.1115  0.7988  0.2758
   42CHL1    C6 5523   5.392   0.719   9.808 -0.4172 -0.4123 -0.2977
   42CHL1    H6 5524   5.407   0.676   9.908 -0.7665 -1.6321 -0.7463
   42CHL1    C7 5525   5.370   0.627   9.693 -0.4492  0.5613  0.4903
   42CHL1   H7A 5526   5.432   0.536   9.700  0.0234  0.8798  0.4889
   42CHL1   H7B 5527   5.265   0.593   9.708 -0.6382  0.2671 -1.3249
   42CHL1    C8 5528   5.387   0.688   9.554  0.6262 -0.0206 -0.2728
   42CHL1    H8 5529   5.496   0.702   9.538  0.4441  1.6603 -0.2018
   42CHL1   C14 5530   5.331   0.592   9.443 -0.0011 -0.0272  0.5161
   42CHL1   H14 5531   5.228   0.564   9.473 -0.7899  0.6676 -1.4360
   42CHL1   C15 5532   5.402   0.457   9.423  0.3918 -0.2505 -0.6592
   42CHL1  H15A 5533   5.510   0.480   9.408  0.3875  1.4133  1.3803
   42CHL1  H15B 5534   5.396   0.383   9.505 -0.1402 -0.4329 -0.8555
   42CHL1   C16 5535   5.344   0.416   9.285 -0.3378 -0.2510  0.0128
   42CHL1  H16A 5536   5.420   0.360   9.226  0.6945 -0.0683  1.1465
   42CHL1  H16B 5537   5.260   0.345   9.298  0.1486 -0.6371  1.2080
   42CHL1   C17 5538   5.293   0.537   9.208  0.0745  0.1913 -0.2281
   42CHL1   H17 5539   5.184   0.536   9.231  0.1208  2.8266  0.4132
   42CHL1   C13 5540   5.340   0.658   9.298  0.6910 -0.1043 -0.0442
   42CHL1   C18 5541   5.485   0.704   9.254 -0.1995  0.6184 -0.0446
   42CHL1  H18A 5542   5.559   0.624   9.274 -1.9029 -0.5612  1.8777
   42CHL1  H18B 5543   5.490   0.733   9.146  3.4111  1.5061  0.2269
   42CHL1  H18C 5544   5.517   0.785   9.322 -0.2633  1.6352 -1.1769
   42CHL1   C12 5545   5.249   0.779   9.292  0.5103 -0.1549 -0.6249
   42CHL1  H12A 5546   5.232   0.820   9.190  0.5144 -0.2751 -0.6740
   42CHL1  H12B 5547   5.148   0.752   9.332  1.2776 -0.5408  1.1685
   42CHL1   C11 5548   5.288   0.887   9.399 -0.0264 -0.3450  0.0761
   42CHL1  H11A 5549   5.382   0.938   9.369  0.1491 -0.0120  1.1504
   42CHL1  H11B 5550   5.207   0.961   9.410  2.5203  2.7834 -0.7316
   42CHL1    C9 5551   5.310   0.825   9.549 -0.6512 -0.0954  0.4280
   42CHL1    H9 5552   5.207   0.799   9.579  0.2308 -1.8237  2.2550
   42CHL1   C10 5553   5.363   0.925   9.654  0.3680  0.2897 -1.1446
   42CHL1   C19 5554   5.494   0.990   9.602 -0.6084 -0.4653 -0.1426
   42CHL1  H19A 5555   5.571   0.922   9.562  0.8575  0.3492  1.2000
   42CHL1  H19B 5556   5.474   1.061   9.518  1.2608 -0.8028 -0.9193
   42CHL1  H19C 5557   5.540   1.053   9.680 -1.2877  0.0387 -0.1356
   42CHL1    C1 5558   5.263   1.041   9.679 -0.4480  0.1925 -0.9030
   42CHL1   H1A 5559   5.258   1.104   9.588  1.3057  1.6425 -0.0657
   42CHL1   H1B 5560   5.160   1.002   9.688 -0.0555 -0.8471 -0.7347
   42CHL1    C2 5561   5.299   1.143   9.787  0.6342  0.3917  0.0653
   42CHL1   H2A 5562   5.211   1.208   9.807 -2.1227 -3.2066  0.7602
   42CHL1   H2B 5563   5.384   1.209   9.760  0.5688  0.6799  0.5497
   42CHL1   C20 5564   5.304   0.544   9.051  0.7676 -0.6369 -0.1177
   42CHL1   H20 5565   5.289   0.649   9.020 -2.6113 -0.3581  1.9279
   42CHL1   C21 5566   5.183   0.469   8.994  0.4704 -0.3857 -0.1186
   42CHL1  H21A 5567   5.094   0.469   9.059 -1.3484  0.0417 -2.4720
   42CHL1  H21B 5568   5.210   0.362   8.986  2.2153  0.0469 -0.4691
   42CHL1  H21C 5569   5.160   0.524   8.900  2.0910  3.5097  1.5226
   42CHL1   C22 5570   5.437   0.490   8.988  1.0603  0.1200 -0.6110
   42CHL1  H22A 5571   5.515   0.485   9.065 -0.6697 -0.2999  1.1934
   42CHL1  H22B 5572   5.407   0.385   8.969 -0.6262  0.5458 -0.4753
   42CHL1   C23 5573   5.471   0.559   8.855  0.1883  0.1706 -0.2665
   42CHL1  H23A 5574   5.383   0.542   8.788  1.6490 -0.5882 -2.0788
   42CHL1  H23B 5575   5.480   0.666   8.884 -1.3916 -0.3202  2.3188
   42CHL1   C24 5576   5.583   0.491   8.774 -0.0656  0.1166  0.5141
   42CHL1  H24A 5577   5.687   0.477   8.812  0.6208  1.6450 -0.7117
   42CHL1  H24B 5578   5.550   0.385   8.762  0.1967  0.2579 -2.0411
   42CHL1   C25 5579   5.599   0.547   8.624 -0.3163  0.7440 -1.2654
   42CHL1   H25 5580   5.503   0.560   8.569 -1.1475  2.6441  0.5023
   42CHL1   C26 5581   5.654   0.694   8.630  0.3838  0.2751  0.4733
   42CHL1  H26A 5582   5.583   0.763   8.679 -1.6847  1.2469 -3.4828
   42CHL1  H26B 5583   5.751   0.708   8.684 -0.0451 -0.6311  1.5317
   42CHL1  H26C 5584   5.661   0.734   8.526  3.2917 -0.1553  0.4013
   42CHL1   C27 5585   5.682   0.438   8.545  0.4432 -0.3651  0.5515
   42CHL1  H27A 5586   5.655   0.332   8.564 -0.1954  0.1259  2.7398
   42CHL1  H27B 5587   5.679   0.461   8.436  0.0081  0.4109  0.7140
   42CHL1  H27C 5588   5.789   0.439   8.575  0.6089  1.0794  0.0065
   43CHL1    C3 5589   6.236   1.598   9.821 -0.3931 -0.3715 -0.6199
   43CHL1    H3 5590   6.292   1.692   9.838  0.5532 -0.9867 -0.2463
   43CHL1    O3 5591   6.181   1.570   9.951  0.4504  0.1924 -0.4545
   43CHL1   H3' 5592   6.119   1.499   9.934  0.5255  0.5253 -2.3589
   43CHL1    C4 5593   6.123   1.629   9.727  0.5924 -0.0288 -0.0832
   43CHL1   H4A 5594   6.044   1.551   9.725 -0.7497  1.2994  0.1094
   43CHL1   H4B 5595   6.074   1.715   9.776 -0.1842 -1.0068  0.9107
   43CHL1    C5 5596   6.171   1.655   9.592  0.2968 -0.6121  0.2850
   43CHL1    C6 5597   6.130   1.770   9.537  0.0466  0.0310 -0.4443
   43CHL1    H6 5598   6.065   1.839   9.592  0.4673 -0.0943  0.2283
   43CHL1    C7 5599   6.175   1.819   9.401  0.9025  0.0449  0.7786
   43CHL1   H7A 5600   6.089   1.843   9.335  1.1131 -0.1169  0.4408
   43CHL1   H7B 5601   6.239   1.910   9.399 -2.8746  2.9535 -1.5392
   43CHL1    C8 5602   6.246   1.709   9.326  0.3168  0.5642 -0.4724
   43CHL1    H8 5603   6.162   1.653   9.280  0.0458 -1.4232  2.1846
   43CHL1   C14 5604   6.334   1.768   9.218  0.0565 -0.4847 -0.1275
   43CHL1   H14 5605   6.413   1.820   9.276  0.0681 -0.1711 -0.4154
   43CHL1   C15 5606   6.276   1.887   9.133  0.2466 -0.2772  0.2575
   43CHL1  H15A 5607   6.171   1.868   9.102  0.9845  0.4997 -3.1378
   43CHL1  H15B 5608   6.293   1.984   9.184  1.2358 -0.2721 -0.0688
   43CHL1   C16 5609   6.349   1.871   8.999 -0.1455  0.2893  0.3253
   43CHL1  H16A 5610   6.274   1.831   8.927 -0.4886  2.7787 -0.7928
   43CHL1  H16B 5611   6.387   1.968   8.963 -0.8770 -0.2283 -1.9722
   43CHL1   C17 5612   6.466   1.766   9.020  0.2384  0.2373 -0.2851
   43CHL1   H17 5613   6.551   1.828   9.055  0.2760  0.7442 -1.2439
   43CHL1   C13 5614   6.409   1.671   9.123  0.2518  0.0322 -0.0796
   43CHL1   C18 5615   6.307   1.578   9.048 -0.0310  0.0609 -0.1503
   43CHL1  H18A 5616   6.243   1.531   9.126 -0.1754 -1.3593 -1.0989
   43CHL1  H18B 5617   6.241   1.633   8.977 -0.6535 -0.8632 -0.3089
   43CHL1  H18C 5618   6.361   1.505   8.984  0.5379  1.1278 -0.9183
   43CHL1   C12 5619   6.509   1.599   9.217  0.4846 -0.4812 -0.3102
   43CHL1  H12A 5620   6.558   1.517   9.160  0.4387 -0.1707 -0.8115
   43CHL1  H12B 5621   6.576   1.677   9.258 -1.4980  2.2318 -1.8689
   43CHL1   C11 5622   6.433   1.529   9.332 -0.3385  0.5906  0.2381
   43CHL1  H11A 5623   6.367   1.451   9.289  1.4516 -0.4616 -0.6993
   43CHL1  H11B 5624   6.507   1.480   9.398 -0.5019  1.2742  0.9481
   43CHL1    C9 5625   6.340   1.619   9.413 -0.4454  0.1348  0.9946
   43CHL1    H9 5626   6.396   1.697   9.469 -2.5889  1.0431  1.9860
   43CHL1   C10 5627   6.265   1.551   9.535 -0.5132 -0.0259  0.0792
   43CHL1   C19 5628   6.175   1.437   9.485  0.4164  0.2708 -0.4521
   43CHL1  H19A 5629   6.119   1.411   9.578  2.8604  1.1520  1.3607
   43CHL1  H19B 5630   6.103   1.480   9.412 -0.0004 -0.3649 -0.4234
   43CHL1  H19C 5631   6.219   1.352   9.430  0.5664  0.3236 -0.4145
   43CHL1    C1 5632   6.368   1.499   9.638  0.3260  0.3850  0.4399
   43CHL1   H1A 5633   6.409   1.407   9.592  1.9476  1.1019  0.4005
   43CHL1   H1B 5634   6.452   1.571   9.646  0.1278  0.6732  0.0027
   43CHL1    C2 5635   6.317   1.479   9.783 -0.0293  0.5598 -0.1701
   43CHL1   H2A 5636   6.397   1.467   9.859 -1.9129 -0.4035  1.7729
   43CHL1   H2B 5637   6.257   1.388   9.806  1.2381  0.1540  1.7414
   43CHL1   C20 5638   6.518   1.703   8.886 -0.1758  0.0404 -0.4428
   43CHL1   H20 5639   6.444   1.634   8.840  1.0252 -1.4539 -0.2138
   43CHL1   C21 5640   6.646   1.618   8.899  0.9477 -0.5458  0.0750
   43CHL1  H21A 5641   6.733   1.675   8.937 -0.8068  0.1290  3.3900
   43CHL1  H21B 5642   6.665   1.577   8.797 -0.0413  3.7811 -2.1024
   43CHL1  H21C 5643   6.620   1.532   8.964 -1.2950 -1.0448 -1.3529
   43CHL1   C22 5644   6.539   1.807   8.777  0.4183 -0.7220 -0.7189
   43CHL1  H22A 5645   6.565   1.751   8.685  0.4893 -0.1503 -1.0483
   43CHL1  H22B 5646   6.448   1.864   8.749  2.6431  1.7852 -3.4592
   43CHL1   C23 5647   6.649   1.910   8.799  0.1686  0.4163  0.2142
   43CHL1  H23A 5648   6.617   1.983   8.877  0.2168 -0.0483  0.6651
   43CHL1  H23B 5649   6.735   1.845   8.826 -0.1590  0.4561  1.4068
   43CHL1   C24 5650   6.691   1.978   8.663  0.1607  0.5817  0.1360
   43CHL1  H24A 5651   6.754   1.899   8.615  0.1213 -0.3146  1.5135
   43CHL1  H24B 5652   6.600   1.998   8.603 -0.8106 -3.2911  0.0471
   43CHL1   C25 5653   6.771   2.103   8.683  0.6936 -0.6529  0.3048
   43CHL1   H25 5654   6.715   2.170   8.752 -1.2002 -0.2794 -1.5071
   43CHL1   C26 5655   6.902   2.081   8.762 -0.1474  0.6843  0.3914
   43CHL1  H26A 5656   6.966   2.171   8.760 -1.2896  1.5644  1.7489
   43CHL1  H26B 5657   6.893   2.079   8.872  1.4098  1.2999  0.5493
   43CHL1  H26C 5658   6.948   1.988   8.723 -2.2894  0.2290 -1.3041
   43CHL1   C27 5659   6.798   2.170   8.550  0.1923 -0.1584  0.0746
   43CHL1  H27A 5660   6.870   2.110   8.489 -0.1831  0.0797 -0.6149
   43CHL1  H27B 5661   6.703   2.176   8.493  0.7657  1.2076 -0.7866
   43CHL1  H27C 5662   6.855   2.265   8.562  1.2901 -0.8862  0.9106
   44CHL1    C3 5663   0.282   1.336  10.029 -0.0642  0.4066  0.0437
   44CHL1    H3 5664   0.378   1.285  10.009  0.9495  0.9504  3.0106
   44CHL1    O3 5665   0.270   1.335  10.167 -0.1276 -0.7790 -0.1983
   44CHL1   H3' 5666   0.185   1.372  10.193 -1.0250 -2.7194 -0.2426
   44CHL1    C4 5667   0.288   1.479   9.977  0.7930  0.5681  0.0386
   44CHL1   H4A 5668   0.206   1.543  10.015 -0.5117 -1.9061  1.6411
   44CHL1   H4B 5669   0.377   1.533  10.015 -0.0051  2.2305 -0.3283
   44CHL1    C5 5670   0.283   1.477   9.823 -0.0841  0.5437  0.4330
   44CHL1    C6 5671   0.383   1.524   9.748  0.4393 -0.5093  0.2626
   44CHL1    H6 5672   0.462   1.584   9.795  0.5792  0.8126 -1.5639
   44CHL1    C7 5673   0.390   1.530   9.600 -1.0683  0.1147  0.3409
   44CHL1   H7A 5674   0.426   1.631   9.573 -0.8400  0.0208  0.2923
   44CHL1   H7B 5675   0.472   1.469   9.555  0.8158  1.6899  1.4584
   44CHL1    C8 5676   0.251   1.499   9.540  0.2826  0.0847 -0.3759
   44CHL1    H8 5677   0.184   1.586   9.550 -1.6100 -1.2739 -0.6515
   44CHL1   C14 5678   0.265   1.466   9.389 -0.2183 -0.6309 -0.4788
   44CHL1   H14 5679   0.326   1.373   9.382 -2.9055 -2.3683 -3.1574
   44CHL1   C15 5680   0.353   1.558   9.308 -0.0460  0.2195 -0.0002
   44CHL1  H15A 5681   0.344   1.664   9.340  4.5437  1.3068 -1.5347
   44CHL1  H15B 5682   0.461   1.533   9.320  0.4183  1.6485 -0.9216
   44CHL1   C16 5683   0.310   1.538   9.162 -0.1843  0.2026  0.0630
   44CHL1  H16A 5684   0.287   1.632   9.108 -0.5737  0.9331  1.4615
   44CHL1  H16B 5685   0.390   1.486   9.105  1.6826  1.3246  1.5410
   44CHL1   C17 5686   0.195   1.434   9.174  0.1426 -0.4608 -0.0815
   44CHL1   H17 5687   0.244   1.334   9.173 -1.1439 -1.1109 -0.4477
   44CHL1   C13 5688   0.136   1.450   9.315  0.1703  0.1798  0.1721
   44CHL1   C18 5689   0.050   1.581   9.325  0.4822  1.0351 -0.0428
   44CHL1  H18A 5690  -0.044   1.573   9.265  0.3856  3.2905 -0.2661
   44CHL1  H18B 5691   0.034   1.620   9.428  2.3107  0.9292  0.3143
   44CHL1  H18C 5692   0.116   1.657   9.280  1.1957  0.7780  0.5522
   44CHL1   C12 5693   0.061   1.332   9.379 -0.9027  0.1102 -0.4467
   44CHL1  H12A 5694  -0.044   1.331   9.344 -0.7304  0.8217 -1.0082
   44CHL1  H12B 5695   0.123   1.241   9.364 -1.1260 -0.1211  0.0237
   44CHL1   C11 5696   0.043   1.347   9.531 -0.3200  0.4003 -0.1075
   44CHL1  H11A 5697  -0.026   1.433   9.546  0.1571  1.6403 -3.9025
   44CHL1  H11B 5698  -0.012   1.255   9.558  0.7449 -0.5860 -1.2100
   44CHL1    C9 5699   0.183   1.372   9.601 -0.3487 -0.1338 -0.2599
   44CHL1    H9 5700   0.246   1.283   9.580  1.8577  1.2597  0.1126
   44CHL1   C10 5701   0.166   1.397   9.757  0.2263 -0.5430  1.1979
   44CHL1   C19 5702   0.033   1.469   9.794 -0.2128  0.2027  0.5489
   44CHL1  H19A 5703   0.032   1.567   9.741  1.2206 -1.4996 -2.9683
   44CHL1  H19B 5704  -0.050   1.400   9.768  0.8100 -0.8748  0.0242
   44CHL1  H19C 5705   0.020   1.504   9.898  0.3305  1.8932  0.0865
   44CHL1    C1 5706   0.159   1.259   9.818 -0.4471  0.4523  0.5282
   44CHL1   H1A 5707   0.070   1.207   9.778 -1.0065  0.7786  1.3315
   44CHL1   H1B 5708   0.245   1.196   9.787 -0.3798  0.3149  0.9754
   44CHL1    C2 5709   0.164   1.256   9.974  0.4049 -0.3412  1.1530
   44CHL1   H2A 5710   0.143   1.159  10.023 -1.4573 -0.5718  0.0151
   44CHL1   H2B 5711   0.074   1.315  10.004  1.7198  2.6178 -0.3277
   44CHL1   C20 5712   0.113   1.438   9.048  0.0588 -0.4291  0.1395
   44CHL1   H20 5713   0.069   1.538   9.028  2.9495  1.0580  0.6853
   44CHL1   C21 5714  -0.001   1.343   9.065  0.2440  0.1074  0.1135
   44CHL1  H21A 5715  -0.070   1.350   8.978 -0.5641  0.9918  0.8005
   44CHL1  H21B 5716  -0.070   1.375   9.146  1.1779  1.6158  0.3660
   44CHL1  H21C 5717   0.035   1.243   9.095 -0.7216 -0.3931 -0.3658
   44CHL1   C22 5718   0.200   1.380   8.933  0.9278 -0.4348 -0.1667
   44CHL1  H22A 5719   0.300   1.428   8.928  1.9255 -2.5658 -2.2186
   44CHL1  H22B 5720   0.214   1.271   8.946 -0.3552 -0.4092  1.7232
   44CHL1   C23 5721   0.134   1.406   8.789 -0.2845  0.1154  0.5646
   44CHL1  H23A 5722   0.186   1.337   8.719  1.3051  0.4506  1.3688
   44CHL1  H23B 5723   0.026   1.380   8.785 -0.2594  0.1109 -2.1339
   44CHL1   C24 5724   0.160   1.552   8.745 -0.4253  0.0995  0.0100
   44CHL1  H24A 5725   0.141   1.616   8.834  0.6862 -1.2483  1.2693
   44CHL1  H24B 5726   0.265   1.565   8.709 -1.2208  2.2498 -1.7317
   44CHL1   C25 5727   0.084   1.588   8.614  0.0135  0.1205  0.0129
   44CHL1   H25 5728  -0.024   1.576   8.638  0.3179 -1.1355  0.8415
   44CHL1   C26 5729   0.127   1.732   8.582  0.6071  0.5394 -0.1317
   44CHL1  H26A 5730   0.139   1.792   8.675  0.0827 -1.8064  1.5199
   44CHL1  H26B 5731   0.232   1.733   8.545 -0.1136 -0.1668 -2.3866
   44CHL1  H26C 5732   0.060   1.792   8.515  2.3895  1.5045 -1.1337
   44CHL1   C27 5733   0.129   1.500   8.497 -0.1039  0.3451 -0.1070
   44CHL1  H27A 5734   0.087   1.398   8.508  0.0051  0.5760  4.0705
   44CHL1  H27B 5735   0.093   1.548   8.404  1.8910  1.3386 -0.3981
   44CHL1  H27C 5736   0.239   1.493   8.486  0.1472  2.3537  0.6411
   45CHL1    C3 5737   2.732   5.730  10.185 -0.1808  0.1536 -0.3587
   45CHL1    H3 5738   2.813   5.655  10.189 -0.0327  0.2568 -1.1673
   45CHL1    O3 5739   2.701   5.772  10.318  0.8047 -0.1702 -0.0163
   45CHL1   H3' 5740   2.695   5.683  10.355 -0.5923 -0.5752 -1.1049
   45CHL1    C4 5741   2.794   5.844  10.104  0.5671  0.3654  0.6310
   45CHL1   H4A 5742   2.720   5.927  10.113 -0.9998 -1.1533  3.7463
   45CHL1   H4B 5743   2.887   5.871  10.158  0.6891 -0.1003  0.6589
   45CHL1    C5 5744   2.818   5.797   9.958  0.0429 -0.0609  0.5720
   45CHL1    C6 5745   2.942   5.791   9.915 -0.0814  0.1584  0.0418
   45CHL1    H6 5746   3.030   5.827   9.970  1.5165 -0.0625 -2.1986
   45CHL1    C7 5747   2.982   5.752   9.775  0.1164 -0.1903 -0.4334
   45CHL1   H7A 5748   3.071   5.810   9.741 -0.6511  0.1000 -2.0040
   45CHL1   H7B 5749   3.005   5.645   9.795  0.4531  0.3790  2.9991
   45CHL1    C8 5750   2.865   5.755   9.674  0.8049 -0.0530 -0.1897
   45CHL1    H8 5751   2.907   5.692   9.591  2.3016  0.0274  0.4640
   45CHL1   C14 5752   2.849   5.888   9.603 -0.2754  0.4071  0.1861
   45CHL1   H14 5753   2.834   5.958   9.689 -0.4544 -0.1401  0.6044
   45CHL1   C15 5754   2.969   5.927   9.516 -1.1921 -0.6037  0.4222
   45CHL1  H15A 5755   2.975   6.038   9.516  0.8403 -0.6797  0.0551
   45CHL1  H15B 5756   3.067   5.882   9.543  0.4002  1.0978 -2.0663
   45CHL1   C16 5757   2.939   5.883   9.369 -0.5668 -0.0816 -0.4625
   45CHL1  H16A 5758   2.939   5.966   9.295  0.5392  1.3199  1.0276
   45CHL1  H16B 5759   3.009   5.816   9.315 -0.3897 -0.9343  0.7781
   45CHL1   C17 5760   2.791   5.840   9.376 -0.7075 -0.4114  0.3300
   45CHL1   H17 5761   2.803   5.731   9.394 -1.8171 -0.6768 -0.4745
   45CHL1   C13 5762   2.729   5.891   9.509 -0.0447 -0.1192 -0.3752
   45CHL1   C18 5763   2.675   6.030   9.490 -0.3937 -0.1647 -0.4821
   45CHL1  H18A 5764   2.758   6.097   9.458  2.5531 -2.6720  1.3682
   45CHL1  H18B 5765   2.581   6.020   9.431 -2.7087 -1.1545  3.0924
   45CHL1  H18C 5766   2.647   6.076   9.587 -2.3449  0.1401 -1.1423
   45CHL1   C12 5767   2.612   5.804   9.549  0.4777 -0.3874  0.6430
   45CHL1  H12A 5768   2.551   5.880   9.602  0.6034  0.5759 -0.5611
   45CHL1  H12B 5769   2.549   5.766   9.465  2.7062 -3.7216  0.3037
   45CHL1   C11 5770   2.642   5.679   9.628  0.2643  0.6758  0.1403
   45CHL1  H11A 5771   2.545   5.641   9.666  1.0393 -1.1303  0.4090
   45CHL1  H11B 5772   2.681   5.607   9.552 -1.3623 -0.3202  0.2109
   45CHL1    C9 5773   2.744   5.690   9.742  0.1714 -0.2951 -0.3031
   45CHL1    H9 5774   2.774   5.588   9.774  1.6150  0.7336  1.9183
   45CHL1   C10 5775   2.700   5.755   9.877 -0.6984 -0.8959 -0.6333
   45CHL1   C19 5776   2.596   5.870   9.861 -0.2428  0.2997  0.0415
   45CHL1  H19A 5777   2.641   5.965   9.825  0.0504  0.1839  0.1082
   45CHL1  H19B 5778   2.511   5.851   9.791  0.4869  0.2927 -0.8706
   45CHL1  H19C 5779   2.553   5.869   9.963  3.2048 -2.2949  1.6532
   45CHL1    C1 5780   2.636   5.635   9.963 -0.4818 -0.1391  0.4140
   45CHL1   H1A 5781   2.543   5.609   9.908 -0.8527  1.8017  0.0677
   45CHL1   H1B 5782   2.700   5.544   9.964 -1.1292 -0.6170  2.0063
   45CHL1    C2 5783   2.610   5.667  10.112 -0.3245 -0.7120 -0.9006
   45CHL1   H2A 5784   2.569   5.576  10.160 -1.9345  0.2714 -0.3076
   45CHL1   H2B 5785   2.535   5.749  10.122  1.3964  0.7983  0.1712
   45CHL1   C20 5786   2.709   5.864   9.235  0.2672  0.1161 -0.5042
   45CHL1   H20 5787   2.603   5.839   9.258  0.8559 -0.9507  1.2612
   45CHL1   C21 5788   2.755   5.752   9.140 -0.2009 -0.4786 -0.2218
   45CHL1  H21A 5789   2.686   5.745   9.053 -0.2606  2.9456 -0.5649
   45CHL1  H21B 5790   2.771   5.658   9.197 -0.1301  0.5860  1.5641
   45CHL1  H21C 5791   2.853   5.783   9.099 -0.0478 -0.7590 -0.0703
   45CHL1   C22 5792   2.724   6.001   9.161  0.3167 -0.6525  0.3527
   45CHL1  H22A 5793   2.729   6.089   9.228 -0.3171 -1.2250  1.1821
   45CHL1  H22B 5794   2.819   5.998   9.105  0.1570  0.0341  0.0398
   45CHL1   C23 5795   2.610   6.027   9.056  0.0638  0.2965 -1.0676
   45CHL1  H23A 5796   2.613   5.951   8.976 -1.5202  0.5467 -1.4085
   45CHL1  H23B 5797   2.510   6.021   9.105  0.9180 -1.0624  0.5965
   45CHL1   C24 5798   2.618   6.165   8.984  0.2839  0.4535 -0.5252
   45CHL1  H24A 5799   2.614   6.250   9.055  0.6058  1.2819 -1.4706
   45CHL1  H24B 5800   2.720   6.167   8.941  1.2649 -1.6059  1.5163
   45CHL1   C25 5801   2.517   6.177   8.866 -0.3640 -0.4563 -0.1246
   45CHL1   H25 5802   2.512   6.078   8.816  1.8905 -0.2021 -1.0108
   45CHL1   C26 5803   2.380   6.207   8.926  0.6745  0.4632  0.3149
   45CHL1  H26A 5804   2.301   6.212   8.848  0.2314  1.0942  0.7891
   45CHL1  H26B 5805   2.357   6.121   8.991  1.8803 -0.1879 -0.0965
   45CHL1  H26C 5806   2.378   6.301   8.986  0.2225  0.7234 -0.0946
   45CHL1   C27 5807   2.573   6.288   8.780  0.0277 -0.4356  0.1265
   45CHL1  H27A 5808   2.666   6.259   8.725  1.0595  0.6886  1.1976
   45CHL1  H27B 5809   2.492   6.311   8.708 -1.4827 -0.1308  1.8807
   45CHL1  H27C 5810   2.591   6.380   8.839 -0.9491  1.0781 -1.8169
   46CHL1    C3 5811   5.766   3.734  10.063 -0.9853 -0.1008 -0.5236
   46CHL1    H3 5812   5.727   3.636  10.027 -0.1331 -1.0902  1.1077
   46CHL1    O3 5813   5.782   3.734  10.206 -0.0879  0.0812  0.1081
   46CHL1   H3' 5814   5.802   3.825  10.231  0.0645 -0.2297  1.1432
   46CHL1    C4 5815   5.896   3.774  10.002 -0.6736  0.2486  0.0090
   46CHL1   H4A 5816   5.937   3.872  10.034 -1.5110  0.6101 -0.0114
   46CHL1   H4B 5817   5.972   3.698  10.031 -1.2159 -0.0312  0.7368
   46CHL1    C5 5818   5.885   3.791   9.852  0.6256  0.2048  0.0781
   46CHL1    C6 5819   5.965   3.714   9.771  0.1725 -0.1733  0.2237
   46CHL1    H6 5820   6.034   3.636   9.806 -1.4153 -2.1462 -0.8604
   46CHL1    C7 5821   5.964   3.725   9.620 -0.5220 -0.1520  0.1518
   46CHL1   H7A 5822   6.064   3.745   9.576 -0.2849 -2.1838 -0.3077
   46CHL1   H7B 5823   5.947   3.627   9.571  0.3162 -0.4510  0.4418
   46CHL1    C8 5824   5.879   3.837   9.562 -0.0167  0.2968  0.1858
   46CHL1    H8 5825   5.944   3.926   9.558  1.1894 -0.5117  0.9893
   46CHL1   C14 5826   5.840   3.813   9.418  0.0907  0.7854  0.1111
   46CHL1   H14 5827   5.769   3.728   9.424 -0.8437  1.5962  1.0656
   46CHL1   C15 5828   5.945   3.772   9.319  0.3270  1.1339  0.3688
   46CHL1  H15A 5829   6.022   3.851   9.310  2.1340 -0.5234  0.4417
   46CHL1  H15B 5830   5.991   3.675   9.347 -4.5773 -1.0671  2.0056
   46CHL1   C16 5831   5.859   3.774   9.187  0.0746  0.1507  1.1331
   46CHL1  H16A 5832   5.903   3.840   9.110 -2.6403  1.3384  0.4757
   46CHL1  H16B 5833   5.849   3.673   9.144 -4.0698  1.2406 -1.0657
   46CHL1   C17 5834   5.725   3.847   9.221 -0.3292 -0.5764  0.8559
   46CHL1   H17 5835   5.647   3.771   9.243 -0.6756  0.0542  1.8202
   46CHL1   C13 5836   5.758   3.925   9.357  0.5128 -0.0534  0.4127
   46CHL1   C18 5837   5.828   4.059   9.333 -0.7005 -0.3587  0.4577
   46CHL1  H18A 5838   5.897   4.050   9.246  0.0629  2.0333  0.7615
   46CHL1  H18B 5839   5.766   4.150   9.321 -0.9505 -0.6657 -0.7803
   46CHL1  H18C 5840   5.885   4.085   9.424  1.3004  0.6712 -1.0002
   46CHL1   C12 5841   5.631   3.947   9.441 -0.0152  0.5255  0.0742
   46CHL1  H12A 5842   5.581   4.042   9.414  1.9252  0.7373 -3.2059
   46CHL1  H12B 5843   5.562   3.860   9.433  0.4972  0.0936  0.3375
   46CHL1   C11 5844   5.669   3.970   9.589  0.0794  0.8435  0.1353
   46CHL1  H11A 5845   5.715   4.071   9.587 -1.7493  1.7323  0.9779
   46CHL1  H11B 5846   5.574   3.976   9.647 -0.8164 -0.8090 -1.0644
   46CHL1    C9 5847   5.754   3.857   9.648  0.1016 -0.0084 -0.0788
   46CHL1    H9 5848   5.690   3.767   9.636 -1.7381  1.1006  0.9617
   46CHL1   C10 5849   5.783   3.889   9.798  0.1063 -0.1260  0.1538
   46CHL1   C19 5850   5.860   4.026   9.814 -0.6449 -0.0166 -0.2867
   46CHL1  H19A 5851   5.895   4.045   9.917 -0.9147 -0.5842 -0.0863
   46CHL1  H19B 5852   5.952   4.044   9.754 -0.5204  2.8192  0.5948
   46CHL1  H19C 5853   5.794   4.111   9.785 -0.4400 -0.2060 -1.3450
   46CHL1    C1 5854   5.656   3.887   9.890  0.2431 -0.0787 -0.5146
   46CHL1   H1A 5855   5.599   3.981   9.875  1.3675  0.6786 -0.1589
   46CHL1   H1B 5856   5.591   3.808   9.847 -1.6702  1.9068 -1.4517
   46CHL1    C2 5857   5.666   3.846  10.037 -0.4819 -1.1651  0.4879
   46CHL1   H2A 5858   5.565   3.831  10.081 -1.5493 -2.0194 -2.0414
   46CHL1   H2B 5859   5.703   3.936  10.090 -1.0662 -0.1770 -0.7114
   46CHL1   C20 5860   5.679   3.928   9.103  0.2350  0.6245 -0.2596
   46CHL1   H20 5861   5.748   4.012   9.079  0.0706  1.3241  1.5764
   46CHL1   C21 5862   5.541   3.985   9.135 -0.2425 -0.4618  0.4711
   46CHL1  H21A 5863   5.475   3.908   9.181 -0.4209 -0.1808  0.6916
   46CHL1  H21B 5864   5.487   4.025   9.047 -1.4591 -1.3447  0.7811
   46CHL1  H21C 5865   5.567   4.074   9.196  2.5910 -0.9873  0.1522
   46CHL1   C22 5866   5.659   3.846   8.974 -0.1161  1.1859 -0.5702
   46CHL1  H22A 5867   5.741   3.773   8.961 -0.0300  1.4153 -1.4005
   46CHL1  H22B 5868   5.563   3.793   8.995  1.0851 -1.3370 -1.0935
   46CHL1   C23 5869   5.654   3.922   8.841 -0.0772 -0.1685 -0.3659
   46CHL1  H23A 5870   5.595   4.016   8.846 -1.6654 -1.1339 -0.2509
   46CHL1  H23B 5871   5.760   3.948   8.816  0.2617  0.0156  1.1860
   46CHL1   C24 5872   5.603   3.834   8.726  0.2106 -0.3022 -0.3072
   46CHL1  H24A 5873   5.665   3.742   8.725 -0.1783 -0.6620  2.3277
   46CHL1  H24B 5874   5.498   3.804   8.747 -0.2621 -1.6889 -3.8596
   46CHL1   C25 5875   5.604   3.896   8.580 -0.2010 -0.0683 -0.0416
   46CHL1   H25 5876   5.713   3.892   8.559  0.0501 -0.8756  1.3369
   46CHL1   C26 5877   5.534   3.803   8.480 -0.7082  0.1566  0.0185
   46CHL1  H26A 5878   5.551   3.828   8.373 -1.8095  0.5124 -0.0857
   46CHL1  H26B 5879   5.567   3.701   8.507  0.3215  0.8868  1.6650
   46CHL1  H26C 5880   5.425   3.798   8.499 -0.6306 -0.3949  0.3351
   46CHL1   C27 5881   5.562   4.042   8.573  0.8272 -0.1653  0.5780
   46CHL1  H27A 5882   5.628   4.108   8.633 -1.7321  2.6357  0.5604
   46CHL1  H27B 5883   5.566   4.076   8.468  1.2063  1.0452  0.9741
   46CHL1  H27C 5884   5.459   4.053   8.613  0.5061  0.2322 -0.3341
   47CHL1    C3 5885   6.277   0.532  10.071 -0.3371  0.7369 -0.1445
   47CHL1    H3 5886   6.180   0.483  10.045  0.0250 -0.8673  1.2948
   47CHL1    O3 5887   6.293   0.520  10.212 -0.0773  0.2184  0.4283
   47CHL1   H3' 5888   6.378   0.565  10.214 -0.4598  1.3819 -2.8370
   47CHL1    C4 5889   6.394   0.449  10.013  0.6523 -0.4024  0.2362
   47CHL1   H4A 5890   6.482   0.504  10.053  0.0782  0.7086  0.0139
   47CHL1   H4B 5891   6.389   0.350  10.062 -0.8047 -0.9766 -0.9915
   47CHL1    C5 5892   6.388   0.448   9.867 -0.1646  0.3155  0.3105
   47CHL1    C6 5893   6.368   0.332   9.799 -1.0791  0.1050  0.1973
   47CHL1    H6 5894   6.373   0.238   9.856 -0.3575 -0.6819 -1.1226
   47CHL1    C7 5895   6.364   0.330   9.649  0.3313  0.6225 -0.7171
   47CHL1   H7A 5896   6.412   0.236   9.614  1.3523  0.0945  1.8018
   47CHL1   H7B 5897   6.255   0.321   9.629  0.4097  1.5729 -1.5950
   47CHL1    C8 5898   6.415   0.455   9.575 -0.0598  0.2685 -0.0180
   47CHL1    H8 5899   6.525   0.457   9.591  0.1250 -2.2403 -0.4825
   47CHL1   C14 5900   6.376   0.458   9.427  0.1101 -0.0249  1.0743
   47CHL1   H14 5901   6.265   0.462   9.427  0.0548 -0.8481 -0.5369
   47CHL1   C15 5902   6.407   0.331   9.335  0.0395 -0.1180  0.1062
   47CHL1  H15A 5903   6.510   0.298   9.362  0.2327  0.5709  0.2252
   47CHL1  H15B 5904   6.334   0.247   9.332 -2.1639  1.6793  0.3653
   47CHL1   C16 5905   6.397   0.388   9.197 -0.0442 -0.2066 -0.0739
   47CHL1  H16A 5906   6.486   0.351   9.141 -0.3691 -1.7956  0.4041
   47CHL1  H16B 5907   6.307   0.351   9.142  0.1464 -1.0584  0.1736
   47CHL1   C17 5908   6.387   0.545   9.208  0.3383 -0.1395 -0.0884
   47CHL1   H17 5909   6.278   0.563   9.212  0.4597  0.6691 -0.1999
   47CHL1   C13 5910   6.431   0.579   9.354  0.7232 -0.1025  1.1277
   47CHL1   C18 5911   6.585   0.581   9.351 -0.0835  0.2890  0.6012
   47CHL1  H18A 5912   6.615   0.492   9.293 -1.5989  1.0676 -1.4894
   47CHL1  H18B 5913   6.626   0.666   9.293 -0.0633 -0.1635 -0.0545
   47CHL1  H18C 5914   6.625   0.577   9.455 -0.7293 -1.0138  0.8138
   47CHL1   C12 5915   6.368   0.708   9.421  0.5154  0.0242  0.5206
   47CHL1  H12A 5916   6.407   0.804   9.380  1.1084 -0.6264 -0.4834
   47CHL1  H12B 5917   6.258   0.694   9.418  0.4292  0.7875 -1.5157
   47CHL1   C11 5918   6.402   0.712   9.569  0.1938 -0.0395  0.4995
   47CHL1  H11A 5919   6.512   0.723   9.583  0.2125  2.0582 -0.8323
   47CHL1  H11B 5920   6.359   0.802   9.619 -1.1893 -0.0594 -0.6070
   47CHL1    C9 5921   6.362   0.582   9.645  0.4130 -0.3333 -0.1525
   47CHL1    H9 5922   6.252   0.571   9.634  0.5031 -0.7433 -0.6927
   47CHL1   C10 5923   6.385   0.589   9.799 -0.2964 -0.3561 -0.0773
   47CHL1   C19 5924   6.528   0.647   9.812 -0.1410 -0.1059 -0.5076
   47CHL1  H19A 5925   6.565   0.645   9.917  2.6377  1.6461 -1.3429
   47CHL1  H19B 5926   6.602   0.579   9.765  1.0368 -0.7157  2.0628
   47CHL1  H19C 5927   6.541   0.749   9.770 -2.3069  0.7066  0.6206
   47CHL1    C1 5928   6.279   0.680   9.872 -0.4529 -0.1391 -0.1710
   47CHL1   H1A 5929   6.291   0.778   9.821  2.1026 -1.7568 -3.0047
   47CHL1   H1B 5930   6.184   0.636   9.836  0.0608  0.8933 -3.0940
   47CHL1    C2 5931   6.282   0.678  10.020  0.8833  0.7934  0.5464
   47CHL1   H2A 5932   6.191   0.730  10.055 -0.6081  0.6786 -2.7507
   47CHL1   H2B 5933   6.381   0.710  10.059  1.2886  0.8831 -0.5289
   47CHL1   C20 5934   6.442   0.629   9.095 -0.6758  0.0034  0.1252
   47CHL1   H20 5935   6.548   0.656   9.109 -0.9450  0.7610  0.7904
   47CHL1   C21 5936   6.366   0.762   9.073 -0.2357 -0.6172 -0.0338
   47CHL1  H21A 5937   6.345   0.821   9.165  0.6381  3.0965 -2.0156
   47CHL1  H21B 5938   6.270   0.758   9.019  1.2541 -1.2546 -2.8348
   47CHL1  H21C 5939   6.434   0.831   9.018 -2.2475  3.2884  1.9649
   47CHL1   C22 5940   6.444   0.544   8.958 -0.1323 -0.5207 -0.1067
   47CHL1  H22A 5941   6.513   0.458   8.964 -0.8004 -0.9846  1.2770
   47CHL1  H22B 5942   6.339   0.513   8.942  0.0411 -1.1226 -0.1094
   47CHL1   C23 5943   6.494   0.615   8.828 -0.1104  0.7777 -0.0621
   47CHL1  H23A 5944   6.414   0.692   8.817 -0.2437  0.9377  1.7677
   47CHL1  H23B 5945   6.587   0.674   8.844  0.5658  0.9693 -3.8153
   47CHL1   C24 5946   6.502   0.524   8.706 -0.4232 -0.6731  0.0587
   47CHL1  H24A 5947   6.578   0.444   8.721  1.6909  0.3377 -3.8521
   47CHL1  H24B 5948   6.410   0.467   8.683 -0.4876  0.0709 -1.6913
   47CHL1   C25 5949   6.528   0.610   8.584  0.0850  0.0073 -0.0210
   47CHL1   H25 5950   6.470   0.704   8.594 -0.9200 -0.6107  0.0948
   47CHL1   C26 5951   6.672   0.649   8.559  0.1961  0.4240  0.0464
   47CHL1  H26A 5952   6.736   0.563   8.530  0.9884  0.6028  1.2368
   47CHL1  H26B 5953   6.712   0.692   8.653 -1.3569  0.4190  0.7416
   47CHL1  H26C 5954   6.685   0.721   8.475 -0.0480 -0.4067 -0.7275
   47CHL1   C27 5955   6.481   0.529   8.460  0.2871  0.2359 -0.1900
   47CHL1  H27A 5956   6.549   0.442   8.454 -0.8258 -0.6888  0.1423
   47CHL1  H27B 5957   6.383   0.484   8.488 -0.2468  0.7413 -1.2104
   47CHL1  H27C 5958   6.478   0.593   8.370  3.0733  0.0763 -0.4720
   48CHL1    C3 5959   1.822   6.804  10.015 -0.1877  0.0418 -0.6102
   48CHL1    H3 5960   1.848   6.897   9.960  0.6851  0.1771  0.0147
   48CHL1    O3 5961   1.802   6.834  10.151 -0.0714  0.1754  0.9951
   48CHL1   H3' 5962   1.790   6.750  10.196  1.7194 -0.8793 -0.3583
   48CHL1    C4 5963   1.696   6.735   9.961  0.0434  0.6526 -1.0610
   48CHL1   H4A 5964   1.672   6.638  10.011  2.5772 -0.6738 -2.2322
   48CHL1   H4B 5965   1.608   6.800   9.983  0.5597  1.3690 -1.0837
   48CHL1    C5 5966   1.699   6.710   9.814  0.2263  0.1607 -0.0847
   48CHL1    C6 5967   1.606   6.762   9.731  0.8481 -0.7613 -1.1842
   48CHL1    H6 5968   1.531   6.825   9.783  1.2658 -0.8852 -0.4143
   48CHL1    C7 5969   1.610   6.737   9.585 -0.5006  0.7309 -0.6263
   48CHL1   H7A 5970   1.508   6.711   9.549 -0.9936  0.2012  1.0790
   48CHL1   H7B 5971   1.637   6.833   9.535 -0.2913  1.7185  1.2938
   48CHL1    C8 5972   1.707   6.629   9.541 -0.6140 -0.7599 -0.6824
   48CHL1    H8 5973   1.660   6.534   9.573  0.3216 -1.5249 -1.4747
   48CHL1   C14 5974   1.746   6.640   9.398  0.2560  0.2465  0.3848
   48CHL1   H14 5975   1.813   6.726   9.376  1.6764 -1.2204 -1.3918
   48CHL1   C15 5976   1.626   6.661   9.297 -0.7653 -0.0115  0.1632
   48CHL1  H15A 5977   1.539   6.596   9.318 -1.4890  1.0233  0.4890
   48CHL1  H15B 5978   1.589   6.766   9.299 -0.4878  0.1220 -0.9371
   48CHL1   C16 5979   1.687   6.621   9.157 -0.4201 -0.5251  0.7699
   48CHL1  H16A 5980   1.620   6.545   9.111  0.1635 -2.2119  2.5701
   48CHL1  H16B 5981   1.698   6.711   9.093  0.1412 -1.2616 -0.2042
   48CHL1   C17 5982   1.826   6.553   9.189  0.0865 -0.5660  0.0522
   48CHL1   H17 5983   1.905   6.631   9.181 -1.2985  0.8513 -0.2343
   48CHL1   C13 5984   1.820   6.519   9.340  0.4311  0.1170  0.5609
   48CHL1   C18 5985   1.749   6.386   9.353  0.0169 -0.4171  0.9544
   48CHL1  H18A 5986   1.817   6.300   9.332 -2.0280 -1.7317 -0.7500
   48CHL1  H18B 5987   1.728   6.370   9.461  2.1664 -0.4819  1.4181
   48CHL1  H18C 5988   1.661   6.372   9.287  0.8049  0.8907 -0.4257
   48CHL1   C12 5989   1.959   6.519   9.404  0.6340  0.5162  0.1117
   48CHL1  H12A 5990   2.018   6.431   9.372 -0.3152  0.4224 -1.5094
   48CHL1  H12B 5991   2.015   6.611   9.376  1.5020  0.5988  1.9388
   48CHL1   C11 5992   1.950   6.527   9.556 -0.5168  0.3036 -0.3719
   48CHL1  H11A 5993   1.915   6.425   9.581 -0.8487  0.5336  0.1302
   48CHL1  H11B 5994   2.041   6.559   9.612  0.5089 -0.6385 -1.4424
   48CHL1    C9 5995   1.846   6.629   9.615 -0.2206 -0.1030  0.6471
   48CHL1    H9 5996   1.878   6.732   9.591 -0.8433 -0.1670 -0.5142
   48CHL1   C10 5997   1.831   6.633   9.768 -0.5350  0.1479 -0.5901
   48CHL1   C19 5998   1.803   6.489   9.812 -0.2754 -0.1948  0.2485
   48CHL1  H19A 5999   1.770   6.476   9.917  0.5994  0.4071  0.6072
   48CHL1  H19B 6000   1.741   6.431   9.741 -0.0370 -0.5116  0.2939
   48CHL1  H19C 6001   1.896   6.429   9.825 -0.2512 -0.0463  0.7824
   48CHL1    C1 6002   1.956   6.701   9.844  0.8712 -0.1266  0.0196
   48CHL1   H1A 6003   2.039   6.631   9.820  1.1349 -0.3263  1.4204
   48CHL1   H1B 6004   1.976   6.795   9.787  1.6658 -0.7130 -0.6956
   48CHL1    C2 6005   1.945   6.714   9.998 -0.0384  0.5150  0.2475
   48CHL1   H2A 6006   2.036   6.763  10.039 -0.8999  1.7411  0.7519
   48CHL1   H2B 6007   1.944   6.610  10.038 -2.3892 -0.2937 -1.6603
   48CHL1   C20 6008   1.854   6.445   9.080  0.0062 -0.1436 -0.3173
   48CHL1   H20 6009   1.797   6.353   9.102 -0.5838 -0.0281 -1.3092
   48CHL1   C21 6010   2.006   6.406   9.103 -0.3310  0.0154  0.2037
   48CHL1  H21A 6011   2.079   6.487   9.084 -0.2419 -0.6482 -2.6330
   48CHL1  H21B 6012   2.021   6.333   9.021 -3.9076 -0.7382  0.0810
   48CHL1  H21C 6013   2.017   6.355   9.202  0.9755  0.1935  0.1731
   48CHL1   C22 6014   1.820   6.491   8.934  0.5695 -0.0521 -0.2361
   48CHL1  H22A 6015   1.714   6.521   8.929 -0.8653 -4.3465  0.4760
   48CHL1  H22B 6016   1.882   6.580   8.905  0.1997 -0.7129 -3.5209
   48CHL1   C23 6017   1.842   6.377   8.836  0.3861  0.6013  0.0298
   48CHL1  H23A 6018   1.834   6.431   8.740 -1.5551  0.8991  0.3335
   48CHL1  H23B 6019   1.945   6.337   8.829 -0.6439 -1.8837 -2.5683
   48CHL1   C24 6020   1.739   6.263   8.835  0.5694 -0.3337  0.0038
   48CHL1  H24A 6021   1.744   6.186   8.915  0.0459 -0.4798 -0.0972
   48CHL1  H24B 6022   1.636   6.303   8.849  0.0367 -0.3259 -3.2409
   48CHL1   C25 6023   1.728   6.167   8.708  0.4600  1.0774  0.0328
   48CHL1   H25 6024   1.726   6.229   8.616 -1.4736 -0.1874 -0.8466
   48CHL1   C26 6025   1.841   6.059   8.711 -0.3900 -0.1535  0.2498
   48CHL1  H26A 6026   1.841   5.999   8.805  0.4068 -1.8001 -0.7444
   48CHL1  H26B 6027   1.830   5.982   8.632 -0.4217  1.1608 -1.0774
   48CHL1  H26C 6028   1.936   6.114   8.692 -0.5920 -0.2060 -1.0278
   48CHL1   C27 6029   1.590   6.092   8.724 -0.2283  0.0015 -0.5505
   48CHL1  H27A 6030   1.503   6.162   8.722 -0.5275 -0.3759 -0.9346
   48CHL1  H27B 6031   1.589   6.022   8.638 -0.1575  2.6692 -2.8625
   48CHL1  H27C 6032   1.591   6.029   8.816  0.5975 -0.6983 -1.0298
   49CHL1    C3 6033   4.488   3.957  10.037  0.1113 -0.0731  0.0068
   49CHL1    H3 6034   4.540   4.054  10.019  4.0570 -2.1257 -0.7288
   49CHL1    O3 6035   4.490   3.943  10.178 -0.3109  0.1681 -0.1285
   49CHL1   H3' 6036   4.412   3.985  10.214  0.9117  1.8212  0.6949
   49CHL1    C4 6037   4.348   3.943   9.985 -0.0598  0.2092  0.4068
   49CHL1   H4A 6038   4.299   3.860  10.041  0.5507  0.3775  1.2155
   49CHL1   H4B 6039   4.296   4.035  10.021 -1.1237 -0.6410  1.1238
   49CHL1    C5 6040   4.330   3.932   9.832  0.5773 -0.7120  0.6084
   49CHL1    C6 6041   4.254   4.018   9.758 -0.3067 -0.1320 -0.9021
   49CHL1    H6 6042   4.196   4.095   9.812 -0.9123 -0.6436 -0.8053
   49CHL1    C7 6043   4.241   4.011   9.612  0.4666  0.5828 -0.7357
   49CHL1   H7A 6044   4.135   4.025   9.580  0.8213  0.3778 -2.0458
   49CHL1   H7B 6045   4.307   4.095   9.582  0.8530  1.4923  2.3223
   49CHL1    C8 6046   4.297   3.883   9.554  0.7193  0.1123  0.3070
   49CHL1    H8 6047   4.228   3.798   9.577  0.7327 -0.0505 -0.2209
   49CHL1   C14 6048   4.325   3.890   9.403  0.5463 -0.9238  0.3058
   49CHL1   H14 6049   4.405   3.967   9.408 -2.6607  2.8020 -0.1803
   49CHL1   C15 6050   4.222   3.953   9.315 -0.1296 -0.4081 -0.4639
   49CHL1  H15A 6051   4.124   3.902   9.323 -1.2742  1.6258 -0.7040
   49CHL1  H15B 6052   4.202   4.059   9.342  1.7183 -0.7021  2.4856
   49CHL1   C16 6053   4.279   3.927   9.174  0.2837 -0.2834 -0.2367
   49CHL1  H16A 6054   4.205   3.881   9.105 -0.7058  1.8067 -0.6498
   49CHL1  H16B 6055   4.319   4.021   9.130 -0.6997  0.5016  0.4903
   49CHL1   C17 6056   4.393   3.824   9.194 -0.2169 -0.0728  1.0745
   49CHL1   H17 6057   4.490   3.879   9.194  1.5821 -2.9149 -1.4510
   49CHL1   C13 6058   4.377   3.768   9.327  0.4937  0.0890  0.2245
   49CHL1   C18 6059   4.255   3.668   9.325  0.0969  0.4978  0.0161
   49CHL1  H18A 6060   4.283   3.568   9.285 -0.9574  0.0224  0.4270
   49CHL1  H18B 6061   4.216   3.653   9.428 -2.3656 -2.7747 -1.2343
   49CHL1  H18C 6062   4.169   3.718   9.276  0.3498  2.0649  1.1101
   49CHL1   C12 6063   4.505   3.728   9.398  0.7340  0.6411 -0.5581
   49CHL1  H12A 6064   4.529   3.628   9.356 -0.4340  0.8253 -1.7227
   49CHL1  H12B 6065   4.593   3.792   9.373  1.2884 -0.9200 -2.9112
   49CHL1   C11 6066   4.487   3.711   9.553  0.7147  0.1167  0.4009
   49CHL1  H11A 6067   4.416   3.626   9.561  0.6814  0.2507  1.6165
   49CHL1  H11B 6068   4.595   3.700   9.575  1.0020  2.5771  0.4340
   49CHL1    C9 6069   4.431   3.839   9.619  0.0341 -0.8199  0.4520
   49CHL1    H9 6070   4.501   3.923   9.604 -0.9677 -0.3417 -2.1948
   49CHL1   C10 6071   4.416   3.823   9.766  0.0112 -0.3529 -0.3004
   49CHL1   C19 6072   4.360   3.684   9.815  0.4099 -0.0313 -0.7520
   49CHL1  H19A 6073   4.368   3.687   9.926 -2.8537  0.4316 -0.4154
   49CHL1  H19B 6074   4.254   3.671   9.785 -0.1724  0.7861  0.8386
   49CHL1  H19C 6075   4.415   3.592   9.786  0.6805 -1.6809  4.0513
   49CHL1    C1 6076   4.562   3.845   9.823 -0.2849  0.6344 -0.0339
   49CHL1   H1A 6077   4.630   3.765   9.787  0.8101  2.1647 -1.5348
   49CHL1   H1B 6078   4.614   3.935   9.783  1.5366  0.0284  0.8898
   49CHL1    C2 6079   4.582   3.854   9.974 -0.5125 -0.4549  0.1057
   49CHL1   H2A 6080   4.680   3.905   9.988 -2.3627  2.9414  2.1253
   49CHL1   H2B 6081   4.574   3.751  10.015  0.6297 -0.4971  0.2368
   49CHL1   C20 6082   4.404   3.732   9.069 -0.0982  0.1933 -1.1325
   49CHL1   H20 6083   4.305   3.681   9.061 -0.5794  0.6909  0.9449
   49CHL1   C21 6084   4.516   3.631   9.092 -0.5240  0.9033  0.9619
   49CHL1  H21A 6085   4.530   3.574   8.997 -1.4885  1.4966  0.4454
   49CHL1  H21B 6086   4.489   3.556   9.169 -0.1705 -1.4001 -1.0246
   49CHL1  H21C 6087   4.614   3.679   9.108 -0.6294  2.3121 -1.9395
   49CHL1   C22 6088   4.432   3.806   8.938  0.2797  0.4928 -0.0969
   49CHL1  H22A 6089   4.369   3.897   8.939 -2.5027 -1.3098  0.1911
   49CHL1  H22B 6090   4.534   3.845   8.920  0.1668  0.0894 -1.7801
   49CHL1   C23 6091   4.396   3.736   8.806  0.1665  0.3902 -0.8634
   49CHL1  H23A 6092   4.454   3.641   8.806 -0.2654  0.1204 -0.0991
   49CHL1  H23B 6093   4.286   3.720   8.809  0.3487 -1.0370  2.6960
   49CHL1   C24 6094   4.434   3.818   8.681  0.0897  0.0846 -0.3042
   49CHL1  H24A 6095   4.370   3.906   8.658 -1.6819 -0.8299  0.8426
   49CHL1  H24B 6096   4.539   3.845   8.701 -0.1415 -0.6844  2.3682
   49CHL1   C25 6097   4.436   3.747   8.543  0.7641 -0.7496 -0.1426
   49CHL1   H25 6098   4.505   3.660   8.549 -0.1563 -1.6805 -2.1161
   49CHL1   C26 6099   4.297   3.709   8.491 -0.0678  0.0984 -0.4014
   49CHL1  H26A 6100   4.250   3.809   8.505 -1.3093 -0.2677 -1.6431
   49CHL1  H26B 6101   4.304   3.681   8.384  0.1024 -0.5732 -0.2135
   49CHL1  H26C 6102   4.236   3.633   8.543  1.2139 -0.4783  0.2981
   49CHL1   C27 6103   4.500   3.840   8.435  0.1293  0.6850 -0.1360
   49CHL1  H27A 6104   4.608   3.859   8.453 -0.1471  2.8575 -0.4794
   49CHL1  H27B 6105   4.471   3.791   8.340 -2.4141 -2.2815  1.9536
   49CHL1  H27C 6106   4.442   3.935   8.439 -1.1232 -0.0235 -1.0462
   50CHL1    C3 6107   1.049   4.381  10.113 -0.3643 -0.0650 -0.1749
   50CHL1    H3 6108   0.971   4.317  10.065 -0.2333  0.5041 -1.1760
   50CHL1    O3 6109   1.031   4.386  10.253  0.5186 -0.1346  0.1847
   50CHL1   H3' 6110   0.937   4.404  10.262  0.4937 -0.8598  1.8132
   50CHL1    C4 6111   1.191   4.323  10.075 -0.0410  0.0874 -1.0379
   50CHL1   H4A 6112   1.260   4.378  10.142 -0.0607  0.6748 -1.4905
   50CHL1   H4B 6113   1.188   4.214  10.097  0.4682 -0.2892 -2.7138
   50CHL1    C5 6114   1.224   4.340   9.929  0.5312 -0.4031 -0.0299
   50CHL1    C6 6115   1.261   4.238   9.849 -0.4356  0.2605 -0.3665
   50CHL1    H6 6116   1.272   4.136   9.887 -0.3899  0.1996 -0.5394
   50CHL1    C7 6117   1.276   4.234   9.703 -0.4264 -0.6617  0.5904
   50CHL1   H7A 6118   1.364   4.172   9.673  0.3091  0.8091 -0.4116
   50CHL1   H7B 6119   1.188   4.194   9.648 -0.1254 -0.2086 -0.2502
   50CHL1    C8 6120   1.295   4.376   9.648 -0.0607 -0.5533 -0.2515
   50CHL1    H8 6121   1.395   4.414   9.675  1.2674 -2.3585 -2.3235
   50CHL1   C14 6122   1.275   4.378   9.503 -0.0433  0.1936 -0.5074
   50CHL1   H14 6123   1.170   4.344   9.492 -0.0577 -1.1956  2.9105
   50CHL1   C15 6124   1.348   4.273   9.422 -0.1579  0.2651  0.6883
   50CHL1  H15A 6125   1.457   4.264   9.439  1.1468 -1.7426 -5.8891
   50CHL1  H15B 6126   1.316   4.167   9.431  0.2878  0.2812  3.0962
   50CHL1   C16 6127   1.329   4.320   9.282  0.6083  0.0251 -0.2635
   50CHL1  H16A 6128   1.422   4.332   9.223 -0.3917  0.5290 -1.8194
   50CHL1  H16B 6129   1.261   4.253   9.224  0.0931  0.6834 -0.4391
   50CHL1   C17 6130   1.264   4.461   9.286  0.4567  0.2736 -0.3584
   50CHL1   H17 6131   1.158   4.429   9.275  0.2119 -0.1461  2.4050
   50CHL1   C13 6132   1.278   4.514   9.429 -0.0383  0.4661  0.3165
   50CHL1   C18 6133   1.421   4.582   9.451  0.4524  0.8064  0.1670
   50CHL1  H18A 6134   1.443   4.612   9.556 -0.3025  0.7569  0.3454
   50CHL1  H18B 6135   1.507   4.520   9.418 -1.1646 -0.5583 -1.6609
   50CHL1  H18C 6136   1.424   4.676   9.392  1.4211  0.7714  0.1432
   50CHL1   C12 6137   1.176   4.613   9.476  0.0115 -0.4125  0.2126
   50CHL1  H12A 6138   1.201   4.718   9.451 -0.0163 -0.2133  0.9836
   50CHL1  H12B 6139   1.072   4.586   9.446 -0.7626  0.7727  1.6437
   50CHL1   C11 6140   1.179   4.617   9.636  0.3153 -0.3940  0.3509
   50CHL1  H11A 6141   1.258   4.690   9.662 -0.7526  1.3215 -0.9655
   50CHL1  H11B 6142   1.080   4.663   9.657  1.5320  1.5567  2.2113
   50CHL1    C9 6143   1.194   4.477   9.707  0.3687 -1.0044  0.2595
   50CHL1    H9 6144   1.096   4.438   9.673 -0.3212  1.0788 -0.3059
   50CHL1   C10 6145   1.192   4.478   9.863 -0.3225  0.0903  0.1686
   50CHL1   C19 6146   1.303   4.570   9.918  0.6667  0.4015  0.0342
   50CHL1  H19A 6147   1.302   4.585  10.028 -0.7474 -0.7365  0.1934
   50CHL1  H19B 6148   1.404   4.530   9.892 -0.9117 -1.6166 -3.6946
   50CHL1  H19C 6149   1.296   4.673   9.877 -2.8345  0.1636 -0.2074
   50CHL1    C1 6150   1.061   4.521   9.914  0.1842 -0.0029 -0.5005
   50CHL1   H1A 6151   1.051   4.621   9.868  2.3537  0.2203 -0.6176
   50CHL1   H1B 6152   0.980   4.457   9.873 -0.8622 -0.2666  1.8253
   50CHL1    C2 6153   1.033   4.522  10.063  0.5715  0.3550 -0.3718
   50CHL1   H2A 6154   0.928   4.554  10.079 -0.3592 -2.3957 -0.3774
   50CHL1   H2B 6155   1.089   4.595  10.125 -2.2496  0.2246  2.6361
   50CHL1   C20 6156   1.302   4.547   9.171  0.0644  1.0089  0.0996
   50CHL1   H20 6157   1.410   4.575   9.175  1.5986 -3.4358 -2.4027
   50CHL1   C21 6158   1.211   4.669   9.170  0.3746  0.7774  0.4786
   50CHL1  H21A 6159   1.233   4.751   9.241 -1.2173  1.9483 -0.3307
   50CHL1  H21B 6160   1.104   4.639   9.173  0.1916  1.4403  0.6557
   50CHL1  H21C 6161   1.240   4.721   9.076  2.5480  1.7718  1.6196
   50CHL1   C22 6162   1.281   4.468   9.035  0.2588  0.4190  0.2300
   50CHL1  H22A 6163   1.280   4.357   9.033  0.3771  0.4133 -2.2503
   50CHL1  H22B 6164   1.181   4.497   8.995 -0.7670 -1.5315  1.2211
   50CHL1   C23 6165   1.381   4.515   8.930  0.3639  0.3800 -1.2185
   50CHL1  H23A 6166   1.341   4.616   8.905  0.6864  0.9181  0.3114
   50CHL1  H23B 6167   1.475   4.522   8.991 -1.1553  1.5708  1.1615
   50CHL1   C24 6168   1.382   4.427   8.811  0.6623 -0.4360 -0.1863
   50CHL1  H24A 6169   1.415   4.322   8.829 -0.3854 -0.6211  0.6886
   50CHL1  H24B 6170   1.275   4.420   8.783  0.7227 -0.3209 -0.4432
   50CHL1   C25 6171   1.450   4.474   8.677 -0.1689  0.4356 -0.1799
   50CHL1   H25 6172   1.561   4.483   8.687 -0.2050  0.0843  0.6752
   50CHL1   C26 6173   1.420   4.371   8.570  0.7867 -0.5622  0.3238
   50CHL1  H26A 6174   1.444   4.267   8.601  1.5004 -0.3679  0.4385
   50CHL1  H26B 6175   1.313   4.382   8.543  0.4559  1.5129  2.2099
   50CHL1  H26C 6176   1.478   4.387   8.477 -0.3161 -1.8912 -0.6360
   50CHL1   C27 6177   1.399   4.611   8.638  0.5778  0.2204 -0.2742
   50CHL1  H27A 6178   1.450   4.650   8.547  1.4804 -1.1694 -0.3940
   50CHL1  H27B 6179   1.290   4.613   8.618  0.7028  2.3053 -0.9749
   50CHL1  H27C 6180   1.434   4.679   8.719  1.3601  1.8559 -1.8950
   51CHL1    C3 6181   4.373   0.920  10.216  0.1022  0.4869  0.4212
   51CHL1    H3 6182   4.455   0.986  10.181 -0.7490  1.6347  0.5199
   51CHL1    O3 6183   4.358   0.949  10.349 -0.5421  0.2938  0.3830
   51CHL1   H3' 6184   4.303   0.878  10.385 -0.3477  0.0853  0.2696
   51CHL1    C4 6185   4.245   0.938  10.134 -0.2349 -0.9789  0.3768
   51CHL1   H4A 6186   4.162   0.875  10.175 -0.7235 -0.1127  0.7477
   51CHL1   H4B 6187   4.211   1.044  10.134 -3.7820 -1.8355 -3.3904
   51CHL1    C5 6188   4.273   0.891   9.993  0.3215  0.3912 -0.3869
   51CHL1    C6 6189   4.251   0.973   9.888  0.3753 -0.8459  0.2431
   51CHL1    H6 6190   4.213   1.074   9.911 -1.2299 -0.6568 -2.7253
   51CHL1    C7 6191   4.269   0.943   9.743 -0.0169 -0.1487  0.0551
   51CHL1   H7A 6192   4.177   0.969   9.687  0.3991  0.3866 -0.3899
   51CHL1   H7B 6193   4.358   1.000   9.710 -0.3973  0.8462  0.7056
   51CHL1    C8 6194   4.279   0.789   9.721 -0.1356  0.1119 -0.8862
   51CHL1    H8 6195   4.179   0.749   9.747 -0.3054  3.1135  4.5727
   51CHL1   C14 6196   4.326   0.753   9.584 -0.3479 -0.1560  0.1656
   51CHL1   H14 6197   4.428   0.798   9.578 -0.3180 -0.3205 -0.7699
   51CHL1   C15 6198   4.255   0.823   9.461  0.1390  0.7070  0.3436
   51CHL1  H15A 6199   4.148   0.831   9.490  0.1828 -1.1568  1.1252
   51CHL1  H15B 6200   4.289   0.925   9.433  1.7269  0.3739  0.9688
   51CHL1   C16 6201   4.275   0.713   9.359 -0.6603  0.2248  0.7826
   51CHL1  H16A 6202   4.177   0.662   9.345 -0.7855  0.1998  1.6564
   51CHL1  H16B 6203   4.313   0.755   9.264 -1.2223  0.4080  0.6325
   51CHL1   C17 6204   4.385   0.616   9.408  0.3390  0.1690  0.6204
   51CHL1   H17 6205   4.486   0.662   9.399 -0.2213  1.5802  1.2967
   51CHL1   C13 6206   4.353   0.603   9.557  1.7321  0.5412  0.3372
   51CHL1   C18 6207   4.220   0.525   9.575  0.1480 -0.0227  0.6528
   51CHL1  H18A 6208   4.137   0.591   9.541  2.4557  2.2071 -0.9631
   51CHL1  H18B 6209   4.217   0.435   9.510  0.9583 -0.4598  1.2074
   51CHL1  H18C 6210   4.207   0.490   9.680 -1.5048  0.6893  0.7129
   51CHL1   C12 6211   4.470   0.561   9.642  0.7025 -0.0811  0.3038
   51CHL1  H12A 6212   4.469   0.450   9.642  0.9107 -0.1836  3.4708
   51CHL1  H12B 6213   4.569   0.596   9.608  0.9606 -1.9053 -0.9581
   51CHL1   C11 6214   4.447   0.591   9.791  0.1696  0.6397 -0.3030
   51CHL1  H11A 6215   4.378   0.514   9.831  1.7286  0.8383  3.1405
   51CHL1  H11B 6216   4.538   0.571   9.851 -0.8568 -0.3006  0.9980
   51CHL1    C9 6217   4.380   0.728   9.829 -0.5297  0.3595  0.1838
   51CHL1    H9 6218   4.465   0.798   9.820 -0.8427  0.6425 -0.6919
   51CHL1   C10 6219   4.326   0.752   9.978 -0.6656 -0.2331 -0.4754
   51CHL1   C19 6220   4.217   0.651  10.003 -0.3887 -0.6734 -0.2186
   51CHL1  H19A 6221   4.129   0.684   9.944 -1.8542 -3.7230  0.0844
   51CHL1  H19B 6222   4.240   0.548   9.968 -1.4290 -0.6424 -1.0372
   51CHL1  H19C 6223   4.188   0.648  10.110 -3.2555 -1.5697 -0.9484
   51CHL1    C1 6224   4.449   0.727  10.071 -0.0845 -0.0525  0.5534
   51CHL1   H1A 6225   4.478   0.620  10.079 -1.0948 -0.6129 -2.1371
   51CHL1   H1B 6226   4.538   0.782  10.031 -0.0819 -0.6914 -0.3564
   51CHL1    C2 6227   4.422   0.779  10.212  0.1776 -0.0284  0.8314
   51CHL1   H2A 6228   4.506   0.769  10.284  2.7996  1.8537 -1.7705
   51CHL1   H2B 6229   4.348   0.712  10.261 -0.9274  0.9579  0.5567
   51CHL1   C20 6230   4.385   0.486   9.325 -0.1424 -0.1556 -0.0223
   51CHL1   H20 6231   4.337   0.398   9.371  0.6898 -0.5672  0.0925
   51CHL1   C21 6232   4.535   0.455   9.321 -0.1041  0.1661  0.1903
   51CHL1  H21A 6233   4.579   0.457   9.423  1.5847  0.5888 -0.5085
   51CHL1  H21B 6234   4.589   0.528   9.257  2.0046  0.6559  2.3937
   51CHL1  H21C 6235   4.556   0.354   9.280  0.1235 -0.3107  1.4216
   51CHL1   C22 6236   4.328   0.505   9.178 -0.0927  0.0670 -0.1001
   51CHL1  H22A 6237   4.222   0.532   9.195  0.1515  1.3774 -0.5552
   51CHL1  H22B 6238   4.375   0.577   9.108  1.6209 -1.5946 -0.7510
   51CHL1   C23 6239   4.342   0.376   9.097  0.1313  0.4801 -0.0369
   51CHL1  H23A 6240   4.450   0.363   9.074  0.1467  1.7753 -0.8212
   51CHL1  H23B 6241   4.296   0.296   9.159 -0.0357  0.1482 -0.5857
   51CHL1   C24 6242   4.269   0.389   8.961  0.4674  0.0631 -0.0620
   51CHL1  H24A 6243   4.164   0.423   8.974  0.9582  1.5447  0.1763
   51CHL1  H24B 6244   4.315   0.471   8.903  0.8260  0.7568  1.1654
   51CHL1   C25 6245   4.257   0.254   8.885 -0.2787  0.0885 -0.7309
   51CHL1   H25 6246   4.224   0.284   8.784  0.5350  0.0747 -1.0109
   51CHL1   C26 6247   4.388   0.177   8.860  0.3910  0.4216 -0.4794
   51CHL1  H26A 6248   4.458   0.253   8.820  2.2457 -0.5502  0.7821
   51CHL1  H26B 6249   4.431   0.140   8.956 -1.8718 -1.2455 -0.0235
   51CHL1  H26C 6250   4.372   0.092   8.792 -1.5771  0.7763 -0.5166
   51CHL1   C27 6251   4.150   0.160   8.938 -0.5288 -0.0456 -0.6359
   51CHL1  H27A 6252   4.176   0.132   9.042  1.6634 -0.7814 -1.3161
   51CHL1  H27B 6253   4.047   0.201   8.928  0.2611  1.8448 -1.4186
   51CHL1  H27C 6254   4.156   0.064   8.881  3.2414 -1.3458  1.6382
   52CHL1    C3 6255   6.123   6.758   9.941  1.1372 -0.0352 -0.1643
   52CHL1    H3 6256   6.040   6.832   9.933 -0.4364 -1.7169 -0.1347
   52CHL1    O3 6257   6.120   6.725  10.081  0.5107 -0.4228 -0.0546
   52CHL1   H3' 6258   6.040   6.675  10.097 -0.2872  1.6371  3.4071
   52CHL1    C4 6259   6.075   6.639   9.863 -0.4984 -0.4857  0.9069
   52CHL1   H4A 6260   6.139   6.553   9.891 -0.7591  0.1440  3.7234
   52CHL1   H4B 6261   5.977   6.604   9.901  0.5476 -2.3466  2.0427
   52CHL1    C5 6262   6.065   6.662   9.704  0.6508 -0.6488  0.3561
   52CHL1    C6 6263   5.948   6.647   9.635  0.0366  0.3895 -0.4248
   52CHL1    H6 6264   5.864   6.606   9.693  0.2999 -3.7844 -2.6028
   52CHL1    C7 6265   5.945   6.653   9.485 -0.1985  0.2108  0.7810
   52CHL1   H7A 6266   5.897   6.570   9.430  2.6255 -1.0978  0.0901
   52CHL1   H7B 6267   5.892   6.747   9.456 -0.7566  0.3165  2.0490
   52CHL1    C8 6268   6.092   6.655   9.421  0.3214  0.2003 -0.6120
   52CHL1    H8 6269   6.147   6.558   9.423  4.3167  2.2793  0.2209
   52CHL1   C14 6270   6.085   6.705   9.284  0.4502  0.0448  0.3790
   52CHL1   H14 6271   6.036   6.805   9.288  1.0626  0.4770 -1.5018
   52CHL1   C15 6272   6.003   6.618   9.180  0.4279 -0.5117 -0.1887
   52CHL1  H15A 6273   6.014   6.509   9.198  0.6217 -0.5109 -0.3047
   52CHL1  H15B 6274   5.895   6.645   9.183  0.6830  0.7445 -1.4766
   52CHL1   C16 6275   6.056   6.672   9.047 -0.2529 -0.2609  0.3147
   52CHL1  H16A 6276   6.087   6.577   8.998 -1.9651  0.1259 -1.6833
   52CHL1  H16B 6277   5.976   6.717   8.985 -1.2926 -1.2475  0.8896
   52CHL1   C17 6278   6.162   6.767   9.082 -0.2905 -0.2566 -0.4241
   52CHL1   H17 6279   6.107   6.863   9.091 -1.0308 -0.6908 -0.2311
   52CHL1   C13 6280   6.217   6.722   9.219 -0.7719 -0.5792  0.3123
   52CHL1   C18 6281   6.294   6.589   9.209  0.3616 -0.8731  0.1557
   52CHL1  H18A 6282   6.319   6.547   9.309 -3.5451  0.1535  1.7493
   52CHL1  H18B 6283   6.242   6.516   9.144  0.7383  0.0017 -1.1598
   52CHL1  H18C 6284   6.391   6.615   9.162 -0.6670 -0.9055 -2.1382
   52CHL1   C12 6285   6.294   6.834   9.286  0.3690  0.6904  0.3765
   52CHL1  H12A 6286   6.387   6.865   9.234 -0.1294 -1.4870 -2.0126
   52CHL1  H12B 6287   6.236   6.927   9.272  2.1530  1.4672 -3.1672
   52CHL1   C11 6288   6.307   6.801   9.433 -0.0484  0.7077  0.0681
   52CHL1  H11A 6289   6.378   6.716   9.437 -1.9975 -0.9449  1.5077
   52CHL1  H11B 6290   6.350   6.884   9.494  0.2462 -1.5634  3.2039
   52CHL1    C9 6291   6.183   6.758   9.495  0.5809  0.0746 -0.3786
   52CHL1    H9 6292   6.112   6.844   9.496  0.8704  0.3145 -0.4920
   52CHL1   C10 6293   6.195   6.712   9.648  0.0322  0.6247 -0.3437
   52CHL1   C19 6294   6.296   6.597   9.646 -0.1765 -0.1909  0.0595
   52CHL1  H19A 6295   6.295   6.535   9.738 -0.8091 -0.8343 -0.3679
   52CHL1  H19B 6296   6.271   6.526   9.564 -0.0456 -2.3680  1.7851
   52CHL1  H19C 6297   6.395   6.641   9.624  0.0823  0.3044  2.0149
   52CHL1    C1 6298   6.242   6.832   9.739  0.0275 -0.4576  0.0088
   52CHL1   H1A 6299   6.346   6.863   9.715 -0.0603  0.1686  0.4276
   52CHL1   H1B 6300   6.166   6.909   9.715  0.5980 -0.5638 -2.4528
   52CHL1    C2 6301   6.252   6.812   9.893  0.3508  0.0994  0.2741
   52CHL1   H2A 6302   6.277   6.907   9.946  0.7909  1.5263 -2.3298
   52CHL1   H2B 6303   6.325   6.732   9.913 -1.7277 -2.8346 -2.8190
   52CHL1   C20 6304   6.267   6.787   8.974  0.1730  0.6455 -0.1838
   52CHL1   H20 6305   6.361   6.740   9.010  0.3128  0.9316 -0.1715
   52CHL1   C21 6306   6.287   6.942   8.959  0.2072 -0.0888 -0.2135
   52CHL1  H21A 6307   6.378   6.949   8.895 -1.2211  1.6316 -2.2031
   52CHL1  H21B 6308   6.300   6.988   9.060  1.7356 -3.0177  1.0280
   52CHL1  H21C 6309   6.207   6.989   8.897  2.9441  1.2040 -3.0975
   52CHL1   C22 6310   6.238   6.728   8.835  0.3330  0.8061  0.1038
   52CHL1  H22A 6311   6.216   6.619   8.835  1.7349  0.4806 -0.9907
   52CHL1  H22B 6312   6.145   6.775   8.796  0.0561 -0.3128 -0.6341
   52CHL1   C23 6313   6.350   6.745   8.733 -0.2901  0.6657 -0.1927
   52CHL1  H23A 6314   6.384   6.850   8.719 -0.4520  0.6534 -0.6865
   52CHL1  H23B 6315   6.432   6.677   8.765 -1.3514 -0.9465 -0.7876
   52CHL1   C24 6316   6.307   6.705   8.590  0.0994  0.1440  0.1987
   52CHL1  H24A 6317   6.251   6.610   8.589  0.6899 -0.2195  0.6353
   52CHL1  H24B 6318   6.240   6.783   8.548 -0.4925 -1.2391 -1.5369
   52CHL1   C25 6319   6.430   6.680   8.491 -0.2430 -0.4168  0.3609
   52CHL1   H25 6320   6.493   6.603   8.540  1.1211  0.8184  0.6282
   52CHL1   C26 6321   6.385   6.630   8.347  0.3391 -0.1379 -0.1044
   52CHL1  H26A 6322   6.300   6.697   8.323  0.0940 -0.5140 -0.3033
   52CHL1  H26B 6323   6.471   6.635   8.278  0.3009 -1.4554 -0.2856
   52CHL1  H26C 6324   6.354   6.523   8.350 -2.1748  0.5323 -0.0005
   52CHL1   C27 6325   6.505   6.813   8.467  0.0357  0.0246 -0.0890
   52CHL1  H27A 6326   6.568   6.797   8.377  0.0944 -0.2838  0.0084
   52CHL1  H27B 6327   6.431   6.894   8.446 -2.6911 -1.5604  2.5814
   52CHL1  H27C 6328   6.551   6.832   8.566 -2.6390 -0.6772  1.3775
   53CHL1    C3 6329   0.452   0.058   9.953  0.1855  0.3025  0.3409
   53CHL1    H3 6330   0.428  -0.050   9.969 -3.2853  0.8223 -0.5694
   53CHL1    O3 6331   0.465   0.124  10.080  0.3852 -0.2827 -0.6237
   53CHL1   H3' 6332   0.375   0.137  10.109  1.2964  1.0816  1.9936
   53CHL1    C4 6333   0.590   0.063   9.875  0.0852  0.2392  0.0606
   53CHL1   H4A 6334   0.603   0.171   9.896 -1.2962 -0.0448  2.8073
   53CHL1   H4B 6335   0.679   0.016   9.922  1.5083  2.7012 -0.0035
   53CHL1    C5 6336   0.581   0.033   9.723 -0.0214 -0.5405 -0.1987
   53CHL1    C6 6337   0.658  -0.057   9.662  0.9526  0.0824  0.0085
   53CHL1    H6 6338   0.734  -0.110   9.721  0.6990 -0.2205  0.0661
   53CHL1    C7 6339   0.651  -0.094   9.518  0.3921 -0.3762 -0.1202
   53CHL1   H7A 6340   0.757  -0.091   9.484  0.8313 -2.4033  0.9203
   53CHL1   H7B 6341   0.612  -0.196   9.499  0.2852 -0.7451  1.8922
   53CHL1    C8 6342   0.578   0.024   9.441  0.8022 -0.1594 -0.5380
   53CHL1    H8 6343   0.632   0.121   9.447 -0.7233  0.6461  0.6645
   53CHL1   C14 6344   0.556  -0.027   9.298  0.0922  0.1779 -0.4737
   53CHL1   H14 6345   0.490  -0.116   9.309  0.8639 -0.3331  0.1686
   53CHL1   C15 6346   0.673  -0.101   9.224  0.6654  0.4293 -0.2869
   53CHL1  H15A 6347   0.761  -0.033   9.221  0.4856  0.9408  2.6331
   53CHL1  H15B 6348   0.708  -0.202   9.256  0.2646  0.2724 -0.3451
   53CHL1   C16 6349   0.619  -0.106   9.077 -0.4206  0.6757 -0.5357
   53CHL1  H16A 6350   0.690  -0.056   9.007  0.5988 -1.7415 -1.3392
   53CHL1  H16B 6351   0.598  -0.208   9.039 -0.3087  0.3166  0.3426
   53CHL1   C17 6352   0.495  -0.014   9.081 -0.3320  0.2405  0.8522
   53CHL1   H17 6353   0.413  -0.087   9.100 -0.8323  0.6156  0.1684
   53CHL1   C13 6354   0.495   0.069   9.206  0.6547 -0.9447 -0.9933
   53CHL1   C18 6355   0.584   0.191   9.185  0.1262 -0.0607  0.2234
   53CHL1  H18A 6356   0.679   0.145   9.151 -0.5929 -0.8469 -0.7758
   53CHL1  H18B 6357   0.550   0.251   9.097  3.1793  0.3090 -0.8267
   53CHL1  H18C 6358   0.600   0.265   9.266 -1.4295  2.4402 -1.5811
   53CHL1   C12 6359   0.355   0.120   9.257 -0.2889 -0.5376  0.3776
   53CHL1  H12A 6360   0.329   0.206   9.192  0.7201  0.2572  0.9876
   53CHL1  H12B 6361   0.287   0.033   9.250 -2.0672  0.6032  2.2259
   53CHL1   C11 6362   0.364   0.160   9.409 -0.1945  0.0934 -0.2208
   53CHL1  H11A 6363   0.412   0.259   9.397 -0.7735  0.2648 -1.2574
   53CHL1  H11B 6364   0.263   0.175   9.453  0.1946 -1.9780  1.5680
   53CHL1    C9 6365   0.441   0.059   9.502 -1.7731 -0.0686 -0.1677
   53CHL1    H9 6366   0.383  -0.036   9.511 -1.4433 -0.1145  2.0061
   53CHL1   C10 6367   0.471   0.104   9.647  0.3585 -0.3094  0.0311
   53CHL1   C19 6368   0.512   0.248   9.648 -0.1802  0.1649  0.3883
   53CHL1  H19A 6369   0.429   0.316   9.620 -1.5759 -0.3522  2.9373
   53CHL1  H19B 6370   0.542   0.291   9.746 -0.4878  0.5856  0.3019
   53CHL1  H19C 6371   0.596   0.264   9.578  0.3288  0.3748  1.0404
   53CHL1    C1 6372   0.339   0.086   9.724 -0.0399  0.4119 -0.5967
   53CHL1   H1A 6373   0.260   0.145   9.674  0.7336  0.0797 -2.2851
   53CHL1   H1B 6374   0.327  -0.025   9.730 -2.5166  0.6764  0.2194
   53CHL1    C2 6375   0.344   0.132   9.872  0.4644 -0.3043  0.1949
   53CHL1   H2A 6376   0.249   0.108   9.923 -0.4287 -0.8484 -1.6487
   53CHL1   H2B 6377   0.360   0.242   9.876  2.0891 -0.4688 -0.9104
   53CHL1   C20 6378   0.468   0.048   8.940  0.2891 -0.4134  0.4931
   53CHL1   H20 6379   0.546   0.122   8.911 -1.3449  0.6963 -1.3248
   53CHL1   C21 6380   0.331   0.125   8.930 -0.0148 -0.0118  0.2570
   53CHL1  H21A 6381   0.251   0.051   8.952  0.3212 -0.6514 -0.6534
   53CHL1  H21B 6382   0.306   0.164   8.829 -3.9362 -0.8176  0.7607
   53CHL1  H21C 6383   0.326   0.216   8.994  4.2965  0.7397 -0.1928
   53CHL1   C22 6384   0.475  -0.058   8.825  0.4930  0.3708 -0.6750
   53CHL1  H22A 6385   0.550  -0.139   8.838 -0.8114 -0.6320  1.0360
   53CHL1  H22B 6386   0.379  -0.114   8.826  1.5862 -1.5704  0.4590
   53CHL1   C23 6387   0.485   0.009   8.692 -0.0439 -0.0526  0.4251
   53CHL1  H23A 6388   0.450   0.115   8.684 -0.3221 -0.2058 -0.6143
   53CHL1  H23B 6389   0.584   0.005   8.643  0.5631  1.2107  1.4809
   53CHL1   C24 6390   0.400  -0.069   8.590  0.1357 -0.1863 -0.3670
   53CHL1  H24A 6391   0.416  -0.175   8.620 -0.4763  0.1843  1.3910
   53CHL1  H24B 6392   0.291  -0.051   8.607  0.7022  2.3606  0.9033
   53CHL1   C25 6393   0.443  -0.041   8.445  0.0778  0.2095  0.5479
   53CHL1   H25 6394   0.545  -0.083   8.435  0.6976  2.1077 -2.0425
   53CHL1   C26 6395   0.349  -0.128   8.351 -0.8953 -0.3489  0.0988
   53CHL1  H26A 6396   0.351  -0.234   8.383  0.4761 -0.1602  0.7133
   53CHL1  H26B 6397   0.248  -0.081   8.345 -0.0720  1.7744  1.4730
   53CHL1  H26C 6398   0.401  -0.119   8.253 -0.8591  1.5265  0.2554
   53CHL1   C27 6399   0.453   0.100   8.395  0.7088  0.7239  0.2667
   53CHL1  H27A 6400   0.533   0.164   8.439  1.0180 -0.7028  1.8404
   53CHL1  H27B 6401   0.465   0.103   8.284 -0.1002 -2.2658  0.0198
   53CHL1  H27C 6402   0.353   0.146   8.407  0.3314 -0.1405  0.4560
   54CHL1    C3 6403   0.782   1.328  10.055 -0.5446 -0.5021 -0.4433
   54CHL1    H3 6404   0.704   1.407  10.047  1.5602  1.6437 -0.7592
   54CHL1    O3 6405   0.825   1.314  10.190 -0.3335  0.4173 -0.0252
   54CHL1   H3' 6406   0.902   1.257  10.195 -0.7278 -0.0626  0.9933
   54CHL1    C4 6407   0.725   1.190  10.014 -0.1300 -0.4013  0.5552
   54CHL1   H4A 6408   0.803   1.113  10.033  0.1941 -0.2667 -0.2000
   54CHL1   H4B 6409   0.638   1.168  10.080 -0.8346  0.8702  0.0846
   54CHL1    C5 6410   0.677   1.182   9.873  0.4554 -0.6216  0.2464
   54CHL1    C6 6411   0.550   1.148   9.840 -0.1020 -0.0251 -0.3972
   54CHL1    H6 6412   0.486   1.105   9.918  0.3797 -0.0412 -0.0129
   54CHL1    C7 6413   0.509   1.135   9.694 -0.0673 -0.0757  0.1627
   54CHL1   H7A 6414   0.465   1.033   9.693  0.2142 -0.2154  1.2148
   54CHL1   H7B 6415   0.431   1.211   9.669  0.8815  0.6957 -0.5604
   54CHL1    C8 6416   0.616   1.143   9.585 -0.5988 -0.1768 -0.4311
   54CHL1    H8 6417   0.675   1.050   9.592 -1.2953 -0.6631 -0.8798
   54CHL1   C14 6418   0.562   1.174   9.448  0.0382 -0.2272  0.4377
   54CHL1   H14 6419   0.529   1.280   9.451  0.1342 -0.1716 -0.2543
   54CHL1   C15 6420   0.438   1.103   9.397 -0.0127  0.0758  0.1905
   54CHL1  H15A 6421   0.443   0.996   9.427 -1.8304 -0.7421 -2.0780
   54CHL1  H15B 6422   0.348   1.153   9.438  0.2040  1.7942 -1.3004
   54CHL1   C16 6423   0.451   1.109   9.240  0.1581  0.7037 -0.7666
   54CHL1  H16A 6424   0.463   1.005   9.204 -0.8674  0.1943  0.3099
   54CHL1  H16B 6425   0.360   1.159   9.201 -2.0781 -2.4836 -0.0005
   54CHL1   C17 6426   0.572   1.197   9.218 -0.3090 -0.5112 -0.7681
   54CHL1   H17 6427   0.530   1.300   9.221  0.4270 -0.2128 -0.4977
   54CHL1   C13 6428   0.668   1.180   9.341  0.1096 -0.7067 -0.1764
   54CHL1   C18 6429   0.740   1.042   9.326 -0.4812 -0.9590 -0.3931
   54CHL1  H18A 6430   0.676   0.962   9.281 -0.0762 -2.1997  1.1281
   54CHL1  H18B 6431   0.835   1.066   9.273  0.5118  0.6330  1.9254
   54CHL1  H18C 6432   0.763   0.997   9.425 -0.7376  0.6437  0.4126
   54CHL1   C12 6433   0.753   1.297   9.377  0.0617  0.1189 -0.6763
   54CHL1  H12A 6434   0.827   1.306   9.294  0.3463  0.4948 -0.3864
   54CHL1  H12B 6435   0.696   1.392   9.372 -0.7506 -0.3677 -0.7244
   54CHL1   C11 6436   0.825   1.289   9.516  0.7877  0.9686 -0.2376
   54CHL1  H11A 6437   0.892   1.201   9.505  1.8742  1.8355 -0.6614
   54CHL1  H11B 6438   0.881   1.381   9.542  0.7182  0.8490  0.3647
   54CHL1    C9 6439   0.716   1.260   9.627  0.1903 -0.5393  0.6573
   54CHL1    H9 6440   0.647   1.347   9.633 -2.2825 -2.4694  3.0803
   54CHL1   C10 6441   0.777   1.236   9.770 -0.4857  0.0037  0.3047
   54CHL1   C19 6442   0.875   1.116   9.761 -0.1985  0.5253  0.4016
   54CHL1  H19A 6443   0.923   1.108   9.861 -0.5214 -1.9071  0.4031
   54CHL1  H19B 6444   0.828   1.019   9.737  1.4409 -1.0378  3.0748
   54CHL1  H19C 6445   0.948   1.149   9.683 -2.4087  1.2768 -1.4739
   54CHL1    C1 6446   0.847   1.370   9.824 -0.5020  0.1175  0.5272
   54CHL1   H1A 6447   0.928   1.403   9.757 -0.2403  0.2279  0.8934
   54CHL1   H1B 6448   0.770   1.448   9.810  0.4351  0.9880  0.1415
   54CHL1    C2 6449   0.893   1.367   9.965 -0.5257  0.1548 -0.5500
   54CHL1   H2A 6450   0.919   1.468  10.003 -0.8754 -0.2058  0.7317
   54CHL1   H2B 6451   0.973   1.292   9.984  0.3150  1.1314 -0.1348
   54CHL1   C20 6452   0.632   1.174   9.080 -0.0903  0.5109 -1.0815
   54CHL1   H20 6453   0.685   1.077   9.069  0.0870  0.3448  0.9554
   54CHL1   C21 6454   0.729   1.292   9.047 -0.1792  0.0651 -0.0507
   54CHL1  H21A 6455   0.684   1.393   9.059 -0.7236  0.3233 -3.4038
   54CHL1  H21B 6456   0.752   1.277   8.939  0.3058 -0.5213  0.1244
   54CHL1  H21C 6457   0.818   1.276   9.111  0.1716  0.1918 -0.5072
   54CHL1   C22 6458   0.513   1.177   8.971  0.4709  0.6821 -0.9264
   54CHL1  H22A 6459   0.422   1.115   8.989  0.7044  0.0408 -1.8537
   54CHL1  H22B 6460   0.472   1.280   8.969 -0.2046  0.4753  0.7075
   54CHL1   C23 6461   0.552   1.130   8.825 -0.0277 -0.4549 -0.1637
   54CHL1  H23A 6462   0.663   1.122   8.826  0.1156  1.2626  0.3862
   54CHL1  H23B 6463   0.493   1.041   8.794 -0.3568  0.7227 -3.2572
   54CHL1   C24 6464   0.508   1.222   8.710 -0.5919 -0.0715  0.1381
   54CHL1  H24A 6465   0.400   1.198   8.707  0.0006 -2.9503 -1.7131
   54CHL1  H24B 6466   0.539   1.326   8.732  2.5483 -0.4512 -1.9020
   54CHL1   C25 6467   0.558   1.183   8.560 -0.3282  0.1741  0.9587
   54CHL1   H25 6468   0.498   1.259   8.505 -1.5401 -0.5137  1.2806
   54CHL1   C26 6469   0.708   1.211   8.538  0.5160 -0.0784 -0.3947
   54CHL1  H26A 6470   0.736   1.206   8.430 -1.2202 -0.6154 -0.8494
   54CHL1  H26B 6471   0.737   1.313   8.572  0.7974 -0.7443  1.4900
   54CHL1  H26C 6472   0.770   1.135   8.589  0.4050  0.1925  0.1509
   54CHL1   C27 6473   0.517   1.043   8.512 -0.1831  1.1234  0.7830
   54CHL1  H27A 6474   0.411   1.016   8.534  0.5961 -3.1499  0.1165
   54CHL1  H27B 6475   0.534   1.032   8.403 -1.8878 -2.1049  0.7181
   54CHL1  H27C 6476   0.578   0.975   8.574 -1.2982 -1.4978 -0.8560
   55CHL1    C3 6477   1.366   5.102  10.102 -0.0299 -0.1167  0.1019
   55CHL1    H3 6478   1.273   5.040  10.099  0.2690 -0.6171  0.9188
   55CHL1    O3 6479   1.419   5.094  10.234  0.4759  1.1479  0.1177
   55CHL1   H3' 6480   1.504   5.140  10.237  0.2368  1.5971  0.0253
   55CHL1    C4 6481   1.468   5.051  10.011 -0.4051  0.5775  0.1606
   55CHL1   H4A 6482   1.567   5.099  10.022 -1.1530  2.7019 -1.6137
   55CHL1   H4B 6483   1.479   4.944  10.037 -2.0861  0.1580 -0.6536
   55CHL1    C5 6484   1.427   5.069   9.864 -0.7639  0.1382 -0.6429
   55CHL1    C6 6485   1.433   4.968   9.777 -0.2206 -0.4334 -0.5860
   55CHL1    H6 6486   1.471   4.873   9.819 -0.6150 -1.5730 -2.6614
   55CHL1    C7 6487   1.390   4.978   9.634 -0.2505 -0.0159 -0.1940
   55CHL1   H7A 6488   1.443   4.900   9.575 -0.3073  0.5389 -0.9868
   55CHL1   H7B 6489   1.281   4.956   9.639 -0.1256 -0.5794  0.1428
   55CHL1    C8 6490   1.404   5.122   9.580  0.2573  0.0748 -0.0440
   55CHL1    H8 6491   1.511   5.150   9.571 -0.1493  1.3490 -1.1409
   55CHL1   C14 6492   1.333   5.130   9.442 -0.6793 -1.3090  0.1856
   55CHL1   H14 6493   1.229   5.094   9.461 -0.4209 -2.3887 -0.4218
   55CHL1   C15 6494   1.388   5.035   9.338  0.6402  0.3896  0.4806
   55CHL1  H15A 6495   1.498   5.024   9.345  0.7116  0.6464 -0.1225
   55CHL1  H15B 6496   1.349   4.933   9.355 -1.1448  1.1879  1.5351
   55CHL1   C16 6497   1.330   5.095   9.208  0.3687 -0.6047 -0.5220
   55CHL1  H16A 6498   1.412   5.112   9.135  0.0418  0.0808 -0.7406
   55CHL1  H16B 6499   1.261   5.024   9.158  1.5691 -1.2396 -1.3474
   55CHL1   C17 6500   1.276   5.236   9.243  0.0609  0.6738  0.3748
   55CHL1   H17 6501   1.170   5.212   9.263  1.2732 -4.3969  2.1930
   55CHL1   C13 6502   1.334   5.268   9.375 -0.0296  0.6272  0.8514
   55CHL1   C18 6503   1.479   5.316   9.346 -0.4533  0.6283 -0.6681
   55CHL1  H18A 6504   1.484   5.418   9.301  2.4865 -0.3880 -2.9548
   55CHL1  H18B 6505   1.537   5.318   9.441 -3.1246  1.0425  1.0628
   55CHL1  H18C 6506   1.530   5.245   9.277 -3.4451 -1.2647 -1.1312
   55CHL1   C12 6507   1.257   5.363   9.473  0.3051  0.2606 -0.2435
   55CHL1  H12A 6508   1.261   5.464   9.426  1.3238  0.6805  0.7134
   55CHL1  H12B 6509   1.152   5.327   9.479  0.7088 -0.6613  2.7559
   55CHL1   C11 6510   1.323   5.363   9.614 -0.6681  0.4297 -0.3800
   55CHL1  H11A 6511   1.424   5.403   9.596 -0.6014  0.8978  0.9094
   55CHL1  H11B 6512   1.277   5.433   9.688  1.6718 -0.3861  2.0008
   55CHL1    C9 6513   1.339   5.219   9.674 -1.0700  0.2733  0.0393
   55CHL1    H9 6514   1.230   5.195   9.676 -0.5382 -2.5687 -0.9090
   55CHL1   C10 6515   1.389   5.215   9.820 -0.0775 -0.0551 -0.7251
   55CHL1   C19 6516   1.504   5.319   9.828  0.5446 -0.1821  0.5735
   55CHL1  H19A 6517   1.585   5.298   9.755 -1.8152 -1.5844 -1.8520
   55CHL1  H19B 6518   1.463   5.422   9.818  1.0292 -0.0712 -0.3283
   55CHL1  H19C 6519   1.544   5.305   9.931 -4.2642 -2.4209  2.4766
   55CHL1    C1 6520   1.284   5.260   9.920  0.4997 -0.7645  0.5617
   55CHL1   H1A 6521   1.245   5.359   9.890  1.1642 -0.6875 -0.0644
   55CHL1   H1B 6522   1.195   5.195   9.903  1.2164 -1.2559 -1.6216
   55CHL1    C2 6523   1.324   5.247  10.071 -0.5497 -0.1239  0.0189
   55CHL1   H2A 6524   1.245   5.285  10.138 -1.5046 -1.2600 -0.4402
   55CHL1   H2B 6525   1.404   5.323  10.085 -0.3171 -0.1988 -0.8266
   55CHL1   C20 6526   1.272   5.335   9.119  0.2702  0.7163 -0.0258
   55CHL1   H20 6527   1.366   5.329   9.060 -1.1827  0.0141 -2.4340
   55CHL1   C21 6528   1.256   5.479   9.152  0.6268 -0.5020  0.0159
   55CHL1  H21A 6529   1.255   5.542   9.061  1.0286  0.6068  0.7397
   55CHL1  H21B 6530   1.341   5.515   9.215  1.7034  0.0034 -1.6709
   55CHL1  H21C 6531   1.164   5.502   9.211  1.7487 -0.2113  1.7493
   55CHL1   C22 6532   1.166   5.284   9.015  0.6815  0.1140 -0.3911
   55CHL1  H22A 6533   1.186   5.179   8.983 -0.0847  0.1435 -1.0012
   55CHL1  H22B 6534   1.068   5.271   9.068  1.0865  0.0180  0.3567
   55CHL1   C23 6535   1.148   5.380   8.900  0.3670 -0.7457  0.4474
   55CHL1  H23A 6536   1.108   5.479   8.931  0.7493 -0.1688 -0.8232
   55CHL1  H23B 6537   1.252   5.397   8.863  0.9142 -0.7934  1.8916
   55CHL1   C24 6538   1.063   5.322   8.787  0.3285  0.1232  0.1051
   55CHL1  H24A 6539   1.114   5.233   8.746  2.2165  2.1710 -2.3067
   55CHL1  H24B 6540   0.962   5.285   8.817  0.4510 -1.0887 -0.9222
   55CHL1   C25 6541   1.042   5.411   8.667 -0.1365  0.3172  0.5128
   55CHL1   H25 6542   1.144   5.443   8.638 -0.2961 -0.7402 -1.3649
   55CHL1   C26 6543   0.973   5.337   8.547 -0.1241 -0.6020 -0.5859
   55CHL1  H26A 6544   1.017   5.235   8.533  0.5087 -0.0685 -2.8258
   55CHL1  H26B 6545   0.864   5.325   8.568 -0.6526  2.4706 -1.1665
   55CHL1  H26C 6546   0.970   5.395   8.452 -1.4160  1.2206  0.5095
   55CHL1   C27 6547   0.961   5.539   8.697 -0.4370 -0.0022 -0.4212
   55CHL1  H27A 6548   0.999   5.601   8.782 -0.0494 -1.4504  0.5137
   55CHL1  H27B 6549   0.964   5.604   8.607  0.6280 -0.5184 -0.7696
   55CHL1  H27C 6550   0.857   5.516   8.729 -0.0122  0.9657  1.9071
   56CHL1    C3 6551   5.253   3.765   9.946  0.0409 -0.0479  0.5677
   56CHL1    H3 6552   5.347   3.713   9.917  0.1972 -0.7366  2.1919
   56CHL1    O3 6553   5.269   3.803  10.084  0.0675 -0.4650  0.2250
   56CHL1   H3' 6554   5.305   3.721  10.118  1.3504 -0.3089 -0.6828
   56CHL1    C4 6555   5.219   3.878   9.850  0.6036 -0.1856 -0.3092
   56CHL1   H4A 6556   5.134   3.938   9.889  1.8087 -0.9044  4.0384
   56CHL1   H4B 6557   5.304   3.950   9.857  1.0978 -0.7379 -0.5479
   56CHL1    C5 6558   5.182   3.840   9.705 -0.6087  0.2496  0.5001
   56CHL1    C6 6559   5.257   3.894   9.602 -0.1088 -0.6335 -1.1927
   56CHL1    H6 6560   5.352   3.944   9.629  0.2539 -1.1254 -1.5385
   56CHL1    C7 6561   5.213   3.870   9.458 -0.8349  0.0575  0.7075
   56CHL1   H7A 6562   5.200   3.968   9.407 -0.1252 -0.2301 -0.0457
   56CHL1   H7B 6563   5.297   3.818   9.407 -0.2457  1.8247 -0.2066
   56CHL1    C8 6564   5.086   3.779   9.435  0.1008  0.1064 -0.1436
   56CHL1    H8 6565   4.996   3.845   9.439  0.1385  0.1296  0.4147
   56CHL1   C14 6566   5.093   3.706   9.305  0.0754 -0.1607  0.0259
   56CHL1   H14 6567   5.184   3.642   9.311  0.1484  0.0487  2.1401
   56CHL1   C15 6568   5.104   3.801   9.185  0.5720 -0.2695 -0.3486
   56CHL1  H15A 6569   5.032   3.885   9.198 -0.7390 -1.6156  1.4407
   56CHL1  H15B 6570   5.205   3.848   9.175  0.8251 -0.8777 -0.6942
   56CHL1   C16 6571   5.056   3.712   9.067  0.1750 -0.0314 -0.2218
   56CHL1  H16A 6572   4.981   3.757   8.998  0.1049 -1.9605 -1.5116
   56CHL1  H16B 6573   5.146   3.689   9.006 -0.5114 -0.1871 -1.2112
   56CHL1   C17 6574   5.002   3.579   9.132  0.1148  0.3723  0.0762
   56CHL1   H17 6575   5.094   3.518   9.143  0.4111  0.9010  0.5733
   56CHL1   C13 6576   4.974   3.622   9.280 -1.0036  0.6650 -0.7960
   56CHL1   C18 6577   4.842   3.697   9.268 -0.3594  0.1188 -0.5272
   56CHL1  H18A 6578   4.828   3.752   9.364 -2.7702  0.2729 -0.8867
   56CHL1  H18B 6579   4.840   3.777   9.190  0.0254  1.9649  1.2610
   56CHL1  H18C 6580   4.759   3.625   9.252 -0.1309 -0.1981 -0.2971
   56CHL1   C12 6581   4.961   3.512   9.385  0.2035 -0.0233  0.1607
   56CHL1  H12A 6582   4.867   3.456   9.366  0.7696 -1.0288  0.2120
   56CHL1  H12B 6583   5.043   3.437   9.372 -0.3661 -0.5717 -0.3389
   56CHL1   C11 6584   4.961   3.577   9.520  0.2318  0.4218 -0.0905
   56CHL1  H11A 6585   4.860   3.623   9.524  0.9632  2.0187  1.7564
   56CHL1  H11B 6586   4.959   3.494   9.594 -2.3364  2.1845  2.0079
   56CHL1    C9 6587   5.078   3.671   9.547  0.0832 -0.2530  0.1640
   56CHL1    H9 6588   5.173   3.614   9.546  1.8868  2.5917 -0.3263
   56CHL1   C10 6589   5.078   3.736   9.689  0.4303  0.4589 -0.2238
   56CHL1   C19 6590   4.932   3.784   9.721 -0.5833  0.2497 -0.7318
   56CHL1  H19A 6591   4.913   3.812   9.827  3.4759  0.1710  0.1627
   56CHL1  H19B 6592   4.898   3.864   9.651 -1.5782  1.4443  1.0415
   56CHL1  H19C 6593   4.863   3.697   9.718  0.0463 -0.6946  4.1662
   56CHL1    C1 6594   5.114   3.625   9.794  0.1367 -0.2475  0.2054
   56CHL1   H1A 6595   5.033   3.550   9.802 -1.5828  1.5262  0.1004
   56CHL1   H1B 6596   5.202   3.565   9.761 -0.2528 -1.6306  1.5896
   56CHL1    C2 6597   5.144   3.662   9.938  0.0808  0.1758  0.2046
   56CHL1   H2A 6598   5.161   3.576  10.007 -1.4017  0.0038  0.3968
   56CHL1   H2B 6599   5.048   3.700   9.978  0.1674  1.0552 -0.3990
   56CHL1   C20 6600   4.901   3.496   9.049  0.3447  0.0744  0.3344
   56CHL1   H20 6601   4.805   3.552   9.057  0.4998  0.4264 -0.1844
   56CHL1   C21 6602   4.881   3.353   9.105 -0.3207  0.2248 -0.3302
   56CHL1  H21A 6603   4.831   3.364   9.204 -2.7470  1.0106 -1.5458
   56CHL1  H21B 6604   4.976   3.296   9.102  0.3927  1.2890  1.1158
   56CHL1  H21C 6605   4.800   3.301   9.049 -0.9533  0.6734  0.1456
   56CHL1   C22 6606   4.944   3.489   8.900  0.0058 -1.3342 -0.4228
   56CHL1  H22A 6607   4.991   3.584   8.865 -2.3551 -0.6940 -2.0775
   56CHL1  H22B 6608   5.016   3.404   8.891  0.0444 -1.1706 -1.9758
   56CHL1   C23 6609   4.826   3.449   8.816  0.0980  0.4168 -0.4855
   56CHL1  H23A 6610   4.764   3.365   8.854  1.0397 -1.5692 -2.9619
   56CHL1  H23B 6611   4.753   3.533   8.815 -0.1327  0.2192 -0.3707
   56CHL1   C24 6612   4.858   3.416   8.673  0.7692  0.0843 -0.3122
   56CHL1  H24A 6613   4.930   3.491   8.635  1.0870  0.4178  0.8949
   56CHL1  H24B 6614   4.899   3.315   8.655 -2.8565 -1.6582  0.2094
   56CHL1   C25 6615   4.736   3.412   8.580  0.1138 -0.0636 -0.3740
   56CHL1   H25 6616   4.690   3.513   8.590 -1.3423 -0.7602  0.1687
   56CHL1   C26 6617   4.780   3.398   8.434 -0.4798 -0.4064 -0.1439
   56CHL1  H26A 6618   4.818   3.294   8.427  1.9028  0.4721 -1.5416
   56CHL1  H26B 6619   4.701   3.417   8.358 -0.7119  3.6432  0.8998
   56CHL1  H26C 6620   4.858   3.473   8.412  0.8772 -1.7968 -0.2210
   56CHL1   C27 6621   4.637   3.305   8.622  0.4003  0.3940 -0.0076
   56CHL1  H27A 6622   4.549   3.284   8.558 -0.9176 -1.6849  2.3009
   56CHL1  H27B 6623   4.687   3.206   8.630 -0.1019  0.2407  1.5561
   56CHL1  H27C 6624   4.594   3.337   8.719 -1.7290  4.5625 -2.0898
   57CHL1    C3 6625   1.622   6.146  10.179  0.1612 -0.2334 -0.0017
   57CHL1    H3 6626   1.520   6.189  10.168  0.3972  1.3594  3.0230
   57CHL1    O3 6627   1.664   6.179  10.309  0.8377 -0.3053  0.0840
   57CHL1   H3' 6628   1.659   6.096  10.357  0.6204 -0.2861  0.0952
   57CHL1    C4 6629   1.638   5.999  10.156 -0.6408 -0.3471 -0.5920
   57CHL1   H4A 6630   1.738   5.974  10.197 -0.8455  0.3608  0.3762
   57CHL1   H4B 6631   1.575   5.938  10.225  1.0038 -0.5383  0.8023
   57CHL1    C5 6632   1.610   5.954  10.012  0.2183 -0.1989 -0.6077
   57CHL1    C6 6633   1.514   5.855   9.995 -0.3222 -0.3723 -0.2825
   57CHL1    H6 6634   1.460   5.809  10.079 -0.4202 -1.9158 -1.1644
   57CHL1    C7 6635   1.468   5.822   9.857  0.1368  0.1087 -0.1359
   57CHL1   H7A 6636   1.439   5.715   9.861 -0.2024  0.1978 -0.1848
   57CHL1   H7B 6637   1.380   5.887   9.840 -1.6881 -1.5477  2.2897
   57CHL1    C8 6638   1.573   5.853   9.745 -0.8349  0.3119  0.5699
   57CHL1    H8 6639   1.661   5.787   9.760 -0.5079 -0.1842 -2.6417
   57CHL1   C14 6640   1.525   5.831   9.598 -0.1170  0.1052 -0.5883
   57CHL1   H14 6641   1.452   5.912   9.580 -1.3236 -0.1188  2.6695
   57CHL1   C15 6642   1.469   5.693   9.566  0.8147 -0.3357 -0.2021
   57CHL1  H15A 6643   1.532   5.610   9.607  0.7011 -0.1160  0.4311
   57CHL1  H15B 6644   1.366   5.679   9.604  0.1908  2.1206 -0.8016
   57CHL1   C16 6645   1.474   5.688   9.412 -0.1232  0.7498  0.6775
   57CHL1  H16A 6646   1.541   5.607   9.377  0.0433  0.8570  0.7469
   57CHL1  H16B 6647   1.371   5.691   9.372  0.6470  0.9223 -1.3828
   57CHL1   C17 6648   1.551   5.815   9.361  0.3060  0.0931  0.3677
   57CHL1   H17 6649   1.466   5.886   9.352  0.8844  0.6950 -0.6172
   57CHL1   C13 6650   1.625   5.863   9.487  0.0740 -0.5589  0.3577
   57CHL1   C18 6651   1.747   5.781   9.508 -0.1096  0.8019 -0.4498
   57CHL1  H18A 6652   1.725   5.672   9.519 -2.9125  1.3362  0.0239
   57CHL1  H18B 6653   1.822   5.795   9.427  0.2251  1.8625  0.0320
   57CHL1  H18C 6654   1.802   5.812   9.599 -0.7228  3.2351 -0.8323
   57CHL1   C12 6655   1.651   6.014   9.497 -0.5188  0.6994 -0.0842
   57CHL1  H12A 6656   1.719   6.056   9.420  1.6489 -0.5515  1.0345
   57CHL1  H12B 6657   1.551   6.063   9.495 -1.7927 -1.3161  3.6874
   57CHL1   C11 6658   1.702   6.052   9.636 -0.0285  0.4007  0.2694
   57CHL1  H11A 6659   1.799   5.999   9.648 -1.3083 -1.7225  2.0402
   57CHL1  H11B 6660   1.715   6.162   9.640 -0.8555  0.5185 -0.1999
   57CHL1    C9 6661   1.620   6.001   9.758 -0.2243  0.0801  0.0698
   57CHL1    H9 6662   1.526   6.059   9.756 -0.1874  0.1501 -2.0716
   57CHL1   C10 6663   1.686   6.029   9.903  0.1306  0.6198 -0.3566
   57CHL1   C19 6664   1.835   5.981   9.905  0.4975  0.0541 -0.8397
   57CHL1  H19A 6665   1.843   5.886   9.849 -0.5812  0.2037 -1.2677
   57CHL1  H19B 6666   1.907   6.059   9.871 -0.3851  2.5641  2.5384
   57CHL1  H19C 6667   1.878   5.962  10.006  1.1508  0.2901 -1.0656
   57CHL1    C1 6668   1.688   6.178   9.933  0.0375  0.1519 -0.0536
   57CHL1   H1A 6669   1.777   6.222   9.884  0.5792  1.8338  2.2784
   57CHL1   H1B 6670   1.594   6.233   9.910  0.7452  1.3034 -0.2526
   57CHL1    C2 6671   1.722   6.210  10.079 -0.0680 -0.0969 -0.6485
   57CHL1   H2A 6672   1.710   6.318  10.103 -2.1867 -0.7373  1.5671
   57CHL1   H2B 6673   1.818   6.172  10.119 -0.5875 -1.0643 -0.2754
   57CHL1   C20 6674   1.614   5.808   9.225 -0.3081 -0.6249  0.3815
   57CHL1   H20 6675   1.699   5.738   9.237  0.3252  0.0425 -0.0901
   57CHL1   C21 6676   1.665   5.952   9.181 -0.0409  0.2229 -0.4053
   57CHL1  H21A 6677   1.758   5.973   9.238 -0.7770  1.8568  0.2627
   57CHL1  H21B 6678   1.582   6.026   9.178 -0.6622 -0.3584  1.3562
   57CHL1  H21C 6679   1.695   5.939   9.075  0.1423  1.8608 -0.5745
   57CHL1   C22 6680   1.512   5.752   9.117  0.7154  0.2008 -0.3891
   57CHL1  H22A 6681   1.463   5.657   9.149 -1.4079  0.6895 -1.9902
   57CHL1  H22B 6682   1.432   5.825   9.093 -0.8818 -1.3371  0.0721
   57CHL1   C23 6683   1.582   5.724   8.990  0.0418 -0.3174 -1.1613
   57CHL1  H23A 6684   1.589   5.823   8.940 -0.8766  0.2907 -0.1362
   57CHL1  H23B 6685   1.682   5.678   9.004 -0.4712 -1.5252 -1.3456
   57CHL1   C24 6686   1.493   5.643   8.898 -0.5445 -0.6744  0.0771
   57CHL1  H24A 6687   1.492   5.533   8.911  2.3414 -0.9427 -1.3549
   57CHL1  H24B 6688   1.390   5.683   8.914 -0.4333  1.0267 -2.7849
   57CHL1   C25 6689   1.539   5.659   8.756 -0.4845  0.8695  0.8933
   57CHL1   H25 6690   1.522   5.765   8.731 -1.9597  0.8837  1.8793
   57CHL1   C26 6691   1.684   5.613   8.723  0.0035  0.2098 -0.0180
   57CHL1  H26A 6692   1.701   5.588   8.616 -2.5577  0.6141 -0.6016
   57CHL1  H26B 6693   1.758   5.686   8.761  0.7249 -1.1953  1.3740
   57CHL1  H26C 6694   1.705   5.514   8.769 -0.7247 -1.1359 -2.3579
   57CHL1   C27 6695   1.443   5.585   8.667 -0.0237  0.3920  0.2627
   57CHL1  H27A 6696   1.425   5.484   8.710  1.5300 -0.0803 -0.1043
   57CHL1  H27B 6697   1.343   5.631   8.667 -0.0811  0.2746  0.8645
   57CHL1  H27C 6698   1.480   5.567   8.564  0.4589 -0.2343  0.5368
   58CHL1    C3 6699   5.464   4.984  10.066 -0.4347  0.3855 -0.2615
   58CHL1    H3 6700   5.405   4.890  10.072  0.0543 -0.0028 -1.1874
   58CHL1    O3 6701   5.504   5.027  10.188 -0.1683 -0.4457  0.1651
   58CHL1   H3' 6702   5.572   4.966  10.216  1.2016  1.6540  1.7406
   58CHL1    C4 6703   5.589   4.954   9.980 -0.1009 -0.4823 -0.0855
   58CHL1   H4A 6704   5.658   5.038   9.999 -1.2513  0.5919 -0.4706
   58CHL1   H4B 6705   5.636   4.861  10.018  1.0110  0.4017  0.7660
   58CHL1    C5 6706   5.555   4.933   9.832 -0.3828  0.0105 -0.4949
   58CHL1    C6 6707   5.593   4.825   9.765  0.0647 -0.0305 -0.1549
   58CHL1    H6 6708   5.651   4.749   9.820  0.0957  0.0707 -0.0466
   58CHL1    C7 6709   5.567   4.798   9.620 -0.2049  0.1823  0.2114
   58CHL1   H7A 6710   5.666   4.760   9.587 -0.8271 -1.6576  0.3259
   58CHL1   H7B 6711   5.494   4.715   9.605 -1.5790  1.7055 -2.0734
   58CHL1    C8 6712   5.527   4.933   9.539  0.3274  0.5897 -0.8955
   58CHL1    H8 6713   5.624   4.986   9.528  1.6989 -0.9629  2.2788
   58CHL1   C14 6714   5.457   4.897   9.408 -0.3769  0.3478 -0.3291
   58CHL1   H14 6715   5.364   4.847   9.441  0.1664 -0.0032  0.7350
   58CHL1   C15 6716   5.533   4.804   9.312 -0.0720 -0.7536 -0.4851
   58CHL1  H15A 6717   5.638   4.838   9.300 -0.4902  1.6114  1.6944
   58CHL1  H15B 6718   5.534   4.698   9.344  1.7316 -1.1420 -1.6500
   58CHL1   C16 6719   5.456   4.824   9.181  0.5370  0.5800  0.1158
   58CHL1  H16A 6720   5.540   4.867   9.121  0.7998 -1.1605 -0.8433
   58CHL1  H16B 6721   5.433   4.734   9.119 -0.7057  0.5277  0.6439
   58CHL1   C17 6722   5.346   4.931   9.207  0.3128 -0.0867 -0.3623
   58CHL1   H17 6723   5.254   4.882   9.246 -1.0799  1.7142 -1.2286
   58CHL1   C13 6724   5.402   5.013   9.324 -0.7367 -0.1095  0.1490
   58CHL1   C18 6725   5.519   5.100   9.273  0.2569  0.1267  0.1754
   58CHL1  H18A 6726   5.576   5.129   9.364  0.0955 -1.7086  0.9052
   58CHL1  H18B 6727   5.586   5.055   9.197 -1.4725  2.6673 -3.1135
   58CHL1  H18C 6728   5.474   5.191   9.227 -0.2761  0.6718  1.6845
   58CHL1   C12 6729   5.307   5.097   9.410  0.4211 -0.2835  0.1247
   58CHL1  H12A 6730   5.287   5.190   9.354  2.3681  0.8777  1.2179
   58CHL1  H12B 6731   5.220   5.034   9.440 -1.1047  2.8036  2.7742
   58CHL1   C11 6732   5.364   5.131   9.546  0.3047  0.0090  0.0485
   58CHL1  H11A 6733   5.444   5.207   9.538 -0.2750  0.6907  0.5440
   58CHL1  H11B 6734   5.287   5.181   9.609  1.8433  1.6242  0.7313
   58CHL1    C9 6735   5.426   5.007   9.624  0.2007 -1.2204  0.9348
   58CHL1    H9 6736   5.336   4.943   9.634 -0.9141  0.2290  0.4738
   58CHL1   C10 6737   5.464   5.041   9.765  0.0826  0.1215  0.5705
   58CHL1   C19 6738   5.553   5.170   9.760  0.2924 -0.0831 -0.4958
   58CHL1  H19A 6739   5.638   5.146   9.693 -0.1304  1.8772 -1.8247
   58CHL1  H19B 6740   5.492   5.259   9.732 -1.2027 -0.2178  1.9991
   58CHL1  H19C 6741   5.606   5.179   9.857  1.9694 -0.1378 -1.3694
   58CHL1    C1 6742   5.336   5.068   9.852  0.0275  0.2667 -0.8353
   58CHL1   H1A 6743   5.288   5.159   9.812  0.3512  0.6296 -0.4068
   58CHL1   H1B 6744   5.278   4.973   9.844  0.5810 -0.0054 -1.7467
   58CHL1    C2 6745   5.373   5.095   9.996 -0.0120 -1.1010 -0.1753
   58CHL1   H2A 6746   5.280   5.104  10.058  2.6281  0.7796  3.9574
   58CHL1   H2B 6747   5.411   5.198  10.014 -1.6976 -0.3840 -0.4568
   58CHL1   C20 6748   5.310   5.000   9.076 -0.6850 -0.4580 -0.0045
   58CHL1   H20 6749   5.395   5.057   9.033 -2.2127 -0.9519 -4.1103
   58CHL1   C21 6750   5.200   5.106   9.094  0.2124 -0.1829 -0.3278
   58CHL1  H21A 6751   5.228   5.179   9.173  0.8479  0.1198 -0.8271
   58CHL1  H21B 6752   5.103   5.060   9.124  0.5564 -1.5862 -1.2855
   58CHL1  H21C 6753   5.195   5.171   9.004  2.9031  0.3841 -0.1341
   58CHL1   C22 6754   5.261   4.901   8.967 -0.0127 -0.4559  0.0029
   58CHL1  H22A 6755   5.338   4.824   8.952  2.6887  2.1414 -0.3928
   58CHL1  H22B 6756   5.167   4.850   8.998  0.0118 -1.1204 -1.0000
   58CHL1   C23 6757   5.245   4.960   8.829 -0.0275  0.4081  0.1163
   58CHL1  H23A 6758   5.168   5.039   8.837  0.0216  0.4690 -0.0186
   58CHL1  H23B 6759   5.343   5.003   8.798  1.3603 -1.9452  0.9339
   58CHL1   C24 6760   5.192   4.854   8.733 -0.6299  0.5118  0.2179
   58CHL1  H24A 6761   5.256   4.766   8.752 -0.5569  0.6171  0.4581
   58CHL1  H24B 6762   5.088   4.826   8.761 -1.1977 -0.0945 -2.2489
   58CHL1   C25 6763   5.203   4.879   8.582  0.0417 -1.2579 -0.1658
   58CHL1   H25 6764   5.298   4.933   8.563 -0.3061 -0.9049 -0.9016
   58CHL1   C26 6765   5.201   4.753   8.494  0.1620  1.2199  0.0096
   58CHL1  H26A 6766   5.206   4.778   8.386  3.4040 -0.4237 -0.3488
   58CHL1  H26B 6767   5.299   4.703   8.509 -0.3288 -0.2136 -1.2857
   58CHL1  H26C 6768   5.107   4.695   8.506  0.9381 -0.2626 -0.7758
   58CHL1   C27 6769   5.089   4.961   8.527 -0.3841  0.4315 -0.7623
   58CHL1  H27A 6770   5.086   5.062   8.573  1.1083 -0.3432  1.1965
   58CHL1  H27B 6771   5.100   4.986   8.419 -0.4311 -0.6651 -1.0383
   58CHL1  H27C 6772   4.998   4.906   8.560  0.3848  0.5701  1.8414
   59CHL1    C3 6773   3.996   4.508  10.164 -0.4405  0.2886  0.2604
   59CHL1    H3 6774   4.101   4.542  10.153 -0.3641 -0.4482 -1.5768
   59CHL1    O3 6775   3.964   4.517  10.300 -0.2687  0.3026 -0.1225
   59CHL1   H3' 6776   3.874   4.483  10.296 -1.1627  2.4569  0.1136
   59CHL1    C4 6777   3.904   4.596  10.084 -0.3089 -0.1373 -0.7774
   59CHL1   H4A 6778   3.803   4.562  10.114 -0.0585 -0.4484 -0.2810
   59CHL1   H4B 6779   3.912   4.703  10.110 -0.0613  0.1190 -1.8480
   59CHL1    C5 6780   3.919   4.566   9.932  0.4063  0.0313  0.0744
   59CHL1    C6 6781   3.949   4.663   9.843 -0.4345  0.0029  0.2420
   59CHL1    H6 6782   3.961   4.767   9.876  0.0814 -0.4827  1.6542
   59CHL1    C7 6783   3.964   4.655   9.691 -0.0270 -0.2223  0.0277
   59CHL1   H7A 6784   3.898   4.732   9.646  0.4304  0.1489 -0.0156
   59CHL1   H7B 6785   4.068   4.669   9.655  0.2009 -0.1746  0.7029
   59CHL1    C8 6786   3.906   4.521   9.648 -0.3232 -0.1593  0.1400
   59CHL1    H8 6787   3.797   4.541   9.654 -0.3232 -0.2521  0.4290
   59CHL1   C14 6788   3.946   4.492   9.506 -0.6319  0.6299  0.3868
   59CHL1   H14 6789   4.057   4.486   9.502 -0.6950  0.0012 -2.5598
   59CHL1   C15 6790   3.928   4.612   9.412  0.2591 -0.6198  0.2530
   59CHL1  H15A 6791   3.829   4.661   9.427  0.5064 -0.5915  1.9764
   59CHL1  H15B 6792   4.007   4.687   9.430  1.2554 -1.1453 -1.6298
   59CHL1   C16 6793   3.934   4.551   9.271  0.3663 -0.0961  0.1548
   59CHL1  H16A 6794   3.837   4.576   9.222  1.2270  0.3886 -1.3836
   59CHL1  H16B 6795   4.013   4.599   9.209 -1.7471  1.2050 -1.6674
   59CHL1   C17 6796   3.952   4.391   9.296 -0.0579  0.4269 -0.1312
   59CHL1   H17 6797   4.060   4.366   9.305 -0.4095 -0.7266  1.0001
   59CHL1   C13 6798   3.897   4.371   9.442 -0.3158  0.0260  0.1850
   59CHL1   C18 6799   3.744   4.368   9.435 -0.1244  0.6623 -0.6551
   59CHL1  H18A 6800   3.706   4.438   9.357 -2.8933  1.1447  0.9863
   59CHL1  H18B 6801   3.714   4.264   9.408  0.5854  0.1279  0.5499
   59CHL1  H18C 6802   3.690   4.386   9.530 -0.1880  2.5093 -1.0070
   59CHL1   C12 6803   3.947   4.255   9.530  0.0930 -0.9060 -0.3234
   59CHL1  H12A 6804   3.915   4.161   9.479  1.1255 -2.0190  1.0221
   59CHL1  H12B 6805   4.057   4.271   9.536 -0.4055  2.9216  1.2417
   59CHL1   C11 6806   3.901   4.272   9.673  0.5412 -0.1492 -0.2624
   59CHL1  H11A 6807   3.791   4.257   9.665  0.5002 -0.0695  0.1478
   59CHL1  H11B 6808   3.938   4.191   9.739  0.8637  0.6928  0.6135
   59CHL1    C9 6809   3.947   4.402   9.734 -0.3875  0.5477 -0.0400
   59CHL1    H9 6810   4.057   4.389   9.739 -0.4428  0.1497  0.1787
   59CHL1   C10 6811   3.905   4.424   9.881 -0.4150  0.1621  0.1956
   59CHL1   C19 6812   3.755   4.375   9.894  0.5715  0.2425  0.1218
   59CHL1  H19A 6813   3.709   4.393   9.993  3.3190 -0.7383  1.6988
   59CHL1  H19B 6814   3.687   4.417   9.817 -0.4256 -1.3750  0.0912
   59CHL1  H19C 6815   3.755   4.264   9.890  2.5408  0.1047  1.8910
   59CHL1    C1 6816   3.990   4.332   9.974 -0.7667 -0.1953 -0.5930
   59CHL1   H1A 6817   3.961   4.227   9.951 -1.1481 -0.0002 -1.0120
   59CHL1   H1B 6818   4.098   4.345   9.949 -0.9793  0.1832 -1.3364
   59CHL1    C2 6819   3.974   4.357  10.121  0.2470  0.0296 -0.3571
   59CHL1   H2A 6820   4.035   4.284  10.178  1.3694  0.9824 -0.3091
   59CHL1   H2B 6821   3.871   4.325  10.147  0.5792 -1.9991 -1.3189
   59CHL1   C20 6822   3.889   4.301   9.185 -0.1706  0.4118 -0.1041
   59CHL1   H20 6823   3.779   4.319   9.187 -0.1766  0.7069  3.4705
   59CHL1   C21 6824   3.914   4.154   9.205 -0.7960  0.2604 -0.3518
   59CHL1  H21A 6825   3.878   4.090   9.122 -3.1289 -0.5720  1.2033
   59CHL1  H21B 6826   3.844   4.119   9.284 -1.1913 -0.5649 -1.0547
   59CHL1  H21C 6827   4.019   4.138   9.237 -1.0244 -1.2230 -0.2976
   59CHL1   C22 6828   3.938   4.334   9.043  0.0096  0.2954  0.4292
   59CHL1  H22A 6829   3.896   4.253   8.980 -1.1361  0.5877  0.7876
   59CHL1  H22B 6830   3.898   4.430   9.004  1.4843  1.7846  2.3796
   59CHL1   C23 6831   4.088   4.344   9.020 -0.5592  0.5436  0.2790
   59CHL1  H23A 6832   4.127   4.446   9.043 -1.9306  2.0392 -3.3460
   59CHL1  H23B 6833   4.136   4.265   9.083 -0.0361  0.1280 -0.6230
   59CHL1   C24 6834   4.131   4.297   8.877  0.4532 -0.0798  0.4258
   59CHL1  H24A 6835   4.241   4.303   8.864  0.4998 -2.7861 -1.1982
   59CHL1  H24B 6836   4.104   4.189   8.878 -0.8314  0.2285  1.0603
   59CHL1   C25 6837   4.061   4.368   8.758  0.3384  0.6487 -0.0324
   59CHL1   H25 6838   3.950   4.364   8.767  0.3248  2.5578  1.0878
   59CHL1   C26 6839   4.109   4.508   8.747 -0.3764  0.0155 -0.7496
   59CHL1  H26A 6840   4.216   4.518   8.721  0.3372 -2.2430  1.0991
   59CHL1  H26B 6841   4.057   4.568   8.669  0.6064 -1.0761 -2.2925
   59CHL1  H26C 6842   4.089   4.557   8.845 -1.5576 -1.0369 -0.4343
   59CHL1   C27 6843   4.074   4.286   8.627  0.0542 -0.3163  0.7301
   59CHL1  H27A 6844   4.011   4.324   8.543 -0.6390  1.4231  1.9718
   59CHL1  H27B 6845   4.181   4.292   8.597  0.1351  0.5954  1.1837
   59CHL1  H27C 6846   4.058   4.178   8.646  0.4088 -0.4840  0.1017
   60CHL1    C3 6847   4.734   1.813   9.910  0.5172 -0.4430  0.2951
   60CHL1    H3 6848   4.774   1.709   9.903  0.2414 -0.4643 -1.4425
   60CHL1    O3 6849   4.752   1.875  10.037  0.2183  0.5475  0.4915
   60CHL1   H3' 6850   4.688   1.946  10.029  0.2234  0.8687  2.7055
   60CHL1    C4 6851   4.809   1.894   9.802  0.3401 -0.1357 -0.4617
   60CHL1   H4A 6852   4.790   2.003   9.810  1.8968  0.1767 -0.6948
   60CHL1   H4B 6853   4.914   1.876   9.833  0.3151  0.9321  0.3037
   60CHL1    C5 6854   4.786   1.844   9.664  0.6097  0.5665 -0.2335
   60CHL1    C6 6855   4.883   1.807   9.582 -0.4922  0.4926  0.6782
   60CHL1    H6 6856   4.986   1.808   9.620 -0.5232 -1.6430  0.9599
   60CHL1    C7 6857   4.867   1.758   9.440  0.1425  0.0789 -0.2027
   60CHL1   H7A 6858   4.939   1.816   9.379 -0.0689  0.2322 -0.3119
   60CHL1   H7B 6859   4.881   1.648   9.434 -0.8550 -0.1487  1.0746
   60CHL1    C8 6860   4.728   1.784   9.383  0.4643 -0.0592 -0.0230
   60CHL1    H8 6861   4.729   1.893   9.364  1.5214 -0.0984 -0.2888
   60CHL1   C14 6862   4.712   1.698   9.253 -0.0445 -0.6380 -0.3475
   60CHL1   H14 6863   4.727   1.589   9.271 -1.6701 -0.7960  0.2469
   60CHL1   C15 6864   4.823   1.724   9.141  0.6884  0.2310 -0.4059
   60CHL1  H15A 6865   4.839   1.834   9.140  0.8092  0.2269  0.3204
   60CHL1  H15B 6866   4.919   1.677   9.172  0.8598  1.3724  0.9100
   60CHL1   C16 6867   4.750   1.665   9.014  0.1445  0.5732 -0.9920
   60CHL1  H16A 6868   4.755   1.734   8.927 -2.1660  2.4035  0.2089
   60CHL1  H16B 6869   4.806   1.577   8.978  2.7756  1.3805  0.8157
   60CHL1   C17 6870   4.603   1.630   9.060 -0.5156 -0.7647  0.2385
   60CHL1   H17 6871   4.611   1.529   9.107 -0.4509  0.4708  3.0848
   60CHL1   C13 6872   4.579   1.716   9.183 -0.2718 -0.2199 -0.1440
   60CHL1   C18 6873   4.559   1.861   9.143  0.1400  0.0734  0.1394
   60CHL1  H18A 6874   4.646   1.904   9.089 -0.3589  1.9332  0.7535
   60CHL1  H18B 6875   4.472   1.863   9.074  0.1197 -1.3111  0.0954
   60CHL1  H18C 6876   4.529   1.933   9.222  1.9640  0.2646  0.7065
   60CHL1   C12 6877   4.477   1.668   9.283  0.9200 -0.9132 -0.0146
   60CHL1  H12A 6878   4.375   1.685   9.241  0.3541 -1.7811  0.9493
   60CHL1  H12B 6879   4.502   1.562   9.305 -1.9639 -1.9644 -1.2297
   60CHL1   C11 6880   4.482   1.739   9.422 -0.2166  0.0928 -0.1150
   60CHL1  H11A 6881   4.456   1.847   9.415  1.1288  0.5239  1.0089
   60CHL1  H11B 6882   4.398   1.696   9.481 -0.9441  0.6608 -0.7162
   60CHL1    C9 6883   4.618   1.740   9.484 -1.2215 -0.0528 -0.6157
   60CHL1    H9 6884   4.646   1.636   9.508 -1.9705 -0.0305  0.3664
   60CHL1   C10 6885   4.636   1.823   9.622 -0.3860 -0.3169  0.5731
   60CHL1   C19 6886   4.579   1.965   9.601  0.9284  0.6498 -0.8372
   60CHL1  H19A 6887   4.575   2.024   9.694 -2.4992  0.5508 -0.7915
   60CHL1  H19B 6888   4.617   2.006   9.505 -0.7245  0.8382 -1.4325
   60CHL1  H19C 6889   4.471   1.950   9.580  1.5862 -0.6526 -3.9589
   60CHL1    C1 6890   4.558   1.749   9.735 -0.7303  0.1395  1.1546
   60CHL1   H1A 6891   4.451   1.745   9.705 -0.3820 -1.2124 -0.0082
   60CHL1   H1B 6892   4.590   1.643   9.748  1.0044 -0.0119 -2.9572
   60CHL1    C2 6893   4.580   1.817   9.877  0.7934  0.3778  0.5329
   60CHL1   H2A 6894   4.520   1.773   9.959 -0.6130  1.9637  0.4080
   60CHL1   H2B 6895   4.536   1.919   9.885 -1.6489 -0.6283  0.7030
   60CHL1   C20 6896   4.501   1.622   8.948 -0.9698 -0.7451  0.1485
   60CHL1   H20 6897   4.503   1.717   8.890  1.3855 -0.9100 -0.1197
   60CHL1   C21 6898   4.353   1.594   8.997  0.5260 -0.7169 -0.0617
   60CHL1  H21A 6899   4.286   1.547   8.922 -0.3429 -2.0685  1.5066
   60CHL1  H21B 6900   4.295   1.686   9.022 -0.1060 -1.2285  0.4138
   60CHL1  H21C 6901   4.356   1.515   9.075 -1.1334 -0.1727  0.6134
   60CHL1   C22 6902   4.536   1.511   8.852 -0.1604 -1.2130  1.0927
   60CHL1  H22A 6903   4.640   1.530   8.815  0.0675 -1.4688  1.5879
   60CHL1  H22B 6904   4.549   1.415   8.906  1.3707 -1.6875 -0.0291
   60CHL1   C23 6905   4.461   1.493   8.722  0.9263 -0.2560 -0.2650
   60CHL1  H23A 6906   4.496   1.405   8.664 -0.5903 -0.1143 -1.4813
   60CHL1  H23B 6907   4.353   1.481   8.747  0.8018  0.0478 -0.6513
   60CHL1   C24 6908   4.480   1.603   8.616  0.3362 -0.7782  0.0875
   60CHL1  H24A 6909   4.415   1.689   8.644  1.1285 -0.2699  0.4024
   60CHL1  H24B 6910   4.580   1.651   8.621 -0.6030  1.3161 -0.0173
   60CHL1   C25 6911   4.445   1.569   8.471  0.5183 -0.6444  0.3246
   60CHL1   H25 6912   4.509   1.480   8.451 -0.5814 -1.4394  0.2197
   60CHL1   C26 6913   4.300   1.510   8.455 -0.2543 -0.0644  0.4242
   60CHL1  H26A 6914   4.295   1.421   8.522  0.3996 -2.1116 -2.0707
   60CHL1  H26B 6915   4.233   1.595   8.479 -1.5151 -0.6784 -0.8223
   60CHL1  H26C 6916   4.282   1.475   8.351  3.1913  0.9765 -0.6679
   60CHL1   C27 6917   4.474   1.682   8.377 -0.3262  0.2069 -0.2514
   60CHL1  H27A 6918   4.450   1.775   8.434  0.7614 -0.9305  2.2252
   60CHL1  H27B 6919   4.579   1.709   8.351 -1.0292  2.2952 -1.2069
   60CHL1  H27C 6920   4.430   1.674   8.275  0.6378 -0.7621 -0.6137
   61CHL1    C3 6921   1.232   2.304  10.440  0.5197  1.2150  0.5898
   61CHL1    H3 6922   1.327   2.246  10.445  1.2788  2.4199  0.5316
   61CHL1    O3 6923   1.174   2.301  10.566 -0.2850  0.0268 -0.2527
   61CHL1   H3' 6924   1.155   2.210  10.588  0.2557  0.1412  0.7489
   61CHL1    C4 6925   1.260   2.447  10.390  0.5959 -0.2570 -0.0609
   61CHL1   H4A 6926   1.164   2.500  10.408  0.6968  0.7347 -2.1645
   61CHL1   H4B 6927   1.335   2.490  10.460  1.1622 -0.0251 -0.8007
   61CHL1    C5 6928   1.304   2.450  10.243 -0.9176  0.1352 -0.5266
   61CHL1    C6 6929   1.420   2.515  10.217  0.3685 -0.5501 -0.3759
   61CHL1    H6 6930   1.476   2.561  10.299 -0.3829 -2.1631  1.0902
   61CHL1    C7 6931   1.457   2.538  10.072  0.4209  0.9186 -0.2791
   61CHL1   H7A 6932   1.474   2.647  10.055 -1.2435  1.1600 -0.5932
   61CHL1   H7B 6933   1.548   2.475  10.065  2.2643  3.1818  1.4209
   61CHL1    C8 6934   1.350   2.495   9.964  0.3154 -0.0880 -0.5190
   61CHL1    H8 6935   1.281   2.582   9.956 -0.2619 -0.5660 -0.7835
   61CHL1   C14 6936   1.412   2.475   9.829 -0.0271 -0.3542 -0.4905
   61CHL1   H14 6937   1.467   2.380   9.844  3.2749  1.0488 -2.5679
   61CHL1   C15 6938   1.519   2.575   9.782 -0.3092 -0.0268  0.9825
   61CHL1  H15A 6939   1.477   2.678   9.787 -1.2476 -0.3927  0.8053
   61CHL1  H15B 6940   1.624   2.568   9.819 -0.2341 -2.5761  0.4696
   61CHL1   C16 6941   1.526   2.547   9.625  0.3542  0.6380 -0.0879
   61CHL1  H16A 6942   1.514   2.641   9.567  2.9945  0.5289 -0.9140
   61CHL1  H16B 6943   1.628   2.511   9.602 -0.2118 -0.6132 -0.7249
   61CHL1   C17 6944   1.420   2.438   9.595  0.6827  0.0147  0.1490
   61CHL1   H17 6945   1.471   2.339   9.595 -0.0444 -0.3700 -0.4682
   61CHL1   C13 6946   1.318   2.445   9.713 -0.1997  0.3573 -0.3229
   61CHL1   C18 6947   1.232   2.570   9.698  0.5362  0.0918  0.8715
   61CHL1  H18A 6948   1.178   2.571   9.601  2.5811  3.6802 -0.4306
   61CHL1  H18B 6949   1.164   2.580   9.785  1.0637 -0.8466  1.4056
   61CHL1  H18C 6950   1.277   2.672   9.696 -1.7548  1.1856  1.6751
   61CHL1   C12 6951   1.240   2.314   9.752 -0.2213  0.1778 -0.6189
   61CHL1  H12A 6952   1.159   2.299   9.678 -0.5498  0.3202 -0.2939
   61CHL1  H12B 6953   1.313   2.232   9.738 -0.7404 -0.0670 -2.0576
   61CHL1   C11 6954   1.177   2.323   9.892 -0.1731  0.5538 -0.1653
   61CHL1  H11A 6955   1.088   2.390   9.887  0.1035  0.9538  0.2695
   61CHL1  H11B 6956   1.149   2.216   9.905  2.1337 -0.0065  0.5235
   61CHL1    C9 6957   1.282   2.365  10.003  0.1785 -0.4548  0.4785
   61CHL1    H9 6958   1.364   2.290  10.007  2.2214  1.7232  2.2902
   61CHL1   C10 6959   1.213   2.377  10.145  0.0012 -0.4659  0.8575
   61CHL1   C19 6960   1.077   2.454  10.135  0.8921 -0.2658  0.0990
   61CHL1  H19A 6961   1.086   2.553  10.085 -0.4208  0.1056  0.5430
   61CHL1  H19B 6962   1.010   2.384  10.080  1.1521  0.1454 -0.7546
   61CHL1  H19C 6963   1.037   2.466  10.238  2.7627 -0.6614  0.9064
   61CHL1    C1 6964   1.186   2.233  10.195  0.8226  0.6362 -0.3429
   61CHL1   H1A 6965   1.107   2.180  10.137  1.1629  0.5597 -0.7413
   61CHL1   H1B 6966   1.281   2.176  10.185  0.2226 -0.9316  2.1497
   61CHL1    C2 6967   1.134   2.231  10.342 -0.0711 -0.0624  0.7073
   61CHL1   H2A 6968   1.126   2.122  10.360 -1.8375 -0.4277 -1.7027
   61CHL1   H2B 6969   1.034   2.274  10.362  0.0063  0.2492  0.4408
   61CHL1   C20 6970   1.361   2.456   9.453  0.3501 -0.4940 -0.7878
   61CHL1   H20 6971   1.310   2.553   9.435 -1.1461 -1.2021 -0.4988
   61CHL1   C21 6972   1.260   2.344   9.428 -0.1906  0.0546  0.8340
   61CHL1  H21A 6973   1.173   2.347   9.497 -0.4791 -0.0211  0.4727
   61CHL1  H21B 6974   1.315   2.248   9.434 -1.2109 -0.7179 -1.2866
   61CHL1  H21C 6975   1.215   2.347   9.326  2.1123  0.2665 -0.2346
   61CHL1   C22 6976   1.477   2.451   9.350  0.9195  0.4779  0.1733
   61CHL1  H22A 6977   1.523   2.552   9.355  3.5336 -0.4474 -2.2542
   61CHL1  H22B 6978   1.556   2.382   9.389  0.3478  0.4224  1.2778
   61CHL1   C23 6979   1.437   2.416   9.204  0.1692 -0.0462 -0.2251
   61CHL1  H23A 6980   1.388   2.318   9.187 -1.6249  0.6051  0.9525
   61CHL1  H23B 6981   1.361   2.490   9.174  0.5396  0.2005 -0.5664
   61CHL1   C24 6982   1.557   2.419   9.105  0.3003  0.1530 -0.1277
   61CHL1  H24A 6983   1.593   2.523   9.090 -0.5367  0.5421  0.4734
   61CHL1  H24B 6984   1.639   2.361   9.152 -0.8356 -0.3278  1.3773
   61CHL1   C25 6985   1.515   2.364   8.969 -0.5313  0.5825  0.1840
   61CHL1   H25 6986   1.493   2.255   8.969  1.5442  0.1210  1.4803
   61CHL1   C26 6987   1.395   2.434   8.906 -0.7517 -0.3575  0.2932
   61CHL1  H26A 6988   1.404   2.545   8.907 -0.4109 -0.3849  0.4312
   61CHL1  H26B 6989   1.374   2.395   8.804  0.8344  0.7359 -0.4903
   61CHL1  H26C 6990   1.299   2.413   8.958 -1.1542 -2.1189 -1.0837
   61CHL1   C27 6991   1.644   2.372   8.880  0.1303  0.5219 -0.4772
   61CHL1  H27A 6992   1.689   2.473   8.891  0.5564  0.1420  1.8711
   61CHL1  H27B 6993   1.718   2.292   8.900 -0.4563 -0.0000 -0.3497
   61CHL1  H27C 6994   1.619   2.366   8.772  1.7008  1.7552 -0.9546
   62CHL1    C3 6995   0.261   6.433   9.963 -0.0137  0.7489  0.7515
   62CHL1    H3 6996   0.151   6.441   9.961  0.0479  1.6763 -0.8289
   62CHL1    O3 6997   0.309   6.433  10.095  0.1923 -0.3260 -0.3215
   62CHL1   H3' 6998   0.404   6.438  10.088  0.1024 -0.5607 -2.1535
   62CHL1    C4 6999   0.297   6.302   9.896  0.2387  0.0302  0.4046
   62CHL1   H4A 7000   0.405   6.282   9.912  0.3241  0.2707  0.1334
   62CHL1   H4B 7001   0.237   6.223   9.948 -1.3164  0.4246 -0.6971
   62CHL1    C5 7002   0.269   6.293   9.745  1.0239 -0.3169 -0.3176
   62CHL1    C6 7003   0.179   6.206   9.691 -0.6450 -0.6750 -0.5355
   62CHL1    H6 7004   0.128   6.138   9.761 -0.6445  0.3602  0.4806
   62CHL1    C7 7005   0.152   6.192   9.545  0.0848 -0.3358  0.4467
   62CHL1   H7A 7006   0.144   6.085   9.514  0.4593  0.0232 -0.9601
   62CHL1   H7B 7007   0.053   6.239   9.523  0.9343  1.7772  0.9178
   62CHL1    C8 7008   0.268   6.264   9.457  0.4696 -0.3777  0.9268
   62CHL1    H8 7009   0.359   6.201   9.458  0.7371 -0.1037 -1.1266
   62CHL1   C14 7010   0.215   6.272   9.313  0.6267 -0.2905  0.5872
   62CHL1   H14 7011   0.120   6.329   9.316  0.6974  0.0022 -1.5427
   62CHL1   C15 7012   0.186   6.132   9.256  0.8443 -0.2493  0.2712
   62CHL1  H15A 7013   0.272   6.069   9.287  3.0851  1.4880 -1.9277
   62CHL1  H15B 7014   0.096   6.078   9.290  2.8887 -4.0340  0.1799
   62CHL1   C16 7015   0.192   6.168   9.101 -0.4354 -0.6133  0.2459
   62CHL1  H16A 7016   0.245   6.090   9.042 -0.1278  0.8469 -1.4981
   62CHL1  H16B 7017   0.089   6.153   9.063 -0.0975 -1.9682 -0.2379
   62CHL1   C17 7018   0.230   6.315   9.082 -0.2761  0.0327  0.0045
   62CHL1   H17 7019   0.135   6.372   9.083 -0.2093  0.1552  1.4437
   62CHL1   C13 7020   0.310   6.349   9.216  0.0969  0.2215 -0.8035
   62CHL1   C18 7021   0.444   6.284   9.208  0.0923  0.6257  0.1710
   62CHL1  H18A 7022   0.508   6.328   9.128  1.5448 -0.8073  0.5131
   62CHL1  H18B 7023   0.504   6.287   9.301 -0.5530  0.2054  0.6099
   62CHL1  H18C 7024   0.442   6.175   9.191  1.2853  0.4907  0.8241
   62CHL1   C12 7025   0.315   6.489   9.267 -0.4180 -0.1925 -0.5276
   62CHL1  H12A 7026   0.369   6.558   9.199  2.3492 -2.4482 -0.8080
   62CHL1  H12B 7027   0.211   6.528   9.271  0.4492  2.3450  3.3117
   62CHL1   C11 7028   0.365   6.502   9.419 -0.5295 -0.5841  0.2095
   62CHL1  H11A 7029   0.475   6.486   9.425 -0.3741 -0.0593 -0.8865
   62CHL1  H11B 7030   0.347   6.609   9.444  1.3330  0.2821 -1.7684
   62CHL1    C9 7031   0.288   6.405   9.512 -0.4816 -0.3718 -0.3817
   62CHL1    H9 7032   0.183   6.440   9.502 -0.7347 -1.3381 -1.2985
   62CHL1   C10 7033   0.330   6.403   9.660 -0.3504 -0.7992 -0.1339
   62CHL1   C19 7034   0.480   6.377   9.660 -0.3216  0.4516 -0.1113
   62CHL1  H19A 7035   0.521   6.334   9.755 -0.0644  1.6487  0.3371
   62CHL1  H19B 7036   0.493   6.303   9.579  0.2201  1.4486 -0.9577
   62CHL1  H19C 7037   0.545   6.465   9.640  1.1912 -1.0534 -2.2099
   62CHL1    C1 7038   0.284   6.536   9.725 -0.5933 -0.0208 -0.3131
   62CHL1   H1A 7039   0.346   6.612   9.673 -0.0389  0.0827  0.4730
   62CHL1   H1B 7040   0.181   6.557   9.692  0.1475 -0.2077 -2.9840
   62CHL1    C2 7041   0.320   6.545   9.882  0.5100 -1.0173  0.3083
   62CHL1   H2A 7042   0.293   6.643   9.926  3.6954  0.8348 -1.4383
   62CHL1   H2B 7043   0.431   6.541   9.885  0.5855  0.4393  0.2313
   62CHL1   C20 7044   0.286   6.341   8.943  0.7006 -0.1578  0.1910
   62CHL1   H20 7045   0.395   6.320   8.956  0.0787 -3.5142  1.0529
   62CHL1   C21 7046   0.267   6.490   8.914 -0.2732 -0.7204  0.4578
   62CHL1  H21A 7047   0.338   6.517   8.834  0.4745  0.0769  1.3680
   62CHL1  H21B 7048   0.295   6.558   8.997  0.4201  0.4664 -0.7101
   62CHL1  H21C 7049   0.161   6.506   8.885  0.0320 -0.0400 -0.3328
   62CHL1   C22 7050   0.234   6.251   8.832  0.5488  0.1643  0.2081
   62CHL1  H22A 7051   0.251   6.144   8.857  1.1362 -0.2473 -1.8129
   62CHL1  H22B 7052   0.123   6.252   8.832  0.5321 -0.0204  1.2626
   62CHL1   C23 7053   0.287   6.277   8.692  0.1806 -0.5880 -0.5435
   62CHL1  H23A 7054   0.272   6.385   8.669 -2.2122 -0.3804  1.5540
   62CHL1  H23B 7055   0.396   6.254   8.686 -0.6058 -4.9503 -1.7263
   62CHL1   C24 7056   0.222   6.179   8.587  0.1507  0.4687 -0.0336
   62CHL1  H24A 7057   0.267   6.079   8.606 -0.4540  0.1422 -0.3030
   62CHL1  H24B 7058   0.113   6.165   8.595 -0.5416  4.3136 -0.8318
   62CHL1   C25 7059   0.253   6.232   8.435  0.0762  0.1977 -0.0820
   62CHL1   H25 7060   0.364   6.239   8.431  0.0536  0.6092 -0.0044
   62CHL1   C26 7061   0.184   6.144   8.330 -0.5069  0.5612 -0.1394
   62CHL1  H26A 7062   0.180   6.185   8.227  0.3888 -0.0385 -0.4254
   62CHL1  H26B 7063   0.233   6.045   8.334 -1.6558 -0.0159 -0.1605
   62CHL1  H26C 7064   0.085   6.119   8.372 -0.2586 -0.5190 -0.1806
   62CHL1   C27 7065   0.207   6.374   8.405  0.1122  0.0597  0.0199
   62CHL1  H27A 7066   0.097   6.373   8.395 -0.0161  1.4174  0.9251
   62CHL1  H27B 7067   0.228   6.447   8.487 -1.4925  0.0461  0.4703
   62CHL1  H27C 7068   0.251   6.415   8.311 -1.5391  1.4304 -0.2119
   63CHL1    C3 7069   3.172   0.495  10.372 -0.6475  0.5393 -0.2477
   63CHL1    H3 7070   3.242   0.554  10.434  0.2220  0.0192 -0.7110
   63CHL1    O3 7071   3.121   0.394  10.458 -0.0514 -0.9036 -0.0722
   63CHL1   H3' 7072   3.045   0.351  10.418 -0.5645 -1.3097  1.2904
   63CHL1    C4 7073   3.051   0.575  10.309 -0.3807  0.2292  0.3795
   63CHL1   H4A 7074   2.989   0.494  10.264 -0.4996  0.3456  0.3319
   63CHL1   H4B 7075   2.992   0.620  10.391 -1.8817  0.4290 -0.7606
   63CHL1    C5 7076   3.097   0.674  10.206 -0.0022 -0.6394  0.3260
   63CHL1    C6 7077   3.069   0.805  10.209  0.4301 -0.4073 -0.3126
   63CHL1    H6 7078   3.002   0.837  10.290  0.9107 -0.2168  0.0119
   63CHL1    C7 7079   3.096   0.899  10.091  0.3262 -0.1050  0.1606
   63CHL1   H7A 7080   3.002   0.951  10.061  0.1668 -0.2388  0.4182
   63CHL1   H7B 7081   3.158   0.985  10.123 -0.5122  0.6144 -0.1081
   63CHL1    C8 7082   3.148   0.829   9.964 -0.1263  0.5194  0.3794
   63CHL1    H8 7083   3.064   0.780   9.911 -1.2122 -0.4506  2.8283
   63CHL1   C14 7084   3.212   0.936   9.872 -0.2295  0.2131 -0.2369
   63CHL1   H14 7085   3.293   0.968   9.940 -0.7747 -0.8638  0.9545
   63CHL1   C15 7086   3.130   1.050   9.828  0.1258 -0.0722  0.6428
   63CHL1  H15A 7087   3.035   1.011   9.784  0.6834 -0.4621 -0.2532
   63CHL1  H15B 7088   3.119   1.141   9.891 -0.3196  0.8820 -0.7617
   63CHL1   C16 7089   3.208   1.109   9.709 -0.5578  0.4292 -0.3105
   63CHL1  H16A 7090   3.138   1.116   9.623 -1.4316  0.3965  0.3751
   63CHL1  H16B 7091   3.237   1.216   9.724 -0.4814  0.3696 -0.0233
   63CHL1   C17 7092   3.327   1.011   9.682  0.4780 -0.1384 -0.3952
   63CHL1   H17 7093   3.410   1.053   9.743 -0.0856  1.9165 -0.9814
   63CHL1   C13 7094   3.279   0.883   9.745  0.2898  0.3838 -0.4198
   63CHL1   C18 7095   3.169   0.823   9.654 -0.2316 -0.6515  0.4467
   63CHL1  H18A 7096   3.095   0.898   9.617 -0.1930 -0.8161  0.0267
   63CHL1  H18B 7097   3.212   0.773   9.564  0.3502  0.7337 -0.0816
   63CHL1  H18C 7098   3.115   0.739   9.702 -0.4877 -0.7539 -0.0118
   63CHL1   C12 7099   3.378   0.783   9.778 -0.3796  0.8144 -0.1986
   63CHL1  H12A 7100   3.414   0.723   9.692 -0.8282  0.8421 -0.4066
   63CHL1  H12B 7101   3.474   0.831   9.807  0.6952 -2.7586  2.9782
   63CHL1   C11 7102   3.328   0.674   9.875  0.5900  0.2491 -0.2779
   63CHL1  H11A 7103   3.261   0.608   9.816 -0.3816  1.7268 -0.8780
   63CHL1  H11B 7104   3.416   0.609   9.892  0.5902  0.2017 -0.4551
   63CHL1    C9 7105   3.254   0.722  10.003  0.2369 -0.3786  0.1998
   63CHL1    H9 7106   3.336   0.768  10.061 -0.0715 -0.7639  0.9575
   63CHL1   C10 7107   3.187   0.609  10.090 -0.2288  0.3841 -0.7640
   63CHL1   C19 7108   3.098   0.511  10.005  0.1394  0.1608  0.3563
   63CHL1  H19A 7109   3.021   0.569   9.952  1.5028  1.4786 -0.2723
   63CHL1  H19B 7110   3.147   0.448   9.928 -2.6676  0.4240 -1.7591
   63CHL1  H19C 7111   3.053   0.431  10.067 -0.2620 -1.7641 -2.2939
   63CHL1    C1 7112   3.306   0.528  10.163  0.1117  0.3908 -0.2012
   63CHL1   H1A 7113   3.362   0.482  10.079  1.7338  0.1491  0.9462
   63CHL1   H1B 7114   3.376   0.596  10.216 -0.1938 -0.2252  1.0464
   63CHL1    C2 7115   3.251   0.428  10.268 -0.4583 -0.6776  0.1784
   63CHL1   H2A 7116   3.333   0.369  10.316  0.1710 -1.2282 -1.5061
   63CHL1   H2B 7117   3.189   0.349  10.219  0.5690 -1.5239  0.1966
   63CHL1   C20 7118   3.360   1.012   9.528 -0.2512  0.3962 -0.0709
   63CHL1   H20 7119   3.272   0.997   9.461  0.0981  1.9597 -0.9333
   63CHL1   C21 7120   3.467   0.909   9.480 -0.6776  0.8428 -0.2060
   63CHL1  H21A 7121   3.435   0.802   9.483  6.0569 -1.6951  2.6947
   63CHL1  H21B 7122   3.544   0.902   9.560 -0.0164 -0.4082 -0.9136
   63CHL1  H21C 7123   3.514   0.932   9.382  0.5536  0.3354  0.2433
   63CHL1   C22 7124   3.433   1.151   9.482  0.1593  0.0835 -0.0144
   63CHL1  H22A 7125   3.365   1.229   9.522 -1.4850 -1.9163  1.2716
   63CHL1  H22B 7126   3.523   1.162   9.546  0.6073  0.2963 -0.6696
   63CHL1   C23 7127   3.461   1.180   9.340 -0.5141  0.5650 -0.4367
   63CHL1  H23A 7128   3.508   1.280   9.344 -1.8435  1.1713  1.0553
   63CHL1  H23B 7129   3.541   1.110   9.306  1.1186  2.2237 -0.1696
   63CHL1   C24 7130   3.345   1.187   9.242  0.3339 -0.0373 -0.4335
   63CHL1  H24A 7131   3.275   1.107   9.275  0.0476  0.9251  1.4516
   63CHL1  H24B 7132   3.274   1.272   9.258  1.2607  0.8016 -0.6453
   63CHL1   C25 7133   3.374   1.162   9.091  0.0826 -0.3317  0.1145
   63CHL1   H25 7134   3.278   1.145   9.037  0.1466  1.3444 -0.5969
   63CHL1   C26 7135   3.456   1.278   9.030  0.5696  0.2447 -0.1086
   63CHL1  H26A 7136   3.560   1.282   9.067  1.1436  2.8500 -1.7436
   63CHL1  H26B 7137   3.462   1.268   8.919 -1.8938  0.1191 -0.3015
   63CHL1  H26C 7138   3.409   1.375   9.056  0.0085  0.1388 -0.6741
   63CHL1   C27 7139   3.464   1.031   9.077  0.1096  0.0248 -0.1866
   63CHL1  H27A 7140   3.572   1.053   9.093 -0.4343  2.8672  0.0670
   63CHL1  H27B 7141   3.429   0.957   9.152 -1.0586  1.8880  1.1799
   63CHL1  H27C 7142   3.465   0.997   8.971  0.0602  0.2966 -0.2754
   64CHL1    C3 7143   2.228   6.253  10.034 -0.0157 -1.0434  0.0524
   64CHL1    H3 7144   2.120   6.230  10.046 -0.7779  1.9855 -0.1778
   64CHL1    O3 7145   2.284   6.324  10.146  0.1416 -0.0250  0.2614
   64CHL1   H3' 7146   2.376   6.344  10.125 -0.2216  1.0964 -0.4033
   64CHL1    C4 7147   2.315   6.126  10.012  0.5814  0.2648  0.1371
   64CHL1   H4A 7148   2.423   6.152  10.001  0.8403 -0.2473  1.2945
   64CHL1   H4B 7149   2.307   6.070  10.108  1.9188  4.1123  2.7609
   64CHL1    C5 7150   2.265   6.050   9.884 -0.5443 -0.5847  0.0809
   64CHL1    C6 7151   2.228   5.919   9.879 -0.2500  0.1670 -0.1528
   64CHL1    H6 7152   2.234   5.864   9.975 -1.1976  1.0051  0.4151
   64CHL1    C7 7153   2.176   5.844   9.753  0.2848 -0.0345 -0.5521
   64CHL1   H7A 7154   2.239   5.754   9.742  2.6826  1.7036 -1.9831
   64CHL1   H7B 7155   2.070   5.818   9.773  1.0699 -1.4705  2.3170
   64CHL1    C8 7156   2.201   5.924   9.621 -0.1784 -0.0329 -0.7178
   64CHL1    H8 7157   2.311   5.931   9.603  0.0823  3.4744  1.1727
   64CHL1   C14 7158   2.137   5.858   9.503 -0.9185  0.3914  0.2838
   64CHL1   H14 7159   2.028   5.866   9.526 -1.0789 -0.6077 -0.0774
   64CHL1   C15 7160   2.171   5.710   9.467 -0.0291 -0.0116 -0.6801
   64CHL1  H15A 7161   2.269   5.679   9.508 -0.3646 -5.0104 -2.8702
   64CHL1  H15B 7162   2.091   5.655   9.522  0.8118 -0.9129 -0.3211
   64CHL1   C16 7163   2.152   5.698   9.314  0.1216  0.5377  0.0610
   64CHL1  H16A 7164   2.250   5.672   9.270 -0.5951 -0.3995 -1.0652
   64CHL1  H16B 7165   2.086   5.611   9.293  2.1075 -1.3387  1.2403
   64CHL1   C17 7166   2.095   5.835   9.266  0.3828  0.3560 -0.3491
   64CHL1   H17 7167   1.985   5.822   9.275  0.5762 -0.9050  0.4912
   64CHL1   C13 7168   2.150   5.942   9.374  0.2862  0.3846  0.0169
   64CHL1   C18 7169   2.302   5.951   9.338  0.7016 -0.5875  0.2717
   64CHL1  H18A 7170   2.368   5.862   9.339  3.7748  1.5509  0.3533
   64CHL1  H18B 7171   2.320   5.992   9.237  1.7818  0.8959  1.0262
   64CHL1  H18C 7172   2.354   6.014   9.413 -0.6524  0.9508 -0.0212
   64CHL1   C12 7173   2.077   6.071   9.395 -0.0636 -0.0671 -0.2512
   64CHL1  H12A 7174   2.062   6.145   9.314 -1.1218  0.2418  0.2171
   64CHL1  H12B 7175   1.974   6.038   9.419  0.1091 -0.8311 -0.5176
   64CHL1   C11 7176   2.139   6.148   9.509 -0.6098 -0.6989  0.6196
   64CHL1  H11A 7177   2.234   6.185   9.464 -0.4174  2.0635  3.0297
   64CHL1  H11B 7178   2.073   6.234   9.533  0.1234  0.6617 -1.9161
   64CHL1    C9 7179   2.160   6.065   9.641  0.3823  0.4379 -0.3640
   64CHL1    H9 7180   2.058   6.050   9.681  0.1833 -0.0238 -1.0265
   64CHL1   C10 7181   2.239   6.139   9.758 -0.1156  0.0817 -0.2625
   64CHL1   C19 7182   2.377   6.177   9.696 -0.1838  0.2823 -0.7292
   64CHL1  H19A 7183   2.440   6.230   9.770 -2.2278 -2.2464  3.2099
   64CHL1  H19B 7184   2.434   6.105   9.633 -1.6661 -3.0899  1.4823
   64CHL1  H19C 7185   2.363   6.261   9.625 -0.4891 -0.4601 -1.5718
   64CHL1    C1 7186   2.159   6.269   9.800 -0.5864  0.1092 -0.3337
   64CHL1   H1A 7187   2.169   6.338   9.713  1.7912  1.4392  0.8827
   64CHL1   H1B 7188   2.055   6.234   9.813 -0.4564  0.2673  1.2478
   64CHL1    C2 7189   2.226   6.345   9.913  0.0089  0.6685 -0.6983
   64CHL1   H2A 7190   2.171   6.439   9.937  0.0288  1.0110 -1.9322
   64CHL1   H2B 7191   2.333   6.363   9.892  0.1718 -0.5098 -0.9304
   64CHL1   C20 7192   2.131   5.866   9.116  0.1143  0.6781 -0.1759
   64CHL1   H20 7193   2.241   5.862   9.104  0.2001 -1.3608  0.8767
   64CHL1   C21 7194   2.072   6.005   9.086 -0.7857 -0.4512  0.3632
   64CHL1  H21A 7195   1.985   6.033   9.148 -1.8606 -0.0179 -1.2741
   64CHL1  H21B 7196   2.045   5.991   8.979  1.4961  0.3402 -0.3697
   64CHL1  H21C 7197   2.145   6.088   9.092 -0.5305 -0.5127 -1.2456
   64CHL1   C22 7198   2.074   5.753   9.024 -0.6895  0.5045 -0.1025
   64CHL1  H22A 7199   2.138   5.667   9.052 -2.7873 -0.7665  1.0887
   64CHL1  H22B 7200   1.965   5.732   9.035 -0.2281 -2.5561 -0.5120
   64CHL1   C23 7201   2.100   5.785   8.871 -0.3107 -0.5161  0.2691
   64CHL1  H23A 7202   2.026   5.861   8.837 -0.3482  0.1936  1.8596
   64CHL1  H23B 7203   2.201   5.830   8.865  0.9356 -3.2639 -1.1065
   64CHL1   C24 7204   2.097   5.661   8.778  0.0077 -0.9269 -0.1546
   64CHL1  H24A 7205   2.176   5.590   8.810 -1.2594 -2.0644  0.5539
   64CHL1  H24B 7206   1.996   5.619   8.793 -2.4710  4.7547  1.8143
   64CHL1   C25 7207   2.125   5.689   8.628 -0.3586  0.3287 -0.5374
   64CHL1   H25 7208   2.213   5.755   8.618  0.8788 -0.7298  2.2292
   64CHL1   C26 7209   2.157   5.563   8.554 -0.4419  0.3929  0.3062
   64CHL1  H26A 7210   2.243   5.505   8.593 -0.8557 -1.4342 -1.3325
   64CHL1  H26B 7211   2.070   5.493   8.554  0.3938 -0.7034 -1.1689
   64CHL1  H26C 7212   2.171   5.593   8.448  2.2191  3.4151  1.3605
   64CHL1   C27 7213   2.014   5.760   8.544 -0.7453 -0.4492  0.3649
   64CHL1  H27A 7214   2.039   5.756   8.436  0.9093  2.4145  0.5256
   64CHL1  H27B 7215   1.909   5.724   8.550 -0.8049 -1.1110 -3.0285
   64CHL1  H27C 7216   2.028   5.868   8.569 -0.2821  0.0247 -1.7299
   65CHL1    C3 7217   4.452   4.476  10.147  0.7713 -0.0278  0.2687
   65CHL1    H3 7218   4.351   4.431  10.131  1.3687 -1.7633  1.1029
   65CHL1    O3 7219   4.494   4.455  10.281 -0.7375 -0.7653 -0.1470
   65CHL1   H3' 7220   4.562   4.522  10.293 -3.3200  1.8240  1.4458
   65CHL1    C4 7221   4.550   4.407  10.051 -0.7031 -0.2920  0.9299
   65CHL1   H4A 7222   4.650   4.455  10.067 -1.1063  1.2494 -0.7865
   65CHL1   H4B 7223   4.561   4.305  10.093  2.8286 -0.3071  0.3153
   65CHL1    C5 7224   4.507   4.420   9.907 -0.5940  0.2674  0.4142
   65CHL1    C6 7225   4.470   4.315   9.832 -0.1720  0.0721 -0.8737
   65CHL1    H6 7226   4.477   4.209   9.863  5.0779 -0.3078 -2.3134
   65CHL1    C7 7227   4.434   4.332   9.688  0.2028 -0.1998  0.3139
   65CHL1   H7A 7228   4.482   4.254   9.626 -0.9558 -0.3052 -0.4891
   65CHL1   H7B 7229   4.325   4.324   9.665  0.3538  0.1499 -0.5447
   65CHL1    C8 7230   4.483   4.468   9.629  0.4559  0.5977 -0.9418
   65CHL1    H8 7231   4.593   4.465   9.616  0.6204  0.1477  0.4164
   65CHL1   C14 7232   4.413   4.492   9.493  0.4582 -0.8708  0.9484
   65CHL1   H14 7233   4.302   4.490   9.504 -0.0186  2.4206 -1.7223
   65CHL1   C15 7234   4.432   4.377   9.386 -0.5051 -0.4992 -0.2251
   65CHL1  H15A 7235   4.528   4.322   9.396  0.3707  0.9610 -0.3121
   65CHL1  H15B 7236   4.349   4.305   9.401 -1.9578  1.4310  1.5614
   65CHL1   C16 7237   4.413   4.450   9.250  0.2112  0.5623 -0.0413
   65CHL1  H16A 7238   4.509   4.449   9.193 -0.2587  2.8699 -0.9713
   65CHL1  H16B 7239   4.337   4.395   9.190  0.1692 -1.3356  1.6359
   65CHL1   C17 7240   4.380   4.608   9.286 -0.2786 -0.2692 -0.2756
   65CHL1   H17 7241   4.271   4.609   9.306 -0.2113 -2.3085  0.4402
   65CHL1   C13 7242   4.450   4.621   9.426  0.4308 -0.4929 -0.2534
   65CHL1   C18 7243   4.605   4.634   9.393  0.1546 -0.0356  0.2794
   65CHL1  H18A 7244   4.626   4.538   9.340 -1.2769 -0.7917  1.0179
   65CHL1  H18B 7245   4.637   4.721   9.333  0.3455  2.0259  3.1724
   65CHL1  H18C 7246   4.659   4.635   9.490 -0.0524 -2.9357  0.5087
   65CHL1   C12 7247   4.398   4.736   9.518  0.7268  1.0268  0.3688
   65CHL1  H12A 7248   4.402   4.835   9.467  0.7697  1.1362  0.5839
   65CHL1  H12B 7249   4.290   4.714   9.525  0.4286  1.4362 -2.0246
   65CHL1   C11 7250   4.460   4.725   9.657 -0.4304 -0.1785  0.3850
   65CHL1  H11A 7251   4.567   4.750   9.643 -1.4373  3.6610 -1.9247
   65CHL1  H11B 7252   4.426   4.802   9.730  0.2777 -0.6255  1.2062
   65CHL1    C9 7253   4.439   4.582   9.719 -0.5135 -0.1144  0.0292
   65CHL1    H9 7254   4.328   4.571   9.727 -0.3100 -1.2660  1.6282
   65CHL1   C10 7255   4.500   4.565   9.858  0.3393  0.0340 -0.5938
   65CHL1   C19 7256   4.638   4.615   9.857 -0.4327  0.4234  0.1914
   65CHL1  H19A 7257   4.643   4.725   9.844  0.3362  0.1698 -2.2005
   65CHL1  H19B 7258   4.699   4.605   9.950  1.2548 -0.5236 -0.9567
   65CHL1  H19C 7259   4.696   4.579   9.770 -0.4667 -0.4648  0.5273
   65CHL1    C1 7260   4.410   4.641   9.960  0.5429  1.1353 -1.1782
   65CHL1   H1A 7261   4.411   4.750   9.937  1.1792  1.4383  0.1693
   65CHL1   H1B 7262   4.305   4.611   9.943 -0.1128 -0.0927  3.5959
   65CHL1    C2 7263   4.441   4.621  10.110 -0.8539  0.5347 -0.0993
   65CHL1   H2A 7264   4.369   4.663  10.183 -0.0349 -0.1359  1.1142
   65CHL1   H2B 7265   4.540   4.669  10.120 -0.8301  0.1154  2.1932
   65CHL1   C20 7266   4.415   4.684   9.159 -0.6130 -0.3253 -0.0229
   65CHL1   H20 7267   4.518   4.662   9.122 -1.0663 -1.1432 -0.8706
   65CHL1   C21 7268   4.425   4.846   9.185  0.0561  0.2874  0.4278
   65CHL1  H21A 7269   4.489   4.863   9.274 -0.4097 -0.8052  1.0024
   65CHL1  H21B 7270   4.327   4.898   9.185 -1.8903 -2.9903  1.7742
   65CHL1  H21C 7271   4.483   4.886   9.100  1.0003 -2.5598 -0.4037
   65CHL1   C22 7272   4.316   4.654   9.038 -0.1338  0.1045 -0.5534
   65CHL1  H22A 7273   4.308   4.546   9.015 -2.4262 -0.0237  0.5196
   65CHL1  H22B 7274   4.221   4.701   9.071  1.2483 -0.4074  5.1582
   65CHL1   C23 7275   4.356   4.726   8.913 -0.2962  0.3450  0.0921
   65CHL1  H23A 7276   4.452   4.781   8.924 -0.4579  1.0342 -1.5967
   65CHL1  H23B 7277   4.371   4.657   8.827 -5.0177  0.0989 -0.8112
   65CHL1   C24 7278   4.253   4.833   8.870 -0.1487 -0.2991  0.4080
   65CHL1  H24A 7279   4.156   4.778   8.867  0.0888 -0.7418 -2.3828
   65CHL1  H24B 7280   4.243   4.916   8.942 -0.4317 -0.7180  0.8594
   65CHL1   C25 7281   4.278   4.899   8.732 -0.2656  0.0703  0.5509
   65CHL1   H25 7282   4.376   4.952   8.736  0.1560 -0.7445  1.2608
   65CHL1   C26 7283   4.266   4.805   8.610 -0.9012 -0.3235 -0.5209
   65CHL1  H26A 7284   4.297   4.859   8.519 -3.0527  2.9508  0.5218
   65CHL1  H26B 7285   4.320   4.708   8.618 -2.1945 -0.9388  2.1072
   65CHL1  H26C 7286   4.160   4.773   8.595 -0.2759 -2.3429 -0.9843
   65CHL1   C27 7287   4.168   5.001   8.716 -0.5347  0.5841  0.2591
   65CHL1  H27A 7288   4.208   5.069   8.638  1.1797  0.3778  0.9168
   65CHL1  H27B 7289   4.073   4.949   8.694 -0.9518  1.5764 -0.3602
   65CHL1  H27C 7290   4.158   5.056   8.812  1.4255 -3.4521  3.0615
   66CHL1    C3 7291   1.778   3.380  10.442  0.8971 -0.5124  0.4439
   66CHL1    H3 7292   1.684   3.411  10.393  1.3372 -0.6524 -0.4984
   66CHL1    O3 7293   1.766   3.427  10.578  0.5205  0.6906 -0.3911
   66CHL1   H3' 7294   1.848   3.404  10.624 -0.3232 -1.5838  0.1364
   66CHL1    C4 7295   1.778   3.230  10.440 -0.6908  0.2271 -0.6814
   66CHL1   H4A 7296   1.857   3.206  10.514 -0.7584  0.9526 -0.3557
   66CHL1   H4B 7297   1.681   3.188  10.476  0.0642 -0.1764  0.9756
   66CHL1    C5 7298   1.785   3.179  10.301 -0.5072 -0.2472 -0.4477
   66CHL1    C6 7299   1.694   3.093  10.245 -0.7410 -0.5460 -0.4732
   66CHL1    H6 7300   1.618   3.057  10.316  0.3197  0.0696  1.0270
   66CHL1    C7 7301   1.703   3.035  10.111 -0.7172 -0.0257  0.1844
   66CHL1   H7A 7302   1.689   2.925  10.126 -2.4052  0.0026 -0.9541
   66CHL1   H7B 7303   1.625   3.080  10.046  0.7769  1.6133 -0.5378
   66CHL1    C8 7304   1.851   3.057  10.052 -0.0859  0.6938  0.3569
   66CHL1    H8 7305   1.918   2.982  10.101 -0.0582 -1.3070 -2.5195
   66CHL1   C14 7306   1.846   3.028   9.903 -0.5527 -0.3676  0.2067
   66CHL1   H14 7307   1.771   3.103   9.871 -2.1245 -1.4575  1.1778
   66CHL1   C15 7308   1.790   2.893   9.860 -0.3129  0.9051 -0.0312
   66CHL1  H15A 7309   1.858   2.812   9.894 -1.4845 -0.3934 -0.6825
   66CHL1  H15B 7310   1.684   2.883   9.889 -0.1292 -0.5679  0.2190
   66CHL1   C16 7311   1.806   2.904   9.706 -0.3035  0.1380  0.2676
   66CHL1  H16A 7312   1.819   2.798   9.674 -1.0122 -0.4004  1.6804
   66CHL1  H16B 7313   1.712   2.940   9.658  0.8005  1.7149 -0.7911
   66CHL1   C17 7314   1.921   3.002   9.682  0.5661  0.0671 -0.1339
   66CHL1   H17 7315   1.875   3.097   9.649 -1.4745 -0.1385  1.8806
   66CHL1   C13 7316   1.977   3.040   9.823  0.1128 -0.5952 -0.8023
   66CHL1   C18 7317   2.088   2.951   9.876 -0.1381  0.6140  0.3153
   66CHL1  H18A 7318   2.087   2.853   9.823 -2.0693  0.3679  0.7312
   66CHL1  H18B 7319   2.176   3.014   9.850 -0.8761  0.9472 -1.5213
   66CHL1  H18C 7320   2.097   2.930   9.985 -0.6385  0.4178  0.3199
   66CHL1   C12 7321   2.015   3.187   9.840 -0.0019 -0.3174  0.8654
   66CHL1  H12A 7322   2.100   3.222   9.778 -1.3193 -1.0222 -1.4986
   66CHL1  H12B 7323   1.926   3.238   9.797 -0.0666  1.0789  2.5489
   66CHL1   C11 7324   2.031   3.224   9.989  0.4929  0.0024  0.1289
   66CHL1  H11A 7325   2.118   3.166  10.026  0.0566 -0.6386  0.1854
   66CHL1  H11B 7326   2.052   3.332   9.994  0.2682 -0.0299  2.6288
   66CHL1    C9 7327   1.903   3.195  10.074  1.3662 -0.6920  0.0127
   66CHL1    H9 7328   1.825   3.261  10.031  0.9926  0.9884  2.9621
   66CHL1   C10 7329   1.905   3.233  10.221  0.0580 -0.0393 -0.4266
   66CHL1   C19 7330   2.039   3.174  10.284  0.4030  0.0140 -0.0522
   66CHL1  H19A 7331   2.049   3.064  10.272  1.6145 -0.5219  4.0340
   66CHL1  H19B 7332   2.128   3.218  10.234  2.1085 -1.4456  1.5149
   66CHL1  H19C 7333   2.047   3.200  10.392 -0.3181  0.0027  0.0073
   66CHL1    C1 7334   1.919   3.383  10.230  0.2329  0.1909  1.1139
   66CHL1   H1A 7335   2.017   3.418  10.191  0.4323 -0.3962  1.0662
   66CHL1   H1B 7336   1.845   3.430  10.162 -1.5327 -4.5791 -0.6983
   66CHL1    C2 7337   1.902   3.436  10.372 -0.2837  0.0135 -0.1524
   66CHL1   H2A 7338   1.900   3.547  10.367  0.1118  0.2180  2.7033
   66CHL1   H2B 7339   1.990   3.411  10.434 -0.4898  0.9625  0.5542
   66CHL1   C20 7340   2.019   2.962   9.570 -0.8084 -0.3268 -0.3117
   66CHL1   H20 7341   2.091   2.885   9.604  2.6712  3.0719  0.8040
   66CHL1   C21 7342   2.116   3.079   9.541  0.3767 -0.2517 -0.0592
   66CHL1  H21A 7343   2.050   3.167   9.533 -0.7508 -1.1090 -0.4844
   66CHL1  H21B 7344   2.164   3.055   9.443  0.8591 -0.0663  0.1328
   66CHL1  H21C 7345   2.199   3.096   9.612  2.1489 -1.9661 -1.5904
   66CHL1   C22 7346   1.944   2.922   9.440 -0.2334 -0.1427 -0.4241
   66CHL1  H22A 7347   1.854   2.860   9.459 -1.9059  1.8030 -1.5708
   66CHL1  H22B 7348   1.914   3.010   9.380  0.7054 -0.6020 -1.6161
   66CHL1   C23 7349   2.037   2.817   9.362 -0.2280  0.8342 -0.0922
   66CHL1  H23A 7350   2.088   2.886   9.291 -0.7491  0.0209 -1.2969
   66CHL1  H23B 7351   2.103   2.768   9.437  0.5628  0.6409 -0.9017
   66CHL1   C24 7352   1.953   2.719   9.277 -0.1258 -0.7757  0.7267
   66CHL1  H24A 7353   1.850   2.757   9.263  0.5181  0.6759 -0.3111
   66CHL1  H24B 7354   1.995   2.700   9.176  2.2164 -0.5515  1.5826
   66CHL1   C25 7355   1.932   2.583   9.339  0.5256  0.0236  0.4870
   66CHL1   H25 7356   2.026   2.531   9.367  0.4683 -0.5608 -0.3509
   66CHL1   C26 7357   1.866   2.589   9.480 -0.0234  0.0580  0.7425
   66CHL1  H26A 7358   1.760   2.622   9.473  0.1916  0.3427 -2.2640
   66CHL1  H26B 7359   1.873   2.501   9.547  1.4541 -1.0366 -0.7728
   66CHL1  H26C 7360   1.920   2.665   9.541  0.3331 -0.2229  0.7793
   66CHL1   C27 7361   1.859   2.491   9.240 -0.6422  0.4738  0.0996
   66CHL1  H27A 7362   1.751   2.517   9.241 -0.5552  0.8493  0.8211
   66CHL1  H27B 7363   1.909   2.499   9.141 -0.3068 -0.3625  0.1987
   66CHL1  H27C 7364   1.859   2.385   9.273 -1.5240  0.6816  0.8156
   67CHL1    C3 7365   6.623   2.288  10.120 -0.0741 -0.3418 -0.1420
   67CHL1    H3 7366   6.733   2.275  10.115  0.0402  0.6337 -0.3826
   67CHL1    O3 7367   6.572   2.225  10.235  0.1396 -0.1831  0.1539
   67CHL1   H3' 7368   6.477   2.238  10.230  0.2070  0.5741  0.7228
   67CHL1    C4 7369   6.589   2.438  10.121  0.4332  0.4500 -0.0518
   67CHL1   H4A 7370   6.478   2.440  10.122  0.4058  1.1809 -1.4641
   67CHL1   H4B 7371   6.633   2.485  10.211 -0.2253  2.1566 -0.5897
   67CHL1    C5 7372   6.637   2.511   9.993  0.0964  0.1394  0.7275
   67CHL1    C6 7373   6.709   2.621   9.995 -0.0906 -0.8682 -0.0380
   67CHL1    H6 7374   6.730   2.666  10.092 -2.4669  4.0586 -1.4886
   67CHL1    C7 7375   6.758   2.693   9.870 -0.1653  0.4699  0.1604
   67CHL1   H7A 7376   6.729   2.800   9.863 -1.6886  0.0392 -0.3693
   67CHL1   H7B 7377   6.869   2.686   9.868 -0.0183  1.7716  1.5448
   67CHL1    C8 7378   6.699   2.638   9.733  0.0937 -0.1167  0.4742
   67CHL1    H8 7379   6.597   2.679   9.717 -0.0608 -0.7261 -0.1849
   67CHL1   C14 7380   6.787   2.674   9.619  0.4436  0.4220 -0.3129
   67CHL1   H14 7381   6.890   2.637   9.639 -0.1856  0.0088  2.6498
   67CHL1   C15 7382   6.815   2.821   9.598 -0.5373  0.7630  0.4445
   67CHL1  H15A 7383   6.721   2.879   9.612 -1.1473  0.7058 -2.7178
   67CHL1  H15B 7384   6.895   2.857   9.666 -0.4853  3.8497 -1.0937
   67CHL1   C16 7385   6.864   2.834   9.454  0.1028 -0.3298 -0.2364
   67CHL1  H16A 7386   6.818   2.905   9.382 -1.1926 -0.6114  0.2924
   67CHL1  H16B 7387   6.973   2.845   9.433  0.0820  0.0797 -0.1338
   67CHL1   C17 7388   6.839   2.692   9.388  0.3115 -0.1534 -0.1203
   67CHL1   H17 7389   6.930   2.630   9.400 -0.4187 -1.3043 -0.3903
   67CHL1   C13 7390   6.736   2.624   9.487  0.3712  0.3301  0.2921
   67CHL1   C18 7391   6.600   2.683   9.456 -0.6766 -0.4940 -0.1663
   67CHL1  H18A 7392   6.590   2.794   9.453 -2.2865 -0.6088 -3.0093
   67CHL1  H18B 7393   6.575   2.671   9.348 -3.1418  2.7804 -0.1337
   67CHL1  H18C 7394   6.522   2.639   9.521  1.5465 -0.2899  2.8713
   67CHL1   C12 7395   6.742   2.468   9.489 -0.2333 -0.3918 -0.3385
   67CHL1  H12A 7396   6.713   2.404   9.402 -0.4243 -1.0843  0.2219
   67CHL1  H12B 7397   6.846   2.446   9.520  0.2555  2.8877  0.6831
   67CHL1   C11 7398   6.652   2.417   9.596  0.9334 -0.0928 -0.0354
   67CHL1  H11A 7399   6.546   2.439   9.571  1.0674 -1.6454 -2.2120
   67CHL1  H11B 7400   6.647   2.306   9.602  2.2543 -0.1761 -0.1680
   67CHL1    C9 7401   6.686   2.484   9.740  0.3608 -0.2959 -1.1781
   67CHL1    H9 7402   6.792   2.462   9.763  0.4186 -0.8556 -1.9648
   67CHL1   C10 7403   6.599   2.436   9.857  0.5061  0.2672 -0.0410
   67CHL1   C19 7404   6.451   2.478   9.822  0.0006 -0.6204  0.2768
   67CHL1  H19A 7405   6.378   2.454   9.902 -0.2055 -1.4745 -0.1572
   67CHL1  H19B 7406   6.432   2.588   9.816 -3.3292 -1.0495  0.9000
   67CHL1  H19C 7407   6.416   2.439   9.725  0.1929 -0.2754  0.0666
   67CHL1    C1 7408   6.617   2.283   9.869 -0.0493 -0.2739  0.4878
   67CHL1   H1A 7409   6.561   2.235   9.786 -1.8687  0.7856  1.0512
   67CHL1   H1B 7410   6.724   2.255   9.858 -0.7243 -3.6144  1.2756
   67CHL1    C2 7411   6.570   2.218   9.994 -0.1747 -0.3404 -0.2882
   67CHL1   H2A 7412   6.593   2.109   9.999 -1.9447 -0.8352 -1.8235
   67CHL1   H2B 7413   6.459   2.224   9.991 -0.0902  3.2928 -3.1848
   67CHL1   C20 7414   6.810   2.698   9.241 -0.5271 -0.0349  0.6668
   67CHL1   H20 7415   6.711   2.738   9.212 -0.2479 -0.3006 -0.7405
   67CHL1   C21 7416   6.814   2.554   9.189 -0.3382  0.0181 -0.0251
   67CHL1  H21A 7417   6.724   2.499   9.225  1.3666 -0.6468  3.6988
   67CHL1  H21B 7418   6.906   2.510   9.232  0.3244  1.5613  0.2255
   67CHL1  H21C 7419   6.833   2.556   9.080  2.7710 -0.5960  0.4146
   67CHL1   C22 7420   6.907   2.795   9.151 -0.5203 -0.0750 -0.0685
   67CHL1  H22A 7421   6.882   2.897   9.187 -0.3646 -0.4361  1.1200
   67CHL1  H22B 7422   7.013   2.778   9.180  0.2551  3.6939 -0.2261
   67CHL1   C23 7423   6.892   2.788   9.000  0.1664 -0.1731  0.2077
   67CHL1  H23A 7424   6.940   2.695   8.964  2.0109  0.6028  0.5710
   67CHL1  H23B 7425   6.782   2.796   8.982  0.1075  1.6250  1.1387
   67CHL1   C24 7426   6.950   2.911   8.922 -0.4818  0.0750  0.4058
   67CHL1  H24A 7427   7.061   2.914   8.914 -0.5453  3.7303 -1.1721
   67CHL1  H24B 7428   6.907   2.901   8.820 -1.6414 -2.4304  1.0578
   67CHL1   C25 7429   6.907   3.050   8.971  0.4682  0.6297 -0.1000
   67CHL1   H25 7430   6.911   3.054   9.082 -1.1003 -0.4842  0.0341
   67CHL1   C26 7431   6.997   3.165   8.908  0.2414 -0.5504  0.2388
   67CHL1  H26A 7432   7.093   3.175   8.962 -0.1084  1.4545  0.5622
   67CHL1  H26B 7433   7.018   3.137   8.802 -0.6353  1.1263 -0.4095
   67CHL1  H26C 7434   6.944   3.262   8.920 -0.5762 -1.0964  1.1208
   67CHL1   C27 7435   6.756   3.079   8.932  0.1513  0.0549  0.3396
   67CHL1  H27A 7436   6.751   3.076   8.821  1.9433 -2.9286  0.2239
   67CHL1  H27B 7437   6.700   2.994   8.976  2.4685 -1.9174 -0.3418
   67CHL1  H27C 7438   6.724   3.175   8.979 -0.5139 -0.5734  1.1908
   68CHL1    C3 7439   3.593   3.166  10.214  0.0167 -0.1210  0.7024
   68CHL1    H3 7440   3.601   3.276  10.204  0.4412 -0.2100  0.0443
   68CHL1    O3 7441   3.554   3.159  10.354  0.2715  0.0347  0.2807
   68CHL1   H3' 7442   3.538   3.066  10.373 -2.8931  0.6147  1.0762
   68CHL1    C4 7443   3.476   3.126  10.118 -0.1408 -0.0118  0.7718
   68CHL1   H4A 7444   3.447   3.034  10.173 -1.3215  0.7391  1.4541
   68CHL1   H4B 7445   3.391   3.197  10.125 -2.4793 -2.5381 -0.1172
   68CHL1    C5 7446   3.516   3.110   9.975 -0.7511 -0.2468 -0.1706
   68CHL1    C6 7447   3.440   3.166   9.879  0.3732  0.3653 -0.5218
   68CHL1    H6 7448   3.345   3.214   9.907  0.9251 -0.1043  2.4325
   68CHL1    C7 7449   3.466   3.132   9.735  0.2057  0.6874  0.2563
   68CHL1   H7A 7450   3.373   3.093   9.689  1.6121 -0.5103 -1.7059
   68CHL1   H7B 7451   3.495   3.227   9.685  1.4808 -0.0965 -0.5476
   68CHL1    C8 7452   3.571   3.020   9.705 -0.1709 -0.8010  0.7176
   68CHL1    H8 7453   3.528   2.919   9.719 -0.3444 -0.6358  1.4181
   68CHL1   C14 7454   3.602   3.038   9.556  0.6782 -0.0964 -0.4775
   68CHL1   H14 7455   3.645   3.140   9.548 -0.7477  0.5541 -0.0991
   68CHL1   C15 7456   3.483   3.034   9.454  0.3183  0.4696 -0.4868
   68CHL1  H15A 7457   3.418   2.948   9.478  1.0405  0.3884  1.3062
   68CHL1  H15B 7458   3.423   3.127   9.460  1.3663  1.0648  1.5041
   68CHL1   C16 7459   3.547   3.016   9.318 -0.2822  0.1218 -0.3242
   68CHL1  H16A 7460   3.509   2.932   9.256  0.2929  0.2735 -0.8963
   68CHL1  H16B 7461   3.535   3.114   9.267  0.9422  1.6779  2.1895
   68CHL1   C17 7462   3.695   2.983   9.351  0.3024  0.1691 -1.0383
   68CHL1   H17 7463   3.747   3.081   9.348 -0.5246  0.8363  2.3157
   68CHL1   C13 7464   3.704   2.943   9.506  0.8864 -0.1977  0.2003
   68CHL1   C18 7465   3.651   2.801   9.510 -0.0414 -0.0006 -0.6846
   68CHL1  H18A 7466   3.716   2.732   9.451 -0.2358  0.5216 -1.5272
   68CHL1  H18B 7467   3.655   2.769   9.616 -1.1137 -1.4764 -1.0464
   68CHL1  H18C 7468   3.545   2.786   9.480  0.2849 -0.0687 -1.8853
   68CHL1   C12 7469   3.832   2.981   9.590  0.5332  0.5687  0.6328
   68CHL1  H12A 7470   3.926   2.929   9.560  1.0481  1.7867  0.0299
   68CHL1  H12B 7471   3.850   3.091   9.580 -0.6966  0.9064  1.8741
   68CHL1   C11 7472   3.812   2.968   9.740 -0.4752  0.6926 -0.2308
   68CHL1  H11A 7473   3.796   2.859   9.758 -1.8306  0.5608 -1.8935
   68CHL1  H11B 7474   3.897   2.998   9.805 -0.5260  0.9291 -0.2742
   68CHL1    C9 7475   3.689   3.049   9.793  0.0964  0.4590  0.1497
   68CHL1    H9 7476   3.733   3.151   9.785  0.4905  0.3692  1.0733
   68CHL1   C10 7477   3.650   3.038   9.948 -0.2361 -0.1323  0.8564
   68CHL1   C19 7478   3.628   2.882   9.970 -0.1868 -0.4091 -0.4999
   68CHL1  H19A 7479   3.718   2.821   9.946  0.4005  0.2369  0.0155
   68CHL1  H19B 7480   3.593   2.869  10.074 -0.3289  2.1902 -0.1667
   68CHL1  H19C 7481   3.546   2.841   9.907 -0.9024  0.3363 -0.0607
   68CHL1    C1 7482   3.758   3.105  10.033 -0.7580 -0.0823  0.2698
   68CHL1   H1A 7483   3.856   3.052  10.028 -0.0915  1.1978 -1.4236
   68CHL1   H1B 7484   3.778   3.211  10.009 -0.3480  0.1767  1.6897
   68CHL1    C2 7485   3.725   3.093  10.181 -0.2180  0.0248  0.1358
   68CHL1   H2A 7486   3.792   3.152  10.247 -1.2114  0.1243  1.0890
   68CHL1   H2B 7487   3.727   2.986  10.210 -0.3664  0.4372  1.7846
   68CHL1   C20 7488   3.763   2.893   9.251  0.3919 -0.3250  0.6470
   68CHL1   H20 7489   3.718   2.791   9.259 -0.6668  0.1852  1.3609
   68CHL1   C21 7490   3.912   2.874   9.299  0.0925 -0.2773  0.4942
   68CHL1  H21A 7491   3.966   2.804   9.231 -2.3263 -1.5397 -0.2721
   68CHL1  H21B 7492   3.912   2.820   9.396 -1.4445 -1.9071 -0.3533
   68CHL1  H21C 7493   3.963   2.973   9.303 -0.6204  0.1726 -0.8134
   68CHL1   C22 7494   3.743   2.926   9.094  0.2702 -0.1940  0.0875
   68CHL1  H22A 7495   3.646   2.884   9.062  0.3371  0.6735 -1.3391
   68CHL1  H22B 7496   3.738   3.037   9.089 -0.8850 -0.2711 -0.8504
   68CHL1   C23 7497   3.850   2.887   8.990  0.7955  0.1008  0.6831
   68CHL1  H23A 7498   3.832   2.946   8.898  2.8416 -2.3215 -1.4152
   68CHL1  H23B 7499   3.951   2.920   9.023  1.0528 -0.3639  0.3779
   68CHL1   C24 7500   3.855   2.734   8.968 -0.2216  1.1941  0.2251
   68CHL1  H24A 7501   3.884   2.681   9.062  0.0999 -4.2776 -2.5425
   68CHL1  H24B 7502   3.756   2.701   8.930 -1.0249  1.2592  2.1296
   68CHL1   C25 7503   3.947   2.681   8.855 -0.2550 -1.0439 -0.2258
   68CHL1   H25 7504   3.931   2.572   8.844 -0.1063 -1.0924  0.0428
   68CHL1   C26 7505   3.925   2.742   8.717  0.7417  0.2000  0.4856
   68CHL1  H26A 7506   3.938   2.852   8.730 -0.9960  0.0923  4.2291
   68CHL1  H26B 7507   3.993   2.696   8.642 -0.6505  1.0880 -1.3980
   68CHL1  H26C 7508   3.823   2.716   8.682  0.2743  1.5792  0.7550
   68CHL1   C27 7509   4.094   2.690   8.883 -0.5530  0.0612 -0.2167
   68CHL1  H27A 7510   4.138   2.792   8.889 -1.8520  0.8676 -2.9861
   68CHL1  H27B 7511   4.112   2.647   8.984 -1.5122  1.1152  0.4308
   68CHL1  H27C 7512   4.147   2.639   8.800  0.3124  0.3842  0.1230
   69CHL1    C3 7513   3.488   6.330   6.744  0.1495 -0.1160  0.2975
   69CHL1    H3 7514   3.583   6.283   6.711 -0.6075 -0.6235 -1.2514
   69CHL1    O3 7515   3.440   6.406   6.635  0.0163 -0.6050  0.0732
   69CHL1   H3' 7516   3.427   6.345   6.562  0.5164 -0.6363  0.0087
   69CHL1    C4 7517   3.378   6.224   6.778  0.5758 -0.6136  0.7191
   69CHL1   H4A 7518   3.276   6.266   6.794  1.3294  1.4551  0.3078
   69CHL1   H4B 7519   3.368   6.155   6.692  4.7242 -1.4730  0.7206
   69CHL1    C5 7520   3.422   6.139   6.898 -0.5117 -0.5391 -0.2171
   69CHL1    C6 7521   3.439   6.007   6.890  0.1442  0.8211  0.7574
   69CHL1    H6 7522   3.418   5.951   6.797  0.3144 -0.3760  1.4249
   69CHL1    C7 7523   3.473   5.924   7.011 -0.4022 -0.0028 -0.5162
   69CHL1   H7A 7524   3.403   5.839   7.019 -0.1166 -0.2485 -0.6134
   69CHL1   H7B 7525   3.570   5.872   6.997  0.0430 -0.1483  2.4846
   69CHL1    C8 7526   3.468   5.995   7.149  0.4171 -0.1518  0.7354
   69CHL1    H8 7527   3.359   6.006   7.167  0.3758 -0.9488  1.0162
   69CHL1   C14 7528   3.546   5.916   7.256 -0.0872  0.1859  0.4058
   69CHL1   H14 7529   3.648   5.894   7.219 -0.0662  0.9289 -0.0051
   69CHL1   C15 7530   3.482   5.784   7.291  0.0927  0.1166  0.6350
   69CHL1  H15A 7531   3.374   5.807   7.304  0.3179  1.3919  0.3786
   69CHL1  H15B 7532   3.503   5.693   7.231 -1.1737 -0.4330  0.9845
   69CHL1   C16 7533   3.545   5.748   7.426 -0.0405  0.0635  0.1347
   69CHL1  H16A 7534   3.471   5.732   7.507 -0.1229  1.0215  0.2518
   69CHL1  H16B 7535   3.613   5.659   7.419  2.1123  1.5980  0.4485
   69CHL1   C17 7536   3.637   5.873   7.473 -0.1659  1.0747  0.0358
   69CHL1   H17 7537   3.734   5.848   7.426 -0.8253 -1.8961  0.0484
   69CHL1   C13 7538   3.573   5.989   7.387  0.0559  0.4560  0.2838
   69CHL1   C18 7539   3.438   6.014   7.453  0.2908  0.1750 -0.7365
   69CHL1  H18A 7540   3.363   6.024   7.372  1.4496 -1.1331 -2.0270
   69CHL1  H18B 7541   3.397   5.931   7.514 -0.6371  1.6729  0.7508
   69CHL1  H18C 7542   3.439   6.098   7.527 -0.6262 -0.5514  0.1212
   69CHL1   C12 7543   3.650   6.114   7.360 -0.0894 -0.3906 -0.2735
   69CHL1  H12A 7544   3.690   6.165   7.451 -2.1399 -1.1158  1.1027
   69CHL1  H12B 7545   3.741   6.079   7.308  0.0920 -0.9043  0.3813
   69CHL1   C11 7546   3.576   6.211   7.259 -0.3956 -0.3978  0.2237
   69CHL1  H11A 7547   3.488   6.250   7.315 -1.4172 -0.9682 -0.9425
   69CHL1  H11B 7548   3.656   6.284   7.233  1.0570 -0.5207  3.7931
   69CHL1    C9 7549   3.532   6.136   7.127 -0.0966 -0.0330  0.5899
   69CHL1    H9 7550   3.632   6.105   7.090 -0.4148  0.2353 -0.5550
   69CHL1   C10 7551   3.457   6.223   7.024  0.0991 -0.4194 -0.1570
   69CHL1   C19 7552   3.329   6.278   7.085  0.7304 -0.3460 -0.5931
   69CHL1  H19A 7553   3.343   6.335   7.180  2.5464  0.8244 -1.5135
   69CHL1  H19B 7554   3.277   6.339   7.008  0.6058  0.4637  0.1135
   69CHL1  H19C 7555   3.256   6.195   7.099 -1.9531  1.8132 -0.7799
   69CHL1    C1 7556   3.549   6.345   6.985 -0.1131 -0.3062 -0.1708
   69CHL1   H1A 7557   3.560   6.417   7.069  0.9503  0.9806 -1.3606
   69CHL1   H1B 7558   3.651   6.302   6.975  0.3688  0.2351  1.8513
   69CHL1    C2 7559   3.506   6.429   6.860 -0.4777  0.0739 -0.0314
   69CHL1   H2A 7560   3.584   6.503   6.830  0.0910 -1.2360 -2.0566
   69CHL1   H2B 7561   3.423   6.499   6.883 -0.6951 -0.5867  1.2701
   69CHL1   C20 7562   3.656   5.891   7.624  0.0935 -1.1106 -0.6465
   69CHL1   H20 7563   3.559   5.917   7.670  1.1097 -0.0279  1.0023
   69CHL1   C21 7564   3.750   6.014   7.658  0.1202  0.4107  0.2489
   69CHL1  H21A 7565   3.769   6.003   7.767 -2.1461 -0.3128  0.6326
   69CHL1  H21B 7566   3.704   6.114   7.639  0.8218  0.8140  0.6291
   69CHL1  H21C 7567   3.837   6.006   7.590 -0.8624  2.0532 -1.3033
   69CHL1   C22 7568   3.702   5.762   7.693 -0.3021 -0.1342  0.6299
   69CHL1  H22A 7569   3.659   5.671   7.645 -2.2885  1.4352 -0.7098
   69CHL1  H22B 7570   3.812   5.751   7.682 -0.1336  2.1202 -0.5042
   69CHL1   C23 7571   3.668   5.754   7.845 -0.5462  0.8649 -1.0550
   69CHL1  H23A 7572   3.715   5.834   7.905  1.0903 -0.1652 -0.9134
   69CHL1  H23B 7573   3.557   5.763   7.847 -0.4916  1.3830  0.2320
   69CHL1   C24 7574   3.707   5.616   7.911 -0.2324  0.1082 -0.4531
   69CHL1  H24A 7575   3.641   5.546   7.855 -1.8435  0.5537  0.7856
   69CHL1  H24B 7576   3.814   5.596   7.893 -0.3470  0.9161 -2.2259
   69CHL1   C25 7577   3.671   5.591   8.060 -0.8126 -0.3321 -0.3534
   69CHL1   H25 7578   3.718   5.671   8.121  0.2403 -0.4629 -0.9625
   69CHL1   C26 7579   3.518   5.599   8.084 -0.0914  0.2576  0.2056
   69CHL1  H26A 7580   3.491   5.702   8.053 -0.6281 -0.2844 -1.2103
   69CHL1  H26B 7581   3.465   5.523   8.022 -1.0882  1.4929 -0.5079
   69CHL1  H26C 7582   3.503   5.586   8.193  2.2732  0.6240  0.6213
   69CHL1   C27 7583   3.724   5.460   8.128  0.4655 -0.0606  0.1463
   69CHL1  H27A 7584   3.833   5.447   8.143  0.1645 -3.4011  0.3610
   69CHL1  H27B 7585   3.679   5.457   8.229 -1.8798 -1.4312 -0.8504
   69CHL1  H27C 7586   3.691   5.370   8.070  0.5908 -0.4139  0.6166
   70CHL1    C3 7587   3.455   4.263   6.947 -0.2402  0.6303  0.2525
   70CHL1    H3 7588   3.522   4.351   6.952  1.6521 -0.7989  1.3982
   70CHL1    O3 7589   3.495   4.189   6.839 -0.2642  0.3582 -0.0420
   70CHL1   H3' 7590   3.466   4.099   6.854 -0.2818  0.3011 -0.3882
   70CHL1    C4 7591   3.478   4.191   7.081  0.0562  0.8991 -0.0462
   70CHL1   H4A 7592   3.430   4.093   7.059 -2.3768  1.9989 -0.0388
   70CHL1   H4B 7593   3.587   4.175   7.093 -0.2425 -0.0543  1.6546
   70CHL1    C5 7594   3.412   4.241   7.209  0.7103 -0.2522 -0.0523
   70CHL1    C6 7595   3.474   4.260   7.327  0.2499  0.0920  0.0730
   70CHL1    H6 7596   3.580   4.233   7.333  0.2573 -0.8275 -2.6796
   70CHL1    C7 7597   3.410   4.313   7.445 -1.2075  0.6512  0.2363
   70CHL1   H7A 7598   3.430   4.238   7.524 -1.1410 -2.0169 -2.1290
   70CHL1   H7B 7599   3.459   4.406   7.479 -2.5476  1.6124 -0.3570
   70CHL1    C8 7600   3.256   4.321   7.435 -0.8204 -0.5046 -0.2114
   70CHL1    H8 7601   3.222   4.216   7.437 -0.5615 -0.5790  0.4293
   70CHL1   C14 7602   3.194   4.391   7.548 -0.3891 -0.3005  0.0074
   70CHL1   H14 7603   3.233   4.495   7.547 -1.4353  0.0967 -0.7842
   70CHL1   C15 7604   3.233   4.332   7.691  0.5731 -0.7725  0.4901
   70CHL1  H15A 7605   3.206   4.225   7.700  1.4450 -0.9096  1.7874
   70CHL1  H15B 7606   3.338   4.347   7.724  1.0097 -2.0799 -0.2358
   70CHL1   C16 7607   3.133   4.408   7.773 -0.0737 -0.4225  0.1765
   70CHL1  H16A 7608   3.090   4.333   7.843 -0.0545  0.4905  1.2043
   70CHL1  H16B 7609   3.198   4.482   7.826  0.1806  0.4847 -1.3432
   70CHL1   C17 7610   3.030   4.483   7.683 -0.2311  0.4359  0.3126
   70CHL1   H17 7611   3.066   4.587   7.669 -0.7143  0.4065 -1.3708
   70CHL1   C13 7612   3.040   4.409   7.549  0.3909 -0.5859 -0.1803
   70CHL1   C18 7613   2.976   4.266   7.546  0.0887 -0.4192  0.3548
   70CHL1  H18A 7614   2.866   4.282   7.551  0.0589  0.6116 -2.1175
   70CHL1  H18B 7615   3.003   4.215   7.451 -2.6340 -1.1084 -0.1520
   70CHL1  H18C 7616   3.007   4.212   7.638  1.0877  0.3573  0.4860
   70CHL1   C12 7617   3.009   4.492   7.423  0.1584  0.4753  0.5005
   70CHL1  H12A 7618   2.901   4.515   7.417 -0.3582 -1.4712  1.6974
   70CHL1  H12B 7619   3.059   4.592   7.427  3.4001 -0.5448 -4.7981
   70CHL1   C11 7620   3.069   4.434   7.294  0.0499  0.3747  0.5662
   70CHL1  H11A 7621   3.005   4.353   7.254 -1.0715  1.5118  0.0076
   70CHL1  H11B 7622   3.058   4.513   7.216  2.6203  0.3681  0.0985
   70CHL1    C9 7623   3.218   4.377   7.297  0.3842 -0.1113  0.2576
   70CHL1    H9 7624   3.278   4.470   7.291  0.2899 -0.0558  0.1785
   70CHL1   C10 7625   3.264   4.289   7.187 -0.7102  0.3872 -0.1763
   70CHL1   C19 7626   3.171   4.164   7.168 -0.0770 -0.3588 -0.0945
   70CHL1  H19A 7627   3.199   4.097   7.083  0.7395 -0.7565  0.4826
   70CHL1  H19B 7628   3.170   4.103   7.261  2.0766  0.7954  0.7486
   70CHL1  H19C 7629   3.065   4.186   7.140 -0.0073  0.6572  0.4109
   70CHL1    C1 7630   3.257   4.370   7.054  0.3682 -0.0360 -0.3802
   70CHL1   H1A 7631   3.156   4.409   7.030  0.0393 -0.4127  0.3709
   70CHL1   H1B 7632   3.324   4.458   7.057  0.7786 -0.3311 -0.7174
   70CHL1    C2 7633   3.311   4.303   6.931 -0.2186  0.2359 -0.6055
   70CHL1   H2A 7634   3.282   4.369   6.846  0.5033  2.8261  1.0378
   70CHL1   H2B 7635   3.254   4.209   6.913 -0.3404  0.1525  0.2141
   70CHL1   C20 7636   2.890   4.490   7.745  0.9248 -0.1638  0.0143
   70CHL1   H20 7637   2.843   4.390   7.759 -1.3422  0.8503  0.1713
   70CHL1   C21 7638   2.790   4.571   7.653 -0.7969  0.2271  0.0841
   70CHL1  H21A 7639   2.761   4.498   7.574  1.4699 -2.6898  1.7115
   70CHL1  H21B 7640   2.835   4.658   7.601  1.5046 -0.5283  0.7026
   70CHL1  H21C 7641   2.701   4.602   7.712  0.8462  0.4346  2.6076
   70CHL1   C22 7642   2.904   4.560   7.880 -0.9612  0.0577 -0.0866
   70CHL1  H22A 7643   2.942   4.480   7.947  2.4999  0.0479 -1.8496
   70CHL1  H22B 7644   2.978   4.643   7.878 -2.7721  1.7955  1.0208
   70CHL1   C23 7645   2.788   4.629   7.943  0.1607 -0.9378  0.8154
   70CHL1  H23A 7646   2.754   4.717   7.884 -1.3411 -0.9006  1.6841
   70CHL1  H23B 7647   2.701   4.561   7.950 -0.3388 -0.7206 -2.1375
   70CHL1   C24 7648   2.815   4.699   8.077  0.1291 -0.4114  0.1769
   70CHL1  H24A 7649   2.902   4.766   8.067  0.5402 -0.2202  3.5912
   70CHL1  H24B 7650   2.729   4.766   8.099  1.3622  0.9039  1.2075
   70CHL1   C25 7651   2.809   4.607   8.199 -0.3197  0.2178 -0.8643
   70CHL1   H25 7652   2.862   4.511   8.180 -1.0035 -0.8083  1.9370
   70CHL1   C26 7653   2.885   4.671   8.313 -0.8179 -0.1397 -0.5632
   70CHL1  H26A 7654   2.977   4.709   8.265 -0.1075 -1.0057  0.0940
   70CHL1  H26B 7655   2.823   4.750   8.362 -0.9910 -0.6682  0.0759
   70CHL1  H26C 7656   2.913   4.592   8.386 -0.2481  0.4307 -0.1539
   70CHL1   C27 7657   2.667   4.565   8.251 -0.1448 -0.5941 -0.1927
   70CHL1  H27A 7658   2.635   4.491   8.175 -0.0676  0.0970 -0.9048
   70CHL1  H27B 7659   2.677   4.525   8.354  1.9110  0.5194  0.0949
   70CHL1  H27C 7660   2.600   4.654   8.247  0.2996 -0.2764 -0.6791
   71CHL1    C3 7661   3.000   0.503   6.784 -1.2737  0.0823  0.8461
   71CHL1    H3 7662   2.946   0.578   6.846 -2.4002  2.4067 -2.5967
   71CHL1    O3 7663   2.962   0.523   6.642  0.0258  0.0026  0.4206
   71CHL1   H3' 7664   3.009   0.450   6.602  1.8599 -0.4589  3.1858
   71CHL1    C4 7665   3.151   0.521   6.792 -0.2017 -0.2066  0.3966
   71CHL1   H4A 7666   3.193   0.461   6.708  1.3435  3.2423 -1.4963
   71CHL1   H4B 7667   3.183   0.624   6.765  3.9739 -0.9978  1.5951
   71CHL1    C5 7668   3.203   0.496   6.925  0.3971  0.0591 -0.3034
   71CHL1    C6 7669   3.267   0.593   6.989  0.1291 -0.2233  0.2828
   71CHL1    H6 7670   3.279   0.689   6.937  0.9232 -1.6278 -2.3476
   71CHL1    C7 7671   3.313   0.583   7.134 -0.0902  0.1459 -0.2078
   71CHL1   H7A 7672   3.404   0.644   7.155 -1.7890  2.2563  1.4894
   71CHL1   H7B 7673   3.231   0.620   7.199  1.0430  0.1557  1.2775
   71CHL1    C8 7674   3.333   0.437   7.175  0.1172  0.1116 -0.4156
   71CHL1    H8 7675   3.426   0.396   7.131  0.3608  1.7536 -1.5086
   71CHL1   C14 7676   3.338   0.427   7.327 -0.8875  0.2905  0.3282
   71CHL1   H14 7677   3.239   0.447   7.372 -1.6621 -1.8269 -0.3190
   71CHL1   C15 7678   3.441   0.520   7.382  0.3974  0.7313  0.2595
   71CHL1  H15A 7679   3.532   0.530   7.320 -1.2930  0.0167 -2.5064
   71CHL1  H15B 7680   3.390   0.618   7.394  2.0960  1.4992  1.6811
   71CHL1   C16 7681   3.464   0.455   7.525  0.2791  0.4013  0.4659
   71CHL1  H16A 7682   3.571   0.427   7.540  0.1813 -2.4202 -2.9076
   71CHL1  H16B 7683   3.414   0.518   7.601 -1.6652  1.7575 -1.7885
   71CHL1   C17 7684   3.386   0.318   7.530 -0.9051 -0.8334 -0.2061
   71CHL1   H17 7685   3.292   0.347   7.583  0.2807 -1.0954  2.2051
   71CHL1   C13 7686   3.358   0.287   7.382 -0.7205  0.0989 -0.3612
   71CHL1   C18 7687   3.479   0.216   7.326  0.1408  0.3977 -0.8339
   71CHL1  H18A 7688   3.570   0.272   7.355 -0.4686  1.9325 -1.7811
   71CHL1  H18B 7689   3.475   0.114   7.370 -0.1594  0.5438 -0.5282
   71CHL1  H18C 7690   3.480   0.199   7.216 -1.7993 -1.8162 -0.5942
   71CHL1   C12 7691   3.228   0.212   7.352 -0.9709  0.1383 -0.7460
   71CHL1  H12A 7692   3.238   0.111   7.398  0.4570  0.8492  0.6049
   71CHL1  H12B 7693   3.135   0.246   7.403 -1.3848 -0.0282 -1.3884
   71CHL1   C11 7694   3.193   0.219   7.203  0.6735  0.0611 -0.3226
   71CHL1  H11A 7695   3.256   0.142   7.154  0.1733  0.8337 -2.2813
   71CHL1  H11B 7696   3.087   0.190   7.184  0.4809 -2.2634  3.3009
   71CHL1    C9 7697   3.206   0.361   7.140  0.1037 -0.0369 -0.0910
   71CHL1    H9 7698   3.121   0.417   7.183  0.0846 -0.2104  0.1036
   71CHL1   C10 7699   3.167   0.362   6.981  0.0555 -0.4645  0.2236
   71CHL1   C19 7700   3.269   0.271   6.904  0.6844  0.5049  0.4434
   71CHL1  H19A 7701   3.239   0.169   6.933 -2.5851  1.9952  2.9855
   71CHL1  H19B 7702   3.247   0.268   6.795  0.9748  3.6310  0.1891
   71CHL1  H19C 7703   3.376   0.295   6.923  0.4228  0.9080  1.5039
   71CHL1    C1 7704   3.016   0.321   6.954 -0.1413 -0.2532  0.8982
   71CHL1   H1A 7705   2.989   0.216   6.978  0.9591 -0.8676 -0.4052
   71CHL1   H1B 7706   2.959   0.375   7.032 -2.5841 -1.0727 -0.2075
   71CHL1    C2 7707   2.966   0.358   6.816 -0.1065  0.3546  1.1326
   71CHL1   H2A 7708   2.859   0.329   6.813  0.0422 -0.4929  2.9235
   71CHL1   H2B 7709   3.028   0.306   6.740  1.5116  3.0322  0.4483
   71CHL1   C20 7710   3.450   0.213   7.616  0.8237 -0.1659 -1.2174
   71CHL1   H20 7711   3.547   0.177   7.576  1.7799 -0.8449  1.5403
   71CHL1   C21 7712   3.361   0.089   7.629  0.4627 -0.4494 -0.3664
   71CHL1  H21A 7713   3.268   0.113   7.686  2.4339  3.3590  1.6921
   71CHL1  H21B 7714   3.423   0.009   7.674 -0.6469 -2.2080 -1.8676
   71CHL1  H21C 7715   3.347   0.040   7.531 -0.4606 -0.8165 -0.0671
   71CHL1   C22 7716   3.478   0.263   7.765  0.1951 -0.6561 -0.4999
   71CHL1  H22A 7717   3.555   0.342   7.751  0.8742 -1.2784 -0.3142
   71CHL1  H22B 7718   3.387   0.306   7.812  0.2051 -1.9610  0.7708
   71CHL1   C23 7719   3.522   0.160   7.875  0.6983 -0.0134 -0.1124
   71CHL1  H23A 7720   3.450   0.078   7.897  2.4289 -2.3205 -2.4861
   71CHL1  H23B 7721   3.607   0.102   7.835  0.0317 -2.6044  1.8965
   71CHL1   C24 7722   3.552   0.236   8.007 -0.3268  0.2976  0.2457
   71CHL1  H24A 7723   3.631   0.311   7.985  1.3140 -1.0877  1.0915
   71CHL1  H24B 7724   3.454   0.276   8.041  0.0162  1.9513 -0.6163
   71CHL1   C25 7725   3.602   0.145   8.126  0.9134  0.1005 -0.4025
   71CHL1   H25 7726   3.513   0.090   8.163  0.4810 -0.2592 -1.9191
   71CHL1   C26 7727   3.718   0.046   8.078 -0.3333  0.0690 -0.4960
   71CHL1  H26A 7728   3.680  -0.035   8.012  0.8982 -1.0554  0.1237
   71CHL1  H26B 7729   3.817   0.080   8.042  1.0623  0.3755  3.2829
   71CHL1  H26C 7730   3.739  -0.008   8.173 -1.8762 -2.2829 -1.3780
   71CHL1   C27 7731   3.656   0.235   8.233 -0.5778 -0.3634 -0.1018
   71CHL1  H27A 7732   3.730   0.307   8.192  0.7733 -1.0990  0.9551
   71CHL1  H27B 7733   3.573   0.297   8.274 -0.5574  0.7255 -1.6247
   71CHL1  H27C 7734   3.701   0.178   8.318  0.8818 -0.0392 -0.6336
   72CHL1    C3 7735   3.080   4.911   6.992 -0.7421  0.4823  0.7945
   72CHL1    H3 7736   3.173   4.971   7.001 -1.7395  2.6811 -1.9664
   72CHL1    O3 7737   3.063   4.868   6.861 -0.5005  0.7235 -0.4391
   72CHL1   H3' 7738   2.999   4.931   6.827 -1.3019  0.8315  1.1970
   72CHL1    C4 7739   3.080   4.783   7.072 -0.0963 -1.0076 -0.6013
   72CHL1   H4A 7740   2.981   4.733   7.061 -0.2149 -0.7241 -0.8535
   72CHL1   H4B 7741   3.152   4.711   7.027  0.9799  0.9802 -2.2531
   72CHL1    C5 7742   3.107   4.820   7.216 -0.4222  0.4655 -0.5757
   72CHL1    C6 7743   3.218   4.785   7.284 -0.5232 -0.3664 -0.1992
   72CHL1    H6 7744   3.287   4.711   7.241  3.2638  3.1341 -0.7645
   72CHL1    C7 7745   3.256   4.834   7.423 -0.4622  0.3126  0.5888
   72CHL1   H7A 7746   3.306   4.750   7.475  1.2252  1.4735  0.9302
   72CHL1   H7B 7747   3.328   4.919   7.419 -0.7009  0.6730  2.6822
   72CHL1    C8 7748   3.125   4.893   7.497 -0.0480  0.3797  0.1231
   72CHL1    H8 7749   3.058   4.807   7.518 -0.1943  0.9630  2.2359
   72CHL1   C14 7750   3.171   4.957   7.623 -0.5626  0.1129 -0.3614
   72CHL1   H14 7751   3.253   5.032   7.616 -1.8288  1.3881 -2.7684
   72CHL1   C15 7752   3.233   4.863   7.724 -0.0168  0.9784  0.6333
   72CHL1  H15A 7753   3.157   4.783   7.741  1.4082 -1.1820 -2.3837
   72CHL1  H15B 7754   3.322   4.805   7.694 -0.5098  0.2698  0.4999
   72CHL1   C16 7755   3.237   4.946   7.863 -1.0061 -0.2664 -0.7138
   72CHL1  H16A 7756   3.183   4.886   7.939 -1.3129  2.1071  1.0912
   72CHL1  H16B 7757   3.345   4.952   7.889 -0.9997 -0.0363 -0.7871
   72CHL1   C17 7758   3.166   5.081   7.828  0.2424  0.8370  0.2752
   72CHL1   H17 7759   3.248   5.149   7.797  0.8583  0.9670  2.0462
   72CHL1   C13 7760   3.075   5.042   7.701 -0.0826 -0.4523  0.1966
   72CHL1   C18 7761   2.960   4.954   7.755  0.2672 -0.2172 -0.4346
   72CHL1  H18A 7762   3.001   4.879   7.826 -0.1190 -2.3548 -2.3442
   72CHL1  H18B 7763   2.891   5.024   7.808 -0.1573 -1.9217  1.3864
   72CHL1  H18C 7764   2.912   4.898   7.672  2.0194 -1.8350 -0.4208
   72CHL1   C12 7765   3.023   5.150   7.609  0.2261  0.4136  0.0848
   72CHL1  H12A 7766   2.954   5.216   7.665  0.2730 -0.0816  0.7290
   72CHL1  H12B 7767   3.115   5.208   7.589 -0.2891  0.7688 -1.4786
   72CHL1   C11 7768   2.963   5.091   7.481  0.7628  0.6293 -0.6880
   72CHL1  H11A 7769   2.871   5.040   7.517  1.4716 -0.0782  0.1700
   72CHL1  H11B 7770   2.925   5.166   7.409  1.3752  0.6344 -1.0147
   72CHL1    C9 7771   3.056   4.996   7.402 -0.1172  0.0178 -0.3533
   72CHL1    H9 7772   3.140   5.063   7.376 -0.0041  0.6531  1.5287
   72CHL1   C10 7773   3.006   4.922   7.277 -0.7894  0.0109  0.5864
   72CHL1   C19 7774   2.874   4.848   7.311 -0.2533 -0.0792  0.2861
   72CHL1  H19A 7775   2.789   4.919   7.318 -0.1204  0.1447 -0.3345
   72CHL1  H19B 7776   2.847   4.779   7.228 -1.2242 -0.6328  1.0486
   72CHL1  H19C 7777   2.869   4.788   7.404  3.9991  2.7034  2.6436
   72CHL1    C1 7778   2.980   5.034   7.171  0.3790 -0.0735  0.2777
   72CHL1   H1A 7779   2.887   5.088   7.201  1.4198  2.0167 -0.1374
   72CHL1   H1B 7780   3.063   5.106   7.164 -0.0985  0.4040 -0.5952
   72CHL1    C2 7781   2.960   4.987   7.026  0.0856  0.0712 -0.0572
   72CHL1   H2A 7782   2.935   5.066   6.952  0.8867  3.4973  3.0839
   72CHL1   H2B 7783   2.875   4.915   7.022  0.4349 -0.3547  0.0986
   72CHL1   C20 7784   3.089   5.146   7.947 -0.3028  0.1371  0.7993
   72CHL1   H20 7785   2.996   5.193   7.908 -0.6974  1.1684  2.8762
   72CHL1   C21 7786   3.181   5.262   7.997 -0.3355  0.8480  0.1679
   72CHL1  H21A 7787   3.272   5.232   8.054 -1.1014  1.1787  1.6258
   72CHL1  H21B 7788   3.130   5.336   8.063 -0.8944  0.4274  0.2099
   72CHL1  H21C 7789   3.221   5.316   7.909 -0.7614 -1.5666 -1.5844
   72CHL1   C22 7790   3.050   5.062   8.065 -0.5406 -0.7915 -0.2581
   72CHL1  H22A 7791   3.007   4.964   8.035  1.5476 -2.8930  2.9199
   72CHL1  H22B 7792   3.144   5.039   8.121  0.2759  0.3519 -1.1060
   72CHL1   C23 7793   2.945   5.140   8.152 -0.8025  0.1207 -0.2637
   72CHL1  H23A 7794   2.981   5.239   8.187 -2.5805  0.3766  0.9930
   72CHL1  H23B 7795   2.856   5.170   8.094  0.7822  0.2576 -2.7598
   72CHL1   C24 7796   2.905   5.053   8.271 -0.2224 -0.5602 -0.2004
   72CHL1  H24A 7797   2.841   4.972   8.229 -1.7315  0.5968 -0.1913
   72CHL1  H24B 7798   2.997   5.014   8.321  0.8564  0.3999 -1.3656
   72CHL1   C25 7799   2.815   5.129   8.368 -0.0478  0.1913 -0.6907
   72CHL1   H25 7800   2.866   5.219   8.410  0.0628 -0.6080  0.9308
   72CHL1   C26 7801   2.687   5.175   8.308 -0.5149  0.4993  0.3527
   72CHL1  H26A 7802   2.651   5.097   8.238  2.0871 -0.2843 -0.1998
   72CHL1  H26B 7803   2.607   5.202   8.381  0.0098 -2.0770  2.0094
   72CHL1  H26C 7804   2.712   5.259   8.239 -1.5871 -0.0902 -0.7963
   72CHL1   C27 7805   2.785   5.032   8.484  0.3100  0.4957  0.0091
   72CHL1  H27A 7806   2.879   4.989   8.524 -0.9672 -1.0330  1.4993
   72CHL1  H27B 7807   2.749   5.095   8.568  0.9261  0.4945  0.2828
   72CHL1  H27C 7808   2.719   4.949   8.452  1.7490 -1.1588  1.1484
   73CHL1    C3 7809   2.668   6.306   6.895  0.3280  0.8134  0.1924
   73CHL1    H3 7810   2.691   6.197   6.898  1.2236  0.9145 -1.7165
   73CHL1    O3 7811   2.672   6.343   6.756  0.7907  0.9948 -0.4216
   73CHL1   H3' 7812   2.653   6.437   6.763  2.8532  1.5128 -1.0971
   73CHL1    C4 7813   2.526   6.324   6.941  0.1738 -0.2684 -0.1718
   73CHL1   H4A 7814   2.514   6.432   6.918  3.6622  0.4670  0.7989
   73CHL1   H4B 7815   2.448   6.273   6.880 -0.7971  0.8465  0.0975
   73CHL1    C5 7816   2.507   6.313   7.088 -0.5404  0.3308  0.0111
   73CHL1    C6 7817   2.409   6.236   7.132 -0.5332 -0.6307  0.0205
   73CHL1    H6 7818   2.339   6.199   7.056 -1.3260  1.8584 -0.5460
   73CHL1    C7 7819   2.375   6.229   7.279  0.1168 -0.1840  0.1058
   73CHL1   H7A 7820   2.265   6.231   7.294  0.1823  2.0996  0.5533
   73CHL1   H7B 7821   2.401   6.126   7.313  0.7147  0.0528  0.3757
   73CHL1    C8 7822   2.441   6.341   7.365 -0.5630  0.0329  0.0974
   73CHL1    H8 7823   2.391   6.440   7.353 -2.5353 -0.5635  2.6360
   73CHL1   C14 7824   2.408   6.318   7.516 -0.1680 -0.2205  0.5008
   73CHL1   H14 7825   2.449   6.218   7.542 -1.3380 -0.3706  1.8570
   73CHL1   C15 7826   2.257   6.322   7.567 -0.4317 -0.2180  0.1949
   73CHL1  H15A 7827   2.204   6.414   7.534  2.7703  1.4765 -0.6654
   73CHL1  H15B 7828   2.206   6.225   7.547 -0.1849 -0.5119  0.9745
   73CHL1   C16 7829   2.282   6.329   7.722 -0.2126 -0.1310 -0.3370
   73CHL1  H16A 7830   2.215   6.404   7.770 -0.3773 -0.6713  0.2790
   73CHL1  H16B 7831   2.259   6.233   7.773  0.0310  0.6539  1.3207
   73CHL1   C17 7832   2.438   6.370   7.752 -0.5866  0.0512  0.0758
   73CHL1   H17 7833   2.492   6.275   7.775  0.2943  1.2460  3.4467
   73CHL1   C13 7834   2.483   6.424   7.611 -0.4892  0.4282 -0.4630
   73CHL1   C18 7835   2.435   6.567   7.587  0.0801  0.8000  0.7874
   73CHL1  H18A 7836   2.330   6.591   7.617 -0.8113 -0.3532 -1.2021
   73CHL1  H18B 7837   2.495   6.625   7.660 -1.1353  2.5802  0.4469
   73CHL1  H18C 7838   2.445   6.597   7.481 -1.1637 -1.5582 -0.0757
   73CHL1   C12 7839   2.633   6.410   7.581 -0.0099 -0.1978 -0.2763
   73CHL1  H12A 7840   2.685   6.480   7.650 -1.9904  0.0209  1.0829
   73CHL1  H12B 7841   2.672   6.308   7.603  2.4397  0.1668 -2.4481
   73CHL1   C11 7842   2.659   6.435   7.430  0.4377 -1.4175 -0.0179
   73CHL1  H11A 7843   2.642   6.543   7.410  0.6514 -1.3332  0.2526
   73CHL1  H11B 7844   2.767   6.411   7.417  1.4412  2.6939 -0.7386
   73CHL1    C9 7845   2.588   6.349   7.327  0.3700  0.0584  0.0232
   73CHL1    H9 7846   2.642   6.253   7.338  2.7386  1.3861  0.7271
   73CHL1   C10 7847   2.615   6.390   7.179 -0.2263  0.1331  0.9580
   73CHL1   C19 7848   2.609   6.545   7.162  0.0063  0.5950 -0.5546
   73CHL1  H19A 7849   2.703   6.596   7.192 -0.9759  1.3471  1.4186
   73CHL1  H19B 7850   2.588   6.585   7.060 -0.1101  3.3232  0.4623
   73CHL1  H19C 7851   2.533   6.586   7.232 -0.7090 -0.3764 -0.7393
   73CHL1    C1 7852   2.752   6.349   7.128 -0.4850 -0.1932  0.4979
   73CHL1   H1A 7853   2.836   6.380   7.194  1.3518  1.8679 -2.5604
   73CHL1   H1B 7854   2.774   6.241   7.134 -1.5194 -0.3831  1.1552
   73CHL1    C2 7855   2.772   6.377   6.978 -0.4356 -0.2416  0.2311
   73CHL1   H2A 7856   2.875   6.351   6.946 -0.8352  0.2097 -1.5570
   73CHL1   H2B 7857   2.762   6.487   6.965 -0.5295 -0.5451 -3.3157
   73CHL1   C20 7858   2.475   6.449   7.880  0.2011 -0.0639 -0.3069
   73CHL1   H20 7859   2.442   6.555   7.874  0.2434  0.0426  1.0281
   73CHL1   C21 7860   2.631   6.458   7.909  0.3922 -0.2217  0.4464
   73CHL1  H21A 7861   2.635   6.500   8.012 -1.5461  0.3063  0.3530
   73CHL1  H21B 7862   2.669   6.534   7.838 -0.1044 -1.4373 -1.1878
   73CHL1  H21C 7863   2.682   6.359   7.908 -1.1096 -1.0577  1.5626
   73CHL1   C22 7864   2.400   6.381   7.997 -0.1534 -0.2794 -0.1834
   73CHL1  H22A 7865   2.297   6.348   7.976 -0.1716 -2.9024  3.1490
   73CHL1  H22B 7866   2.461   6.297   8.036 -0.2582  0.5815  1.9847
   73CHL1   C23 7867   2.375   6.483   8.112  0.8313 -0.5080  0.6201
   73CHL1  H23A 7868   2.472   6.523   8.149  0.6789  0.2742  0.1876
   73CHL1  H23B 7869   2.309   6.564   8.075  0.6431 -0.9650 -0.0732
   73CHL1   C24 7870   2.296   6.427   8.231 -0.4418 -0.6744  0.6857
   73CHL1  H24A 7871   2.191   6.410   8.199 -0.9061  4.6838 -1.8205
   73CHL1  H24B 7872   2.355   6.338   8.261  2.5976 -0.6926 -4.2829
   73CHL1   C25 7873   2.278   6.512   8.357 -0.4228 -0.1062 -0.5415
   73CHL1   H25 7874   2.236   6.607   8.320  0.4189  0.2348 -0.6426
   73CHL1   C26 7875   2.190   6.447   8.467  0.1429  0.0510  0.2069
   73CHL1  H26A 7876   2.219   6.340   8.475  0.1752 -0.1081 -1.6660
   73CHL1  H26B 7877   2.208   6.494   8.566  1.9227 -0.5947  0.2174
   73CHL1  H26C 7878   2.083   6.456   8.438  0.6376  0.7172 -1.5278
   73CHL1   C27 7879   2.419   6.550   8.412 -0.4005 -0.0943  0.0851
   73CHL1  H27A 7880   2.406   6.601   8.510 -1.3548 -1.3077  0.6079
   73CHL1  H27B 7881   2.471   6.453   8.421 -0.9703 -0.2307  2.9928
   73CHL1  H27C 7882   2.471   6.604   8.329 -3.1890 -0.3655 -1.9649
   74CHL1    C3 7883   3.552   5.329   6.878  0.7693  0.1515 -0.1000
   74CHL1    H3 7884   3.612   5.422   6.890  0.9895  0.0382 -0.3080
   74CHL1    O3 7885   3.515   5.321   6.740  0.1195  0.4220 -0.8975
   74CHL1   H3' 7886   3.519   5.411   6.708 -1.7776  0.7462 -0.3746
   74CHL1    C4 7887   3.625   5.197   6.919  0.6461 -0.5669  0.1316
   74CHL1   H4A 7888   3.551   5.116   6.899  0.4111 -0.2499 -0.3136
   74CHL1   H4B 7889   3.715   5.186   6.855 -0.0596 -0.7869 -0.8552
   74CHL1    C5 7890   3.663   5.204   7.065 -0.3701  0.1208 -0.2600
   74CHL1    C6 7891   3.790   5.192   7.103  0.0234 -0.3418 -0.0200
   74CHL1    H6 7892   3.866   5.165   7.028  0.4084 -0.4148  0.3910
   74CHL1    C7 7893   3.837   5.205   7.244 -0.2489 -0.4775 -0.1157
   74CHL1   H7A 7894   3.913   5.125   7.258 -1.1967 -2.0068 -2.9291
   74CHL1   H7B 7895   3.889   5.301   7.263  0.8698 -1.2000  0.6164
   74CHL1    C8 7896   3.718   5.174   7.341 -0.3186 -0.7958  0.6678
   74CHL1    H8 7897   3.691   5.068   7.324 -1.5104 -0.6549  1.5161
   74CHL1   C14 7898   3.760   5.198   7.480 -0.2019 -0.2339 -0.2119
   74CHL1   H14 7899   3.784   5.306   7.492  0.4494 -0.4025  0.0419
   74CHL1   C15 7900   3.890   5.123   7.522  0.5485  0.2640  0.0792
   74CHL1  H15A 7901   3.879   5.022   7.476 -0.0368  0.4909 -0.2902
   74CHL1  H15B 7902   3.989   5.161   7.491  0.6837  0.6615  0.9522
   74CHL1   C16 7903   3.870   5.121   7.680 -0.1106  0.5547 -0.4306
   74CHL1  H16A 7904   3.869   5.014   7.712  2.4270  0.1328 -1.5411
   74CHL1  H16B 7905   3.956   5.170   7.730  1.3699  1.7046 -3.8112
   74CHL1   C17 7906   3.737   5.185   7.721  0.1449 -0.4701 -0.4439
   74CHL1   H17 7907   3.750   5.294   7.735 -2.1835 -0.1133 -0.6940
   74CHL1   C13 7908   3.650   5.175   7.591 -0.7218 -0.0779  0.0573
   74CHL1   C18 7909   3.597   5.029   7.579 -0.4458  0.4524 -0.2826
   74CHL1  H18A 7910   3.556   4.996   7.482 -1.2864 -3.5418  1.2494
   74CHL1  H18B 7911   3.679   4.955   7.593 -0.2305  1.0085  1.7904
   74CHL1  H18C 7912   3.514   5.018   7.652 -0.0569 -0.3778  0.0523
   74CHL1   C12 7913   3.528   5.268   7.563 -0.4806 -0.4793 -0.3757
   74CHL1  H12A 7914   3.438   5.254   7.626  0.1865  1.1187  1.0161
   74CHL1  H12B 7915   3.556   5.374   7.580  0.4799 -0.5405 -1.4565
   74CHL1   C11 7916   3.480   5.258   7.416 -0.4392  0.5395 -0.1502
   74CHL1  H11A 7917   3.416   5.168   7.411  0.6233 -0.2395  0.1023
   74CHL1  H11B 7918   3.409   5.344   7.412  0.2135  1.3719  3.1597
   74CHL1    C9 7919   3.593   5.258   7.309 -0.3155 -0.9269 -0.7498
   74CHL1    H9 7920   3.639   5.358   7.317  1.8909 -1.8788 -0.9168
   74CHL1   C10 7921   3.544   5.237   7.159 -0.6661 -0.1663  0.3758
   74CHL1   C19 7922   3.451   5.111   7.158  0.3607 -0.3556 -0.0554
   74CHL1  H19A 7923   3.441   5.068   7.056 -2.2677  2.8436 -1.3188
   74CHL1  H19B 7924   3.504   5.038   7.222  0.3243 -0.8528 -0.5874
   74CHL1  H19C 7925   3.349   5.126   7.201 -0.0964  1.2333 -1.5675
   74CHL1    C1 7926   3.468   5.358   7.111 -0.3144 -0.1003  0.2839
   74CHL1   H1A 7927   3.376   5.366   7.173 -1.3111 -1.5382 -0.9609
   74CHL1   H1B 7928   3.524   5.453   7.129 -0.7941  0.5737 -1.6049
   74CHL1    C2 7929   3.430   5.350   6.968 -0.2631  0.0981 -0.4923
   74CHL1   H2A 7930   3.369   5.442   6.951 -2.0995 -0.7017  1.3148
   74CHL1   H2B 7931   3.352   5.274   6.946 -1.9157  1.6411 -0.1932
   74CHL1   C20 7932   3.676   5.123   7.849 -0.0224  0.0236  0.0104
   74CHL1   H20 7933   3.652   5.017   7.823 -2.5164  0.3772  0.6768
   74CHL1   C21 7934   3.547   5.197   7.881  0.3937 -0.0065 -0.0020
   74CHL1  H21A 7935   3.527   5.183   7.989 -0.1928 -0.2744 -0.1442
   74CHL1  H21B 7936   3.472   5.176   7.802  1.2454 -0.7437 -0.6325
   74CHL1  H21C 7937   3.554   5.308   7.877  1.1085 -0.0622 -0.6468
   74CHL1   C22 7938   3.782   5.116   7.962  0.8628  0.4192  0.6935
   74CHL1  H22A 7939   3.872   5.055   7.938  1.5798  1.9682 -0.7601
   74CHL1  H22B 7940   3.825   5.218   7.971  0.4691  0.5181  1.5664
   74CHL1   C23 7941   3.724   5.065   8.095 -0.1097 -0.5952  0.2989
   74CHL1  H23A 7942   3.669   5.137   8.158 -1.3760 -0.4659 -0.9175
   74CHL1  H23B 7943   3.660   4.980   8.063  1.6638 -1.0667 -2.3761
   74CHL1   C24 7944   3.828   5.006   8.193  0.6744 -0.3458 -0.2639
   74CHL1  H24A 7945   3.765   4.943   8.259 -2.2253  2.3161 -0.2267
   74CHL1  H24B 7946   3.903   4.939   8.146 -0.5730 -1.7880 -0.2448
   74CHL1   C25 7947   3.906   5.101   8.280 -0.3310 -0.0455 -0.1778
   74CHL1   H25 7948   3.942   5.185   8.217 -1.3703  2.1522  2.0007
   74CHL1   C26 7949   3.837   5.154   8.407  0.6859 -0.6059  0.4958
   74CHL1  H26A 7950   3.778   5.071   8.453  1.8198 -1.0826  1.1342
   74CHL1  H26B 7951   3.906   5.205   8.478 -0.4450  0.8336  0.6127
   74CHL1  H26C 7952   3.771   5.239   8.377  0.9312 -0.2599  0.9204
   74CHL1   C27 7953   4.024   5.023   8.339 -0.4450 -0.9505  0.2107
   74CHL1  H27A 7954   4.085   5.086   8.408 -2.1002  0.0202  0.8458
   74CHL1  H27B 7955   3.980   4.932   8.385 -2.8408  1.5058  3.2990
   74CHL1  H27C 7956   4.093   5.000   8.255 -1.6557  0.1832 -1.1380
   75CHL1    C3 7957   5.194   0.740   6.685  0.0669  0.6612 -0.4654
   75CHL1    H3 7958   5.089   0.759   6.715  0.5164 -0.0481  1.7945
   75CHL1    O3 7959   5.219   0.729   6.542  0.4198  0.0326 -0.0833
   75CHL1   H3' 7960   5.257   0.812   6.514  2.1256 -0.8566 -0.5299
   75CHL1    C4 7961   5.275   0.856   6.743 -0.4209  0.2694 -0.0596
   75CHL1   H4A 7962   5.381   0.836   6.718 -0.5733 -0.2407 -0.3212
   75CHL1   H4B 7963   5.255   0.956   6.701 -1.0646 -0.5841 -1.9102
   75CHL1    C5 7964   5.252   0.852   6.892 -0.5611 -0.0816 -0.1085
   75CHL1    C6 7965   5.202   0.951   6.963 -0.5813 -0.8337 -0.0687
   75CHL1    H6 7966   5.177   1.049   6.920  1.3038 -0.3872 -0.2561
   75CHL1    C7 7967   5.182   0.947   7.115 -0.1347 -0.1357 -0.1216
   75CHL1   H7A 7968   5.209   1.046   7.158  0.5705 -0.2842 -0.2064
   75CHL1   H7B 7969   5.076   0.920   7.130 -0.7069  0.6123 -2.3371
   75CHL1    C8 7970   5.264   0.834   7.190 -0.5004  0.3976 -0.2824
   75CHL1    H8 7971   5.368   0.873   7.195 -0.3853  0.0356  0.2444
   75CHL1   C14 7972   5.222   0.828   7.335 -0.2381  1.1249  0.2829
   75CHL1   H14 7973   5.114   0.804   7.330 -0.3671  1.8432 -2.9588
   75CHL1   C15 7974   5.228   0.957   7.423  0.2443 -0.2800  0.1247
   75CHL1  H15A 7975   5.317   1.015   7.392  0.4722 -0.9003 -0.4101
   75CHL1  H15B 7976   5.129   1.006   7.414  0.5293  0.7295  1.9233
   75CHL1   C16 7977   5.238   0.896   7.564 -0.6192 -0.4690 -0.4488
   75CHL1  H16A 7978   5.325   0.932   7.623 -2.0241 -1.0638  2.1484
   75CHL1  H16B 7979   5.156   0.934   7.629 -0.0289  0.0195  0.0197
   75CHL1   C17 7980   5.247   0.744   7.563 -0.2419 -0.0622  0.3696
   75CHL1   H17 7981   5.141   0.710   7.568  0.1122 -1.2790 -0.1628
   75CHL1   C13 7982   5.303   0.723   7.418 -0.4178  0.4931  0.8719
   75CHL1   C18 7983   5.458   0.748   7.419  0.5287  0.4906 -0.2918
   75CHL1  H18A 7984   5.479   0.846   7.466 -0.1526 -0.1877  1.5580
   75CHL1  H18B 7985   5.520   0.673   7.472  2.2110  0.0143 -2.7840
   75CHL1  H18C 7986   5.499   0.757   7.316  0.5669 -0.1104 -0.3336
   75CHL1   C12 7987   5.277   0.588   7.350 -0.3084 -0.0523  0.4878
   75CHL1  H12A 7988   5.326   0.499   7.395  0.0194  0.1078  0.4449
   75CHL1  H12B 7989   5.168   0.573   7.334  0.1277 -1.4584 -1.5951
   75CHL1   C11 7990   5.322   0.590   7.201 -0.3425 -0.1865  0.2900
   75CHL1  H11A 7991   5.432   0.609   7.194 -0.5591  0.6628 -1.3141
   75CHL1  H11B 7992   5.308   0.491   7.153  3.9421  0.1754 -2.2990
   75CHL1    C9 7993   5.253   0.697   7.113  0.3728 -0.6608 -0.8268
   75CHL1    H9 7994   5.147   0.663   7.116  0.5388 -1.1073  0.8306
   75CHL1   C10 7995   5.293   0.713   6.962  0.0044  0.3319 -0.1389
   75CHL1   C19 7996   5.445   0.687   6.950 -0.5381 -1.0113 -0.2554
   75CHL1  H19A 7997   5.506   0.750   7.019 -1.4674 -0.4464  0.0756
   75CHL1  H19B 7998   5.468   0.584   6.983  0.1182 -0.2191  1.9540
   75CHL1  H19C 7999   5.484   0.699   6.847 -0.4259  1.7952  0.0245
   75CHL1    C1 8000   5.210   0.607   6.891  0.2105  0.2546 -0.7035
   75CHL1   H1A 8001   5.227   0.507   6.935  2.6861  0.9657  0.1119
   75CHL1   H1B 8002   5.105   0.637   6.914  0.1282 -1.2264  1.1043
   75CHL1    C2 8003   5.231   0.598   6.741 -0.2051  0.1285  0.3635
   75CHL1   H2A 8004   5.166   0.522   6.694  0.1557  0.8056 -1.3103
   75CHL1   H2B 8005   5.334   0.566   6.712 -0.2292 -0.8489  1.2973
   75CHL1   C20 8006   5.322   0.684   7.681 -0.1460  0.6265 -0.1410
   75CHL1   H20 8007   5.431   0.696   7.665 -0.4600  1.8311 -1.6814
   75CHL1   C21 8008   5.285   0.533   7.681 -0.0307 -0.2621  0.4793
   75CHL1  H21A 8009   5.293   0.481   7.779  1.2954  0.0662  0.5713
   75CHL1  H21B 8010   5.343   0.474   7.607 -0.0969  3.3398 -2.7622
   75CHL1  H21C 8011   5.178   0.517   7.656  0.8095 -0.9824 -3.3917
   75CHL1   C22 8012   5.275   0.744   7.817 -0.0782 -0.0254 -0.5305
   75CHL1  H22A 8013   5.327   0.842   7.827  1.1564 -0.8412  1.8011
   75CHL1  H22B 8014   5.166   0.762   7.822 -0.2466 -1.2149  0.3574
   75CHL1   C23 8015   5.312   0.665   7.942 -0.3798 -0.0365 -0.6492
   75CHL1  H23A 8016   5.240   0.584   7.967  2.3687 -2.1037  1.1726
   75CHL1  H23B 8017   5.411   0.615   7.933 -0.4184 -0.1639 -0.3702
   75CHL1   C24 8018   5.321   0.770   8.057 -0.0325 -0.0138  0.6514
   75CHL1  H24A 8019   5.412   0.828   8.029 -0.9601  0.3601 -1.9430
   75CHL1  H24B 8020   5.233   0.838   8.058 -0.4477 -0.3648 -1.9953
   75CHL1   C25 8021   5.333   0.714   8.196 -0.3581  0.2443 -0.2347
   75CHL1   H25 8022   5.240   0.667   8.234 -0.6073 -0.4705 -1.6838
   75CHL1   C26 8023   5.444   0.608   8.216 -0.0094  0.0083  0.6258
   75CHL1  H26A 8024   5.435   0.523   8.146  2.9997  0.5326 -0.5412
   75CHL1  H26B 8025   5.546   0.650   8.201 -0.7183  2.2958  1.6921
   75CHL1  H26C 8026   5.432   0.565   8.317 -3.8989 -2.1806 -0.5446
   75CHL1   C27 8027   5.355   0.836   8.291 -0.3285  0.2041  0.2308
   75CHL1  H27A 8028   5.450   0.891   8.276  0.2829 -1.0781 -0.8385
   75CHL1  H27B 8029   5.282   0.920   8.296 -0.1444  0.5892 -2.4299
   75CHL1  H27C 8030   5.369   0.804   8.397 -1.8161 -1.1959  0.0457
   76CHL1    C3 8031   3.198   3.269   7.208 -0.7017 -0.1518  0.3534
   76CHL1    H3 8032   3.097   3.228   7.185 -1.5430  1.1089  1.5661
   76CHL1    O3 8033   3.276   3.285   7.091 -0.3301 -0.2825 -0.0115
   76CHL1   H3' 8034   3.307   3.197   7.072 -0.7857 -0.8683  1.7573
   76CHL1    C4 8035   3.166   3.412   7.278  0.5665 -0.2074 -0.1126
   76CHL1   H4A 8036   3.269   3.452   7.291  1.3716 -1.7294 -1.4564
   76CHL1   H4B 8037   3.113   3.482   7.209 -0.0158  0.3111  0.8342
   76CHL1    C5 8038   3.101   3.397   7.411 -0.1752 -0.1275  0.4489
   76CHL1    C6 8039   2.983   3.443   7.440  0.2376 -0.3889  0.0723
   76CHL1    H6 8040   2.923   3.506   7.373  2.4257  2.5996  0.7238
   76CHL1    C7 8041   2.920   3.429   7.575 -0.6539  0.1504  0.0287
   76CHL1   H7A 8042   2.870   3.527   7.584  2.8193  2.4391 -2.6723
   76CHL1   H7B 8043   2.851   3.343   7.565  0.2814 -0.6811  0.4738
   76CHL1    C8 8044   3.020   3.398   7.693 -0.2443 -0.2820  0.5215
   76CHL1    H8 8045   3.091   3.483   7.701  1.8758 -1.9927  0.5622
   76CHL1   C14 8046   2.949   3.370   7.823 -0.1475 -0.6357 -0.7458
   76CHL1   H14 8047   2.887   3.283   7.794  0.3369 -2.7435  3.7461
   76CHL1   C15 8048   2.848   3.477   7.886  0.2075 -0.3174 -0.0825
   76CHL1  H15A 8049   2.886   3.581   7.888 -1.8551  0.4733  1.1872
   76CHL1  H15B 8050   2.745   3.472   7.844  0.6207 -1.8595 -1.0189
   76CHL1   C16 8051   2.836   3.429   8.034 -0.4009  0.5378 -0.2791
   76CHL1  H16A 8052   2.861   3.519   8.093  0.3057 -0.1193  0.4473
   76CHL1  H16B 8053   2.732   3.397   8.056  0.6064 -2.4215  0.7059
   76CHL1   C17 8054   2.924   3.303   8.049 -0.0427  0.1849  0.6289
   76CHL1   H17 8055   2.862   3.219   8.011  1.0077 -0.2765 -0.1305
   76CHL1   C13 8056   3.039   3.323   7.941  0.9018 -0.5697 -0.4814
   76CHL1   C18 8057   3.142   3.431   7.982  0.0305 -0.8224  0.6805
   76CHL1  H18A 8058   3.192   3.391   8.072  0.1726 -1.1758  0.4471
   76CHL1  H18B 8059   3.208   3.447   7.894 -1.1181 -4.4582 -1.0451
   76CHL1  H18C 8060   3.089   3.522   8.017 -0.2499 -0.8112  0.2428
   76CHL1   C12 8061   3.112   3.200   7.898  1.0785  0.5456 -0.0075
   76CHL1  H12A 8062   3.194   3.168   7.965  0.8089 -0.1876 -0.0239
   76CHL1  H12B 8063   3.042   3.114   7.887 -0.3904  1.5065  1.3321
   76CHL1   C11 8064   3.190   3.220   7.761 -0.0210  0.3409 -0.4900
   76CHL1  H11A 8065   3.270   3.295   7.783 -0.2288  0.4711 -0.1732
   76CHL1  H11B 8066   3.228   3.120   7.732 -0.8441 -0.3911  0.8549
   76CHL1    C9 8067   3.099   3.278   7.644 -0.2875  0.4664  0.0822
   76CHL1    H9 8068   3.035   3.190   7.626  0.4377 -0.5861  2.2320
   76CHL1   C10 8069   3.180   3.309   7.511  0.0759 -0.1577  0.0979
   76CHL1   C19 8070   3.309   3.389   7.550  0.5343  0.2489  0.2234
   76CHL1  H19A 8071   3.372   3.342   7.629  1.3699  1.6744  0.4439
   76CHL1  H19B 8072   3.369   3.403   7.458 -0.5955 -0.3452 -0.6293
   76CHL1  H19C 8073   3.297   3.495   7.580  1.9749  0.3526  0.5003
   76CHL1    C1 8074   3.219   3.168   7.442  0.3127 -0.0033 -0.1051
   76CHL1   H1A 8075   3.293   3.122   7.512  0.3129  0.5373  0.2564
   76CHL1   H1B 8076   3.132   3.100   7.424 -0.2224  0.8282 -0.7194
   76CHL1    C2 8077   3.275   3.187   7.307 -0.1626  0.4719 -0.2132
   76CHL1   H2A 8078   3.291   3.087   7.261 -1.2251  0.2661 -0.1596
   76CHL1   H2B 8079   3.374   3.236   7.309  0.7880 -1.1701 -2.2812
   76CHL1   C20 8080   2.971   3.273   8.194 -0.4101  0.6180  0.7851
   76CHL1   H20 8081   3.063   3.332   8.216 -0.4916  1.0729 -0.0511
   76CHL1   C21 8082   3.004   3.124   8.192 -0.5148  0.5692 -0.5053
   76CHL1  H21A 8083   3.014   3.080   8.293 -1.5917 -1.9215 -1.4021
   76CHL1  H21B 8084   3.098   3.101   8.138 -0.9629  1.1385 -1.5576
   76CHL1  H21C 8085   2.924   3.065   8.144 -1.2653  1.7928 -0.8037
   76CHL1   C22 8086   2.857   3.299   8.293 -0.0485  0.3459 -0.3498
   76CHL1  H22A 8087   2.847   3.410   8.298  2.0421  0.6651 -2.0871
   76CHL1  H22B 8088   2.764   3.249   8.256  0.4125 -0.5710 -0.2968
   76CHL1   C23 8089   2.890   3.256   8.434  0.4220  0.5117  0.3675
   76CHL1  H23A 8090   2.899   3.146   8.453  3.0009  1.2349  4.6135
   76CHL1  H23B 8091   2.988   3.302   8.457 -0.0755  1.1122  1.3584
   76CHL1   C24 8092   2.784   3.305   8.534 -0.4780  0.4799 -0.1573
   76CHL1  H24A 8093   2.787   3.416   8.541 -1.9798  0.5080  0.1812
   76CHL1  H24B 8094   2.684   3.267   8.505  1.4051 -1.8190 -4.5689
   76CHL1   C25 8095   2.815   3.265   8.685 -0.0589  0.3993 -0.4147
   76CHL1   H25 8096   2.829   3.155   8.682  1.6712  0.5834 -0.4109
   76CHL1   C26 8097   2.947   3.317   8.737 -0.3795 -0.6153  0.0998
   76CHL1  H26A 8098   3.027   3.281   8.668  2.2381 -2.3631  3.6937
   76CHL1  H26B 8099   2.952   3.428   8.734 -1.4437 -0.5533  0.1736
   76CHL1  H26C 8100   2.966   3.271   8.836  2.6817 -0.4994 -0.3353
   76CHL1   C27 8101   2.709   3.305   8.780  0.9758 -0.8758  0.0029
   76CHL1  H27A 8102   2.609   3.265   8.753  0.2489  0.5378  0.4878
   76CHL1  H27B 8103   2.723   3.283   8.888 -1.1608  0.2800  0.5711
   76CHL1  H27C 8104   2.687   3.413   8.786  3.0027 -0.3542 -1.0396
   77CHL1    C3 8105   4.451   2.032   6.691  0.0368 -0.4037 -0.4407
   77CHL1    H3 8106   4.533   1.959   6.676  2.5959  2.0674  0.5351
   77CHL1    O3 8107   4.395   2.042   6.566  0.6907 -0.5921  0.2996
   77CHL1   H3' 8108   4.455   2.006   6.500  0.6607  0.0528 -0.0799
   77CHL1    C4 8109   4.340   1.994   6.785 -0.0664 -0.1556 -0.7143
   77CHL1   H4A 8110   4.245   2.037   6.748 -1.3488 -0.9756  1.4352
   77CHL1   H4B 8111   4.325   1.885   6.773 -2.6599  0.2697 -1.9845
   77CHL1    C5 8112   4.365   2.033   6.929 -0.2591 -0.5620  0.1088
   77CHL1    C6 8113   4.345   1.943   7.026  0.3427  0.5279 -0.1601
   77CHL1    H6 8114   4.315   1.840   7.003 -0.8173  1.0127 -0.9003
   77CHL1    C7 8115   4.355   1.969   7.171  0.4484 -0.2890 -0.6223
   77CHL1   H7A 8116   4.266   1.934   7.227  0.9354  1.5370  1.4526
   77CHL1   H7B 8117   4.439   1.909   7.212  2.3219  2.1231 -0.6405
   77CHL1    C8 8118   4.372   2.122   7.202  0.2558 -0.1453 -0.4601
   77CHL1    H8 8119   4.271   2.168   7.191 -0.3863 -0.9918  1.4370
   77CHL1   C14 8120   4.428   2.141   7.343 -0.6708 -0.6836  0.1023
   77CHL1   H14 8121   4.530   2.097   7.348  0.5626  2.0277  0.8658
   77CHL1   C15 8122   4.349   2.077   7.458  0.2185  0.6139 -0.3102
   77CHL1  H15A 8123   4.242   2.101   7.444 -0.5708 -1.3275  1.8261
   77CHL1  H15B 8124   4.367   1.968   7.460 -2.3628  0.1449  1.8905
   77CHL1   C16 8125   4.400   2.147   7.585 -0.2042  0.6324  0.2719
   77CHL1  H16A 8126   4.313   2.181   7.646 -0.1672 -1.1034  1.3432
   77CHL1  H16B 8127   4.461   2.075   7.643  0.4333 -0.6557 -1.8913
   77CHL1   C17 8128   4.485   2.273   7.528 -0.0796  0.4503 -0.3386
   77CHL1   H17 8129   4.591   2.241   7.526 -0.1969 -0.9707  4.2553
   77CHL1   C13 8130   4.437   2.292   7.377  0.1584  1.0394  0.0569
   77CHL1   C18 8131   4.298   2.367   7.380 -0.2255 -0.2580  0.5127
   77CHL1  H18A 8132   4.312   2.476   7.365  0.7824 -0.2404  1.4145
   77CHL1  H18B 8133   4.226   2.323   7.307  0.4042  0.5831 -0.6617
   77CHL1  H18C 8134   4.237   2.345   7.470  0.2375 -1.4563  0.5592
   77CHL1   C12 8135   4.538   2.351   7.281  0.2675  0.1216  0.2198
   77CHL1  H12A 8136   4.546   2.460   7.302 -2.3766  0.5841 -0.7981
   77CHL1  H12B 8137   4.636   2.301   7.298 -0.0006 -0.6477 -0.4177
   77CHL1   C11 8138   4.495   2.334   7.135  0.2578  0.5617 -0.6136
   77CHL1  H11A 8139   4.408   2.399   7.113 -0.1808  0.6144  1.0947
   77CHL1  H11B 8140   4.568   2.370   7.059  0.6677  1.7393  0.2916
   77CHL1    C9 8141   4.466   2.186   7.101 -0.1947 -0.1878 -0.1608
   77CHL1    H9 8142   4.559   2.127   7.117  2.4684  4.0691  1.6277
   77CHL1   C10 8143   4.419   2.172   6.957 -0.4131  0.7794 -0.3406
   77CHL1   C19 8144   4.309   2.271   6.916 -0.0340 -0.0954  0.5336
   77CHL1  H19A 8145   4.241   2.295   7.001 -0.0462  0.1439  0.4562
   77CHL1  H19B 8146   4.354   2.362   6.871 -1.4477 -0.9644 -2.9164
   77CHL1  H19C 8147   4.246   2.233   6.833 -0.4812 -0.7077  1.1433
   77CHL1    C1 8148   4.544   2.195   6.865  0.3750 -0.1546  0.5253
   77CHL1   H1A 8149   4.554   2.306   6.871 -1.1141  0.0713 -0.5823
   77CHL1   H1B 8150   4.626   2.134   6.908  1.1509  1.0577  0.8126
   77CHL1    C2 8151   4.517   2.169   6.716 -0.2247 -0.3996  0.0374
   77CHL1   H2A 8152   4.616   2.171   6.666  1.2028 -0.3657  2.7152
   77CHL1   H2B 8153   4.449   2.249   6.680 -0.7392 -1.6616 -1.9585
   77CHL1   C20 8154   4.481   2.387   7.628 -1.0495  0.2026  0.3863
   77CHL1   H20 8155   4.378   2.429   7.638 -1.6407 -1.0601 -0.1321
   77CHL1   C21 8156   4.579   2.505   7.582  0.4126 -0.7393 -0.3007
   77CHL1  H21A 8157   4.541   2.560   7.493  0.1091  0.2840  0.4367
   77CHL1  H21B 8158   4.679   2.466   7.554  0.8086 -0.0272  0.0942
   77CHL1  H21C 8159   4.590   2.583   7.661  0.4197 -0.7291 -0.3115
   77CHL1   C22 8160   4.523   2.337   7.766  0.4351 -0.1244 -0.9350
   77CHL1  H22A 8161   4.535   2.427   7.830 -0.7642  0.5147 -1.5684
   77CHL1  H22B 8162   4.437   2.277   7.802  1.3414 -0.4648  0.7518
   77CHL1   C23 8163   4.642   2.240   7.785  0.5884 -0.7467 -0.0371
   77CHL1  H23A 8164   4.622   2.135   7.757  0.0787 -0.3142 -1.3482
   77CHL1  H23B 8165   4.722   2.278   7.717  1.4870 -0.6530  1.0333
   77CHL1   C24 8166   4.690   2.259   7.937 -0.2682 -0.1257  0.1491
   77CHL1  H24A 8167   4.698   2.369   7.953 -0.0792  0.0576 -1.1157
   77CHL1  H24B 8168   4.602   2.225   7.996 -0.3415  0.4981  0.4092
   77CHL1   C25 8169   4.815   2.188   7.978 -0.2028 -0.5142  0.3619
   77CHL1   H25 8170   4.891   2.242   7.919 -0.7437  0.1221  0.2424
   77CHL1   C26 8171   4.844   2.208   8.126 -0.3526  0.5522 -0.3975
   77CHL1  H26A 8172   4.946   2.168   8.145 -0.5658  0.0607 -0.2774
   77CHL1  H26B 8173   4.849   2.317   8.146 -0.0099  0.5497 -0.4697
   77CHL1  H26C 8174   4.764   2.148   8.174 -0.8413  2.3731  1.2048
   77CHL1   C27 8175   4.819   2.039   7.952  0.6434 -0.0943 -0.1439
   77CHL1  H27A 8176   4.789   2.009   7.849  0.8888 -1.5122  0.1902
   77CHL1  H27B 8177   4.920   1.996   7.966  0.4478 -1.1507 -1.7240
   77CHL1  H27C 8178   4.759   1.976   8.020  0.6291 -0.6731 -0.6785
   78CHL1    C3 8179   6.780   3.521   6.901 -0.5220  0.8117 -0.3644
   78CHL1    H3 8180   6.800   3.630   6.890  2.8952  0.1171 -2.7180
   78CHL1    O3 8181   6.763   3.478   6.765  0.2694 -0.1571 -0.0728
   78CHL1   H3' 8182   6.738   3.385   6.764 -0.3186  0.0041 -1.2636
   78CHL1    C4 8183   6.897   3.455   6.964 -0.7067  0.1192 -1.0584
   78CHL1   H4A 8184   6.892   3.345   6.948  3.3684  0.0523 -3.2979
   78CHL1   H4B 8185   6.984   3.483   6.901 -0.9333  0.3457 -1.2754
   78CHL1    C5 8186   6.909   3.489   7.111  0.8868 -0.6401  0.4310
   78CHL1    C6 8187   7.022   3.561   7.151  0.9257 -0.0216  0.3683
   78CHL1    H6 8188   7.099   3.588   7.077  0.5004  0.4477  0.0890
   78CHL1    C7 8189   7.038   3.622   7.287  0.4116  0.1915  0.2129
   78CHL1   H7A 8190   7.143   3.612   7.323 -0.2407 -0.0023  2.1884
   78CHL1   H7B 8191   7.001   3.727   7.284 -0.9236 -0.2833 -1.4708
   78CHL1    C8 8192   6.942   3.545   7.391 -0.0211 -0.1208  0.4074
   78CHL1    H8 8193   6.981   3.441   7.402  2.1065  0.7976  2.4161
   78CHL1   C14 8194   6.956   3.612   7.535 -0.0244  0.8925 -0.1483
   78CHL1   H14 8195   6.934   3.721   7.531 -0.9999  0.6701 -1.2619
   78CHL1   C15 8196   7.096   3.617   7.608 -0.5479 -0.5519  0.2102
   78CHL1  H15A 8197   7.144   3.517   7.604  0.6523 -0.0020 -3.7627
   78CHL1  H15B 8198   7.161   3.693   7.557  0.3877 -0.4025  1.5699
   78CHL1   C16 8199   7.059   3.648   7.752  0.3948  0.3174 -0.5420
   78CHL1  H16A 8200   7.096   3.561   7.811  0.6397 -0.5853 -1.9748
   78CHL1  H16B 8201   7.098   3.747   7.784  4.1885 -0.7184 -1.5518
   78CHL1   C17 8202   6.899   3.638   7.759  0.3548  0.7872 -0.3228
   78CHL1   H17 8203   6.844   3.733   7.741  0.5169  0.7406 -1.1169
   78CHL1   C13 8204   6.854   3.558   7.632  0.1391 -0.4534 -0.8499
   78CHL1   C18 8205   6.873   3.407   7.656  0.2526 -0.7900 -0.3856
   78CHL1  H18A 8206   6.819   3.366   7.744  1.6811  0.2086  1.0166
   78CHL1  H18B 8207   6.848   3.348   7.565  0.9437  0.4852 -1.4538
   78CHL1  H18C 8208   6.979   3.386   7.682  0.0667 -1.3470 -0.0599
   78CHL1   C12 8209   6.719   3.593   7.578  0.0747 -0.8209 -0.5043
   78CHL1  H12A 8210   6.641   3.569   7.653 -0.2103  2.3296  0.3508
   78CHL1  H12B 8211   6.722   3.702   7.559  1.1768 -0.7171  0.1626
   78CHL1   C11 8212   6.692   3.521   7.449  0.4349  0.9462  0.2754
   78CHL1  H11A 8213   6.691   3.411   7.467 -0.1939  0.8650 -0.2128
   78CHL1  H11B 8214   6.590   3.545   7.413  0.2477 -1.1243 -0.7361
   78CHL1    C9 8215   6.800   3.551   7.335  0.3510 -1.0155 -0.3067
   78CHL1    H9 8216   6.786   3.659   7.313 -0.5134 -1.7992 -4.4945
   78CHL1   C10 8217   6.787   3.477   7.195  0.1188  0.9437  0.0287
   78CHL1   C19 8218   6.745   3.330   7.222 -0.0341  0.1445  0.9774
   78CHL1  H19A 8219   6.821   3.277   7.283 -2.4006 -1.1785  2.9472
   78CHL1  H19B 8220   6.649   3.325   7.277 -1.8231 -0.0522 -1.9666
   78CHL1  H19C 8221   6.709   3.286   7.127  0.6965  0.4706  0.5362
   78CHL1    C1 8222   6.663   3.536   7.127  0.0325  0.2670  0.1556
   78CHL1   H1A 8223   6.570   3.509   7.181  0.2281 -1.1318 -0.1644
   78CHL1   H1B 8224   6.682   3.646   7.126 -0.5491  0.5137 -4.3918
   78CHL1    C2 8225   6.656   3.497   6.982 -0.4856  0.2627  1.6706
   78CHL1   H2A 8226   6.577   3.558   6.934  0.6557  1.2580  0.9864
   78CHL1   H2B 8227   6.615   3.395   6.967 -2.5565  1.3335 -0.6376
   78CHL1   C20 8228   6.834   3.600   7.894  0.0107 -0.0121 -0.2128
   78CHL1   H20 8229   6.744   3.537   7.880 -0.6442  0.5490  1.3410
   78CHL1   C21 8230   6.787   3.727   7.970 -0.7332 -0.0544 -0.0888
   78CHL1  H21A 8231   6.747   3.801   7.897  1.2840  0.7018 -0.5120
   78CHL1  H21B 8232   6.882   3.773   8.005 -0.4197 -1.2194  0.6180
   78CHL1  H21C 8233   6.716   3.716   8.054 -0.9732  0.5259 -0.2085
   78CHL1   C22 8234   6.919   3.510   7.983 -0.0242  0.4023 -0.4552
   78CHL1  H22A 8235   6.967   3.428   7.926 -0.0936  0.5650 -0.7525
   78CHL1  H22B 8236   7.002   3.565   8.032 -0.6164 -0.4574  1.6181
   78CHL1   C23 8237   6.839   3.434   8.096 -0.5566  0.3857  0.9695
   78CHL1  H23A 8238   6.806   3.510   8.170 -1.9039  0.6889  0.0948
   78CHL1  H23B 8239   6.748   3.397   8.044  0.3831  1.8830 -1.9908
   78CHL1   C24 8240   6.918   3.320   8.167  0.3455 -0.3938 -0.4091
   78CHL1  H24A 8241   6.916   3.231   8.101  1.4592  0.7118 -1.9986
   78CHL1  H24B 8242   7.028   3.339   8.169  0.5544 -1.5328  0.9716
   78CHL1   C25 8243   6.858   3.298   8.308 -0.0968  0.4036  0.3078
   78CHL1   H25 8244   6.858   3.397   8.358 -1.1198  0.9317 -0.7103
   78CHL1   C26 8245   6.710   3.262   8.299 -0.7862 -0.4302 -0.4726
   78CHL1  H26A 8246   6.695   3.164   8.249 -0.6579 -0.4159 -0.5366
   78CHL1  H26B 8247   6.672   3.248   8.403  1.3734 -2.1208  0.1529
   78CHL1  H26C 8248   6.662   3.347   8.246  0.2330  0.2706 -0.3030
   78CHL1   C27 8249   6.939   3.201   8.394 -0.4284  0.7025  0.5278
   78CHL1  H27A 8250   6.916   3.227   8.499  1.4281 -1.8375  1.6592
   78CHL1  H27B 8251   6.922   3.093   8.372 -0.1538  1.0591 -1.6712
   78CHL1  H27C 8252   7.046   3.224   8.379 -0.1913  1.9632  3.4796
   79CHL1    C3 8253   4.910   2.769   7.254  0.1511  0.2708 -1.0503
   79CHL1    H3 8254   4.804   2.794   7.273 -0.0295 -1.6716  0.9419
   79CHL1    O3 8255   4.931   2.723   7.124 -0.4841  0.0732 -0.4775
   79CHL1   H3' 8256   5.023   2.695   7.119 -1.3367 -2.9661 -1.6822
   79CHL1    C4 8257   5.011   2.871   7.295 -0.5000  0.0951 -0.4520
   79CHL1   H4A 8258   5.114   2.837   7.275  0.8620  1.6215  3.0833
   79CHL1   H4B 8259   4.993   2.960   7.232  1.0838  0.3245 -0.6039
   79CHL1    C5 8260   5.006   2.910   7.445 -0.6776  0.8236  0.1108
   79CHL1    C6 8261   4.960   3.038   7.482  0.1700  0.4503  0.7974
   79CHL1    H6 8262   4.946   3.115   7.405  1.0167  0.0007  0.1748
   79CHL1    C7 8263   4.948   3.074   7.623  0.5350  0.5088  0.0709
   79CHL1   H7A 8264   4.977   3.179   7.644  0.0044  1.0625 -1.7417
   79CHL1   H7B 8265   4.841   3.078   7.653  0.8562 -4.9601  3.2838
   79CHL1    C8 8266   5.014   2.979   7.728 -0.5437 -0.6434 -0.4502
   79CHL1    H8 8267   5.122   3.001   7.720 -0.6999 -0.0750 -1.0959
   79CHL1   C14 8268   4.962   2.999   7.870 -0.0401  0.0418 -0.2212
   79CHL1   H14 8269   4.854   2.973   7.870  0.4549 -2.6125  2.6202
   79CHL1   C15 8270   4.985   3.137   7.940 -0.6603 -0.4018 -0.1057
   79CHL1  H15A 8271   5.089   3.162   7.911 -0.6140 -0.7140 -0.2029
   79CHL1  H15B 8272   4.916   3.214   7.898  2.7278  1.6099 -2.4297
   79CHL1   C16 8273   4.982   3.113   8.093  0.1007 -0.2711 -0.1125
   79CHL1  H16A 8274   5.078   3.156   8.128 -0.1676 -0.7131  1.2341
   79CHL1  H16B 8275   4.894   3.156   8.146 -0.6473 -3.8099  1.8493
   79CHL1   C17 8276   4.965   2.961   8.115 -0.0463 -0.1540 -0.1295
   79CHL1   H17 8277   4.856   2.940   8.108  0.0626 -1.3319  1.1854
   79CHL1   C13 8278   5.026   2.902   7.978 -0.1983  0.3155 -0.0717
   79CHL1   C18 8279   5.178   2.917   7.985 -0.1777  0.2672  0.2796
   79CHL1  H18A 8280   5.224   2.877   7.892 -0.0836 -1.1129  0.9037
   79CHL1  H18B 8281   5.220   3.018   8.008  1.3505 -0.1941 -0.3308
   79CHL1  H18C 8282   5.210   2.842   8.060  1.1908 -1.3082 -1.7621
   79CHL1   C12 8283   4.976   2.764   7.940 -0.6408  0.6290  0.1905
   79CHL1  H12A 8284   5.016   2.692   8.014 -2.1536 -1.5859 -1.0357
   79CHL1  H12B 8285   4.865   2.765   7.935 -0.6671 -1.5692 -0.4642
   79CHL1   C11 8286   5.030   2.729   7.797  0.2101  0.1763 -0.7136
   79CHL1  H11A 8287   5.140   2.724   7.805  0.1495  0.8677  1.1020
   79CHL1  H11B 8288   4.985   2.632   7.766 -1.1309 -0.0299  1.6193
   79CHL1    C9 8289   4.985   2.831   7.687 -1.0160  0.1105 -0.1038
   79CHL1    H9 8290   4.876   2.815   7.693 -1.0597  0.7751  1.5794
   79CHL1   C10 8291   5.028   2.794   7.544  0.5649 -0.4495  0.2727
   79CHL1   C19 8292   5.180   2.765   7.546  0.2224 -0.2891  0.7144
   79CHL1  H19A 8293   5.224   2.852   7.599 -2.4252  1.9919 -0.5426
   79CHL1  H19B 8294   5.198   2.677   7.611 -0.7047  0.1358  1.5652
   79CHL1  H19C 8295   5.221   2.756   7.443  0.5422 -0.3163  0.8426
   79CHL1    C1 8296   4.929   2.681   7.496  0.0479  0.2894  0.3765
   79CHL1   H1A 8297   4.930   2.587   7.556  0.3464  0.3110  0.4056
   79CHL1   H1B 8298   4.824   2.718   7.498 -0.1220 -0.1466 -0.0486
   79CHL1    C2 8299   4.936   2.646   7.343  0.3356 -0.0614 -0.6114
   79CHL1   H2A 8300   4.864   2.565   7.322  1.8224 -1.2398 -1.3476
   79CHL1   H2B 8301   5.037   2.605   7.321  0.6664 -0.1634  0.9915
   79CHL1   C20 8302   5.020   2.904   8.250  0.0419 -0.6242  0.1574
   79CHL1   H20 8303   5.131   2.896   8.246  0.0865 -1.4040  2.0023
   79CHL1   C21 8304   4.954   2.777   8.300  0.0944  0.4750  0.5620
   79CHL1  H21A 8305   4.938   2.710   8.213  0.8070  1.4242 -0.3282
   79CHL1  H21B 8306   4.857   2.793   8.350 -0.2178 -2.4101  1.0613
   79CHL1  H21C 8307   5.016   2.720   8.372 -1.1831 -1.4272  0.2324
   79CHL1   C22 8308   4.998   3.006   8.370 -0.0245 -0.6220  0.5227
   79CHL1  H22A 8309   5.062   3.094   8.343  0.0890 -0.8508  0.0246
   79CHL1  H22B 8310   4.892   3.036   8.378  0.4509  1.1210  0.6791
   79CHL1   C23 8311   5.055   2.957   8.502 -0.1207 -0.2332 -0.2041
   79CHL1  H23A 8312   5.022   2.855   8.532  0.6176 -0.2463  0.5930
   79CHL1  H23B 8313   5.163   2.948   8.478 -0.4317 -1.7631 -1.2138
   79CHL1   C24 8314   5.035   3.053   8.614  0.6395  0.5314  0.0637
   79CHL1  H24A 8315   5.109   3.136   8.621  1.0408  0.1162  0.7780
   79CHL1  H24B 8316   4.935   3.097   8.597 -0.5992 -1.9339  0.5822
   79CHL1   C25 8317   5.009   2.994   8.754 -0.2664  0.7328  0.0323
   79CHL1   H25 8318   5.089   2.917   8.765 -0.3566  0.5818 -0.3547
   79CHL1   C26 8319   5.008   3.088   8.864  0.3685  0.0061  0.0364
   79CHL1  H26A 8320   4.995   3.030   8.958  0.7400  1.4114  0.9914
   79CHL1  H26B 8321   5.109   3.134   8.872  0.1528  0.7400 -1.2067
   79CHL1  H26C 8322   4.927   3.163   8.850  0.8684  0.7267  0.8912
   79CHL1   C27 8323   4.874   2.923   8.752 -0.3547  0.1615  0.1604
   79CHL1  H27A 8324   4.800   2.997   8.714 -0.5191 -0.3430 -0.5319
   79CHL1  H27B 8325   4.874   2.836   8.683  0.2688 -0.5612  1.0522
   79CHL1  H27C 8326   4.841   2.889   8.853 -0.7312  1.7538  0.6110
   80CHL1    C3 8327   2.834   0.909   7.055  0.0866 -0.8702  1.1825
   80CHL1    H3 8328   2.847   1.012   7.095  1.2174 -0.6020  0.1808
   80CHL1    O3 8329   2.813   0.928   6.915  0.2421 -0.1967  0.5107
   80CHL1   H3' 8330   2.772   0.844   6.894  1.3089 -0.8086  0.8393
   80CHL1    C4 8331   2.970   0.844   7.075  0.1120  0.4570  0.6771
   80CHL1   H4A 8332   2.989   0.766   6.998 -0.3053  1.5762 -0.5896
   80CHL1   H4B 8333   3.038   0.926   7.045 -1.2224  0.8426 -1.5334
   80CHL1    C5 8334   2.977   0.793   7.217 -0.2458  0.2358  0.4504
   80CHL1    C6 8335   3.078   0.814   7.303  1.1147 -0.3302  1.1440
   80CHL1    H6 8336   3.167   0.868   7.266  0.8596 -0.8292 -0.2614
   80CHL1    C7 8337   3.093   0.754   7.432 -0.1879  0.4400  0.0392
   80CHL1   H7A 8338   3.183   0.688   7.438 -0.3638  0.1821 -0.1647
   80CHL1   H7B 8339   3.100   0.832   7.511  0.5487  0.9588 -0.5202
   80CHL1    C8 8340   2.990   0.652   7.476  0.5247 -0.2797 -0.5289
   80CHL1    H8 8341   3.019   0.552   7.438  0.5158 -1.4294  2.2836
   80CHL1   C14 8342   2.987   0.648   7.627  0.8858  0.3916 -0.4393
   80CHL1   H14 8343   2.957   0.748   7.663  1.6384  0.1531  0.9266
   80CHL1   C15 8344   3.119   0.606   7.694  0.2195  0.4357  0.4895
   80CHL1  H15A 8345   3.166   0.517   7.649  0.1107 -0.2921  1.7626
   80CHL1  H15B 8346   3.199   0.683   7.701  0.0759  0.7993 -1.3984
   80CHL1   C16 8347   3.072   0.568   7.838 -0.4484 -0.2380  1.4209
   80CHL1  H16A 8348   3.121   0.474   7.872 -2.9053 -1.3295  2.2229
   80CHL1  H16B 8349   3.107   0.654   7.898 -0.2779 -0.7031  2.0011
   80CHL1   C17 8350   2.918   0.572   7.833  0.1570  0.0517 -0.2643
   80CHL1   H17 8351   2.885   0.677   7.852  0.9785  0.0397  1.3981
   80CHL1   C13 8352   2.882   0.543   7.684 -0.0126  0.1558  0.0864
   80CHL1   C18 8353   2.916   0.399   7.653  0.7722  0.3490  0.8535
   80CHL1  H18A 8354   3.012   0.359   7.694  0.6798 -0.6122  0.1715
   80CHL1  H18B 8355   2.837   0.336   7.699  0.2276  0.0773 -0.4128
   80CHL1  H18C 8356   2.912   0.374   7.545 -1.0290  2.0523  0.4836
   80CHL1   C12 8357   2.746   0.572   7.632  0.4436 -0.7935  0.3659
   80CHL1  H12A 8358   2.671   0.495   7.662 -1.1357  1.8269  3.8733
   80CHL1  H12B 8359   2.718   0.666   7.682 -0.4339 -1.3942  1.0343
   80CHL1   C11 8360   2.743   0.600   7.482  0.5595  0.2146 -0.1157
   80CHL1  H11A 8361   2.748   0.499   7.436  0.2475 -1.2960  2.8990
   80CHL1  H11B 8362   2.644   0.645   7.457  0.2347  0.8386  2.0989
   80CHL1    C9 8363   2.851   0.691   7.435 -0.4455 -0.3931  0.7274
   80CHL1    H9 8364   2.834   0.794   7.474 -0.6465  0.8823 -2.4841
   80CHL1   C10 8365   2.854   0.722   7.276 -0.2457  0.1815  0.8673
   80CHL1   C19 8366   2.847   0.586   7.207  0.3170  0.1566 -0.4286
   80CHL1  H19A 8367   2.755   0.526   7.226  0.6085 -0.3131 -0.4671
   80CHL1  H19B 8368   2.868   0.590   7.098  1.0406 -1.6727 -0.3999
   80CHL1  H19C 8369   2.925   0.524   7.257 -0.2936 -0.7639 -0.5835
   80CHL1    C1 8370   2.729   0.804   7.254  0.7086  0.0857  0.1916
   80CHL1   H1A 8371   2.633   0.754   7.279  0.2495  0.8598  0.0287
   80CHL1   H1B 8372   2.740   0.895   7.318  0.8406 -0.6906  1.3014
   80CHL1    C2 8373   2.713   0.838   7.106  0.0803 -0.5354  0.1575
   80CHL1   H2A 8374   2.626   0.907   7.096  0.5598 -0.2649 -4.0081
   80CHL1   H2B 8375   2.694   0.743   7.051 -0.6885  1.5260 -3.5507
   80CHL1   C20 8376   2.862   0.487   7.952 -0.4340 -0.4398  0.4622
   80CHL1   H20 8377   2.911   0.388   7.941  1.3997  0.3110  1.5238
   80CHL1   C21 8378   2.708   0.484   7.939  0.3701  0.5809 -0.1019
   80CHL1  H21A 8379   2.664   0.585   7.957 -0.5625  0.1475  0.1150
   80CHL1  H21B 8380   2.664   0.429   8.025  1.3817  0.0697  0.1111
   80CHL1  H21C 8381   2.668   0.436   7.848  0.1155  0.7232 -0.0651
   80CHL1   C22 8382   2.899   0.543   8.091 -0.3124 -0.1382  0.3827
   80CHL1  H22A 8383   3.006   0.573   8.084 -0.2674 -0.3887 -0.0199
   80CHL1  H22B 8384   2.842   0.636   8.109 -0.1559  0.1825 -0.7115
   80CHL1   C23 8385   2.899   0.435   8.203 -0.5167  0.0103  0.0447
   80CHL1  H23A 8386   2.904   0.495   8.296  0.1334  1.4278 -0.8808
   80CHL1  H23B 8387   2.795   0.396   8.197  0.0023 -1.3623 -0.2535
   80CHL1   C24 8388   2.999   0.321   8.192  0.5507  0.2137  0.0264
   80CHL1  H24A 8389   2.961   0.229   8.241  1.5373 -0.0488  0.3239
   80CHL1  H24B 8390   2.999   0.280   8.088  0.7688  0.1273  0.0604
   80CHL1   C25 8391   3.138   0.338   8.244 -0.1632 -0.6460  0.1508
   80CHL1   H25 8392   3.195   0.423   8.201  1.4159 -2.2623 -1.0837
   80CHL1   C26 8393   3.134   0.375   8.398  0.0227  0.2747 -0.0646
   80CHL1  H26A 8394   3.057   0.317   8.452 -0.2078  0.9830  0.3866
   80CHL1  H26B 8395   3.232   0.350   8.443  0.2584  1.1969 -0.0464
   80CHL1  H26C 8396   3.116   0.484   8.406  2.2581  0.7787 -1.0200
   80CHL1   C27 8397   3.225   0.220   8.223 -0.3187 -0.0590  0.1508
   80CHL1  H27A 8398   3.250   0.217   8.115 -0.2671 -1.6416  0.1761
   80CHL1  H27B 8399   3.317   0.224   8.285  0.4050 -0.2058 -0.8748
   80CHL1  H27C 8400   3.169   0.127   8.245  0.2131 -0.3777  0.1786
   81CHL1    C3 8401   0.248   0.032   6.730  0.0602  0.1587  0.1537
   81CHL1    H3 8402   0.204   0.106   6.800 -0.5495 -1.5919  1.7285
   81CHL1    O3 8403   0.253   0.091   6.602  0.0574  0.0113  0.4420
   81CHL1   H3' 8404   0.254   0.186   6.614  0.3207 -0.1046  1.4199
   81CHL1    C4 8405   0.400   0.007   6.762  0.9253 -0.6028  0.2701
   81CHL1   H4A 8406   0.450  -0.033   6.672  3.0591  2.8361 -0.2430
   81CHL1   H4B 8407   0.453   0.104   6.776  1.9328 -0.4065 -3.6919
   81CHL1    C5 8408   0.425  -0.083   6.876  0.4968 -0.0480 -0.2142
   81CHL1    C6 8409   0.508  -0.038   6.969  0.1497 -0.4909 -0.3688
   81CHL1    H6 8410   0.550   0.064   6.964 -1.7800  0.3062 -1.4663
   81CHL1    C7 8411   0.549  -0.115   7.085 -0.0864 -0.0854 -0.1034
   81CHL1   H7A 8412   0.658  -0.100   7.096  0.0916 -2.0239  1.1703
   81CHL1   H7B 8413   0.499  -0.078   7.177  0.1424  0.5192 -0.2201
   81CHL1    C8 8414   0.495  -0.262   7.081  0.0028  0.4419 -0.3844
   81CHL1    H8 8415   0.566  -0.316   7.015 -0.4688 -1.2028  0.4178
   81CHL1   C14 8416   0.492  -0.315   7.230 -0.5740 -0.2442 -0.5870
   81CHL1   H14 8417   0.415  -0.259   7.288  0.4422 -1.1640  1.7700
   81CHL1   C15 8418   0.627  -0.307   7.312 -0.9129 -0.1548 -0.0082
   81CHL1  H15A 8419   0.717  -0.325   7.249  0.6545  0.8744  1.8093
   81CHL1  H15B 8420   0.626  -0.202   7.349 -1.8514  0.7330 -2.3385
   81CHL1   C16 8421   0.611  -0.405   7.427 -0.1561 -0.1295  1.2218
   81CHL1  H16A 8422   0.694  -0.478   7.422  1.5395  1.8155 -1.3613
   81CHL1  H16B 8423   0.607  -0.354   7.526 -1.1863 -0.7700  1.5273
   81CHL1   C17 8424   0.471  -0.473   7.399  0.2536  0.4208  0.3191
   81CHL1   H17 8425   0.400  -0.415   7.461  0.1315 -0.0578  0.6333
   81CHL1   C13 8426   0.447  -0.456   7.248  0.8684 -0.3119  0.4778
   81CHL1   C18 8427   0.552  -0.546   7.172 -0.0161 -0.3551  0.8610
   81CHL1  H18A 8428   0.658  -0.537   7.203  0.6082 -1.0608 -0.9621
   81CHL1  H18B 8429   0.513  -0.650   7.173 -5.2975  1.2546 -1.5918
   81CHL1  H18C 8430   0.551  -0.512   7.066 -0.5856  0.8627  1.2370
   81CHL1   C12 8431   0.296  -0.469   7.187 -0.4851  0.4713 -0.2051
   81CHL1  H12A 8432   0.266  -0.576   7.188 -1.9494  0.8592 -0.3080
   81CHL1  H12B 8433   0.222  -0.413   7.249 -1.3477 -0.6230 -0.2130
   81CHL1   C11 8434   0.292  -0.417   7.043 -0.2705 -0.2387 -0.5549
   81CHL1  H11A 8435   0.350  -0.482   6.974  1.7733  2.0702 -1.1569
   81CHL1  H11B 8436   0.189  -0.416   7.002  0.3554 -1.9852 -2.3180
   81CHL1    C9 8437   0.354  -0.274   7.025  0.0400 -0.2152 -0.7454
   81CHL1    H9 8438   0.291  -0.213   7.094 -0.7660 -2.3227  0.4930
   81CHL1   C10 8439   0.341  -0.215   6.886 -0.1396  0.2358 -0.4944
   81CHL1   C19 8440   0.392  -0.313   6.777  0.1478 -1.4765  0.0151
   81CHL1  H19A 8441   0.315  -0.386   6.743 -1.3588  0.1029 -0.1154
   81CHL1  H19B 8442   0.425  -0.253   6.690  1.0965  2.3883  2.7610
   81CHL1  H19C 8443   0.479  -0.372   6.812  1.0944  0.2684  0.7457
   81CHL1    C1 8444   0.192  -0.180   6.860  0.6345 -0.0262 -0.3950
   81CHL1   H1A 8445   0.131  -0.272   6.854  0.6524  0.0479 -2.0579
   81CHL1   H1B 8446   0.172  -0.123   6.954  3.5339  1.4654 -0.5810
   81CHL1    C2 8447   0.160  -0.092   6.736 -0.2778 -0.0979 -0.5053
   81CHL1   H2A 8448   0.053  -0.066   6.722 -0.0742  0.4609 -1.1015
   81CHL1   H2B 8449   0.196  -0.150   6.648  0.7885  0.3900 -0.4108
   81CHL1   C20 8450   0.467  -0.614   7.465  0.1522  0.0457  0.9707
   81CHL1   H20 8451   0.535  -0.677   7.404  1.8629  0.9898  1.8444
   81CHL1   C21 8452   0.328  -0.684   7.456 -0.0958 -0.1796 -0.4123
   81CHL1  H21A 8453   0.256  -0.619   7.512  1.3425  1.3470 -0.2633
   81CHL1  H21B 8454   0.330  -0.787   7.497 -0.3069 -0.4264 -1.0207
   81CHL1  H21C 8455   0.305  -0.700   7.349 -0.8782 -0.4285 -0.2119
   81CHL1   C22 8456   0.519  -0.637   7.610  0.4372  0.0927  0.5806
   81CHL1  H22A 8457   0.525  -0.746   7.632  0.7908 -0.7106 -2.9497
   81CHL1  H22B 8458   0.621  -0.593   7.613  0.6110 -0.1345 -1.0110
   81CHL1   C23 8459   0.441  -0.562   7.727 -1.2281 -0.0725  0.2177
   81CHL1  H23A 8460   0.449  -0.457   7.693 -0.2351  0.2035  1.2657
   81CHL1  H23B 8461   0.335  -0.595   7.733 -1.1319 -0.1942  1.6473
   81CHL1   C24 8462   0.496  -0.588   7.866  0.5949  0.2966  0.5879
   81CHL1  H24A 8463   0.484  -0.698   7.881 -1.4899  0.1235 -1.6931
   81CHL1  H24B 8464   0.604  -0.567   7.854  0.8570 -1.6408 -1.0649
   81CHL1   C25 8465   0.437  -0.488   7.968 -0.3892  0.7999  0.4650
   81CHL1   H25 8466   0.451  -0.389   7.921 -1.7921  0.6982 -0.2320
   81CHL1   C26 8467   0.285  -0.511   8.008 -0.6898 -0.0283  0.6839
   81CHL1  H26A 8468   0.211  -0.476   7.933 -1.7919  0.5149  1.9651
   81CHL1  H26B 8469   0.278  -0.621   8.029 -2.1664 -0.1009 -0.0378
   81CHL1  H26C 8470   0.257  -0.455   8.100 -0.8195 -0.0461  0.6557
   81CHL1   C27 8471   0.512  -0.484   8.100 -0.2169 -0.3735  0.1810
   81CHL1  H27A 8472   0.622  -0.472   8.090 -0.2650 -1.0706 -1.4374
   81CHL1  H27B 8473   0.470  -0.407   8.168 -1.2469 -0.1954 -0.6406
   81CHL1  H27C 8474   0.505  -0.574   8.165 -0.1504  1.3789  2.7607
   82CHL1    C3 8475   2.060   1.539   6.965 -0.4465  0.3900  0.7263
   82CHL1    H3 8476   2.062   1.649   6.980  1.3468  0.4309  0.3475
   82CHL1    O3 8477   2.044   1.509   6.830 -0.1670 -0.2067  0.2809
   82CHL1   H3' 8478   1.959   1.465   6.827  0.9504 -2.4203 -1.4922
   82CHL1    C4 8479   2.186   1.472   7.019  0.0280 -0.4377 -0.0487
   82CHL1   H4A 8480   2.211   1.370   6.983 -0.2338 -1.4758  2.5065
   82CHL1   H4B 8481   2.270   1.531   6.977  0.0638 -0.4979 -0.0628
   82CHL1    C5 8482   2.187   1.470   7.175 -0.6627 -0.0412 -0.0332
   82CHL1    C6 8483   2.291   1.512   7.251  0.1869 -0.0208  0.9401
   82CHL1    H6 8484   2.380   1.551   7.199 -1.9949  1.0931 -2.3390
   82CHL1    C7 8485   2.295   1.505   7.402  1.1323  0.4176 -0.1015
   82CHL1   H7A 8486   2.394   1.470   7.439  0.4349 -0.9871  0.4734
   82CHL1   H7B 8487   2.294   1.609   7.443  1.6685  1.2287 -2.0288
   82CHL1    C8 8488   2.185   1.418   7.459  0.9581 -0.1721  0.4450
   82CHL1    H8 8489   2.215   1.314   7.434  0.0767 -1.1820  3.2003
   82CHL1   C14 8490   2.158   1.436   7.609  0.4652  0.1684  0.5933
   82CHL1   H14 8491   2.122   1.541   7.610  0.4552  0.1970 -0.7688
   82CHL1   C15 8492   2.282   1.439   7.705  0.4485  0.2283  0.0068
   82CHL1  H15A 8493   2.363   1.377   7.660  0.5550 -1.0082  1.7902
   82CHL1  H15B 8494   2.311   1.546   7.715  0.2586  0.5505 -2.4317
   82CHL1   C16 8495   2.220   1.389   7.842 -0.0096  0.1588 -0.7109
   82CHL1  H16A 8496   2.258   1.288   7.869 -0.3439  0.8231  2.7947
   82CHL1  H16B 8497   2.237   1.468   7.918  2.5736  0.1426 -1.1905
   82CHL1   C17 8498   2.069   1.372   7.821  0.3721 -0.5695  0.1693
   82CHL1   H17 8499   2.019   1.470   7.840 -2.5025 -2.1873  1.4409
   82CHL1   C13 8500   2.057   1.340   7.672 -0.0639  0.1752 -0.1589
   82CHL1   C18 8501   2.103   1.194   7.646 -0.0590 -0.5060 -1.0322
   82CHL1  H18A 8502   2.210   1.185   7.676 -0.4631 -1.9371  0.0599
   82CHL1  H18B 8503   2.047   1.121   7.708  2.9025  1.2371  4.3701
   82CHL1  H18C 8504   2.085   1.174   7.538  0.9183 -0.6797 -1.1716
   82CHL1   C12 8505   1.925   1.371   7.608 -0.4630  0.5263 -0.1803
   82CHL1  H12A 8506   1.844   1.304   7.644 -0.4701  0.1189 -0.9268
   82CHL1  H12B 8507   1.896   1.476   7.634 -0.4400  0.6943 -0.7998
   82CHL1   C11 8508   1.928   1.362   7.457 -0.0948 -0.2489  0.7624
   82CHL1  H11A 8509   1.929   1.256   7.423  0.1468 -0.2852  0.8820
   82CHL1  H11B 8510   1.831   1.401   7.419 -0.4380 -1.5083  0.2819
   82CHL1    C9 8511   2.044   1.442   7.387 -0.0664  0.4585 -0.8792
   82CHL1    H9 8512   2.021   1.550   7.392 -0.7075  0.2722  1.3042
   82CHL1   C10 8513   2.052   1.419   7.238  0.1495  0.0333  0.2199
   82CHL1   C19 8514   2.039   1.275   7.197 -0.0847  0.7881 -0.7603
   82CHL1  H19A 8515   2.066   1.276   7.089  1.5350  4.0268 -0.4459
   82CHL1  H19B 8516   2.111   1.210   7.252 -2.6961 -1.6916  0.0055
   82CHL1  H19C 8517   1.934   1.241   7.210  0.0702  1.4599  3.6584
   82CHL1    C1 8518   1.934   1.495   7.177  0.1693 -0.2091  0.3209
   82CHL1   H1A 8519   1.839   1.446   7.207 -0.9512  1.4674 -0.3246
   82CHL1   H1B 8520   1.925   1.600   7.212 -2.4915 -0.8195  1.7635
   82CHL1    C2 8521   1.927   1.492   7.024 -0.1792  0.2464  0.5641
   82CHL1   H2A 8522   1.842   1.559   6.998 -1.1312 -0.5726  1.4865
   82CHL1   H2B 8523   1.906   1.386   6.996 -0.2296  0.4655 -0.2731
   82CHL1   C20 8524   2.011   1.287   7.936 -0.0728 -0.2743  0.0212
   82CHL1   H20 8525   2.051   1.185   7.952  0.2928 -0.2902 -0.9518
   82CHL1   C21 8526   1.859   1.264   7.911  0.9664 -0.2892 -0.0164
   82CHL1  H21A 8527   1.806   1.214   7.996 -1.7823  1.6400 -0.4749
   82CHL1  H21B 8528   1.833   1.207   7.820 -0.0691  0.1343  0.0025
   82CHL1  H21C 8529   1.802   1.359   7.908  2.0478  0.3733 -2.4336
   82CHL1   C22 8530   2.020   1.360   8.078  0.1579 -0.0417  0.1020
   82CHL1  H22A 8531   2.127   1.374   8.105  0.0960  1.4947 -0.3716
   82CHL1  H22B 8532   1.972   1.460   8.072 -0.1989 -0.1935  0.3917
   82CHL1   C23 8533   1.960   1.279   8.195 -0.1582 -0.1677  0.4628
   82CHL1  H23A 8534   1.850   1.282   8.210 -0.6632 -0.5596 -2.6417
   82CHL1  H23B 8535   2.004   1.177   8.197 -1.2402 -0.6372  1.7685
   82CHL1   C24 8536   2.005   1.347   8.328 -0.1550  0.1832  0.4733
   82CHL1  H24A 8537   2.115   1.336   8.337 -0.0516  0.6574 -0.0922
   82CHL1  H24B 8538   1.988   1.456   8.312  0.1831  0.2559  0.6034
   82CHL1   C25 8539   1.933   1.303   8.456 -0.5190 -0.0111 -0.6419
   82CHL1   H25 8540   1.947   1.195   8.480 -0.3040 -0.1762 -1.4725
   82CHL1   C26 8541   1.996   1.374   8.578 -0.3331 -0.1705 -0.1145
   82CHL1  H26A 8542   1.925   1.373   8.664 -1.1409  0.2881 -0.7642
   82CHL1  H26B 8543   2.089   1.322   8.612 -1.0640 -0.2911  1.8458
   82CHL1  H26C 8544   2.032   1.477   8.555  1.3657 -0.2345  1.9026
   82CHL1   C27 8545   1.790   1.341   8.462 -0.9349 -0.1599  0.5947
   82CHL1  H27A 8546   1.731   1.275   8.395 -0.4851 -2.1409  2.0367
   82CHL1  H27B 8547   1.745   1.312   8.559  1.0844 -2.6517  0.9071
   82CHL1  H27C 8548   1.768   1.446   8.435 -0.0708 -0.7583 -3.0884
   83CHL1    C3 8549   5.413   1.762   6.653 -0.7373  0.2186  0.6593
   83CHL1    H3 8550   5.326   1.698   6.626  1.0490 -2.2327  0.3548
   83CHL1    O3 8551   5.467   1.800   6.529  0.0804 -0.0743 -0.4914
   83CHL1   H3' 8552   5.507   1.886   6.539  0.6389 -0.2640 -1.0281
   83CHL1    C4 8553   5.370   1.876   6.738  0.2038  0.4606 -0.3360
   83CHL1   H4A 8554   5.452   1.950   6.733 -0.2683  0.9682 -0.6787
   83CHL1   H4B 8555   5.282   1.927   6.694  0.0799  0.1045 -0.5016
   83CHL1    C5 8556   5.334   1.824   6.884  0.2529 -0.0476  0.1273
   83CHL1    C6 8557   5.222   1.863   6.949 -0.1216  0.1076  0.4074
   83CHL1    H6 8558   5.164   1.937   6.891  0.1087 -0.1651 -0.1790
   83CHL1    C7 8559   5.179   1.834   7.093  0.1309 -0.2992 -0.2083
   83CHL1   H7A 8560   5.127   1.921   7.139 -0.3861 -0.4693 -0.4704
   83CHL1   H7B 8561   5.104   1.753   7.098 -0.3621  0.1516 -0.1724
   83CHL1    C8 8562   5.295   1.784   7.171 -0.7533  0.3268 -0.2078
   83CHL1    H8 8563   5.366   1.862   7.207  1.8625 -2.2270  0.5870
   83CHL1   C14 8564   5.263   1.718   7.302  0.5259 -0.4344 -0.4153
   83CHL1   H14 8565   5.221   1.617   7.282  0.3757 -0.7249  1.2520
   83CHL1   C15 8566   5.154   1.794   7.384  0.4647  0.2374 -0.4718
   83CHL1  H15A 8567   5.178   1.900   7.404 -0.7526  0.4326  0.0184
   83CHL1  H15B 8568   5.055   1.787   7.335  0.1939  0.2521  0.0681
   83CHL1   C16 8569   5.165   1.723   7.522  0.7426  0.3340 -0.3004
   83CHL1  H16A 8570   5.174   1.804   7.598 -0.0011  0.5682 -0.4555
   83CHL1  H16B 8571   5.079   1.662   7.557  0.7947  0.8331  0.7664
   83CHL1   C17 8572   5.292   1.637   7.524  0.0165  0.2898 -0.1876
   83CHL1   H17 8573   5.263   1.531   7.511 -1.0635 -0.0821  3.8402
   83CHL1   C13 8574   5.374   1.680   7.399  1.3820 -0.3517  0.7855
   83CHL1   C18 8575   5.456   1.804   7.436 -0.3670 -0.0153 -0.0414
   83CHL1  H18A 8576   5.393   1.867   7.503  0.1006  1.3760 -0.8784
   83CHL1  H18B 8577   5.537   1.767   7.502 -0.8327 -1.2949 -0.1627
   83CHL1  H18C 8578   5.495   1.866   7.353 -4.1032  0.3250 -1.7870
   83CHL1   C12 8579   5.449   1.572   7.323 -0.4833  0.6235  0.3888
   83CHL1  H12A 8580   5.534   1.538   7.386 -1.0881 -3.4150 -0.6821
   83CHL1  H12B 8581   5.395   1.480   7.293 -1.3283  0.4056  2.4000
   83CHL1   C11 8582   5.508   1.625   7.185  0.2415 -0.3092 -0.0707
   83CHL1  H11A 8583   5.588   1.697   7.212 -0.6451  0.5626  0.3142
   83CHL1  H11B 8584   5.561   1.542   7.134  1.1134 -0.2606  0.7212
   83CHL1    C9 8585   5.390   1.682   7.092  0.5136 -0.1227 -0.4213
   83CHL1    H9 8586   5.328   1.595   7.061 -0.2972  0.9825 -2.0199
   83CHL1   C10 8587   5.437   1.740   6.955 -0.3164 -0.2860  0.0361
   83CHL1   C19 8588   5.562   1.832   6.990  0.1167 -0.0844  0.2375
   83CHL1  H19A 8589   5.592   1.895   6.903  0.5952  0.8292  1.0547
   83CHL1  H19B 8590   5.554   1.902   7.076 -1.0187  0.5397 -0.3530
   83CHL1  H19C 8591   5.649   1.765   7.008 -0.5307 -1.2994 -0.9819
   83CHL1    C1 8592   5.469   1.631   6.855 -0.1993  0.7907 -0.2807
   83CHL1   H1A 8593   5.545   1.563   6.900 -0.7175 -1.0740 -2.0830
   83CHL1   H1B 8594   5.383   1.562   6.846  1.4290 -1.1354 -2.0588
   83CHL1    C2 8595   5.512   1.666   6.712  0.0087  0.3829 -0.6878
   83CHL1   H2A 8596   5.528   1.577   6.647 -0.6748 -1.2856  1.3092
   83CHL1   H2B 8597   5.615   1.707   6.718  0.5092 -0.6936 -1.5296
   83CHL1   C20 8598   5.370   1.635   7.659  0.4766 -0.3087  0.6222
   83CHL1   H20 8599   5.429   1.728   7.673  0.4503 -0.2748  0.5101
   83CHL1   C21 8600   5.460   1.510   7.647 -0.0340 -0.3284 -0.0543
   83CHL1  H21A 8601   5.545   1.541   7.583 -0.5744 -0.0040 -0.6277
   83CHL1  H21B 8602   5.398   1.423   7.616 -2.0962  0.5535  1.4201
   83CHL1  H21C 8603   5.501   1.487   7.748  1.5260  1.8445 -0.1278
   83CHL1   C22 8604   5.279   1.622   7.783  0.2305  0.2483 -0.1365
   83CHL1  H22A 8605   5.190   1.689   7.782  1.9491  2.6665  0.3638
   83CHL1  H22B 8606   5.245   1.516   7.788 -0.6813  0.4822 -0.9335
   83CHL1   C23 8607   5.351   1.648   7.922  0.8678  0.4580  1.0952
   83CHL1  H23A 8608   5.287   1.602   8.001 -1.9830  0.0581 -1.2785
   83CHL1  H23B 8609   5.447   1.594   7.910 -0.0235 -1.5171  2.2853
   83CHL1   C24 8610   5.364   1.795   7.944  0.0576  0.5406 -0.1332
   83CHL1  H24A 8611   5.461   1.829   7.902 -0.1200  2.3548  0.8408
   83CHL1  H24B 8612   5.281   1.850   7.896 -2.7619 -1.4282  2.1030
   83CHL1   C25 8613   5.361   1.836   8.095  0.0919 -0.1902 -0.5929
   83CHL1   H25 8614   5.267   1.798   8.141 -0.1890 -0.5186 -1.4366
   83CHL1   C26 8615   5.479   1.795   8.182 -0.0803  0.3937  0.3461
   83CHL1  H26A 8616   5.497   1.685   8.180  1.2269  0.5080  2.4715
   83CHL1  H26B 8617   5.573   1.833   8.136  0.8482 -1.3902  0.6532
   83CHL1  H26C 8618   5.471   1.819   8.290  0.8704 -1.0274  0.7692
   83CHL1   C27 8619   5.367   1.987   8.090  0.1631 -0.1677  0.2943
   83CHL1  H27A 8620   5.273   2.017   8.040  0.3264 -0.7828 -0.3962
   83CHL1  H27B 8621   5.367   2.035   8.190 -0.0026 -0.1233  0.2732
   83CHL1  H27C 8622   5.456   2.023   8.035  0.5963  2.3683  2.4496
   84CHL1    C3 8623   6.075   5.965   6.720  0.2012 -0.1855  0.0096
   84CHL1    H3 8624   6.032   6.056   6.673 -0.8038 -0.3616  0.5550
   84CHL1    O3 8625   6.062   5.872   6.611 -0.1216 -0.2845 -0.3492
   84CHL1   H3' 8626   6.120   5.901   6.540 -0.7479  1.2548 -0.2577
   84CHL1    C4 8627   6.225   5.995   6.745  0.8571  0.3163  0.6718
   84CHL1   H4A 8628   6.268   5.893   6.759 -0.0289 -0.0515  0.7629
   84CHL1   H4B 8629   6.272   6.047   6.659  0.6965 -1.2793 -0.4389
   84CHL1    C5 8630   6.239   6.085   6.871 -0.5408 -0.2997 -0.1232
   84CHL1    C6 8631   6.314   6.196   6.865 -0.0410 -0.4720  0.4280
   84CHL1    H6 8632   6.361   6.226   6.771 -0.5368  0.1358  0.3623
   84CHL1    C7 8633   6.341   6.286   6.986 -0.3223  0.8078  0.1854
   84CHL1   H7A 8634   6.452   6.290   6.993 -0.1298 -0.2226 -1.6414
   84CHL1   H7B 8635   6.306   6.390   6.969 -0.4879  0.6182 -0.6955
   84CHL1    C8 8636   6.285   6.232   7.118 -0.5249 -0.4211  0.1125
   84CHL1    H8 8637   6.357   6.156   7.155 -1.7780 -1.6657  0.1145
   84CHL1   C14 8638   6.278   6.336   7.227  0.1323 -0.6254 -0.2409
   84CHL1   H14 8639   6.221   6.423   7.186  0.4044 -0.6471 -0.6600
   84CHL1   C15 8640   6.415   6.406   7.260  0.3931  0.2786  0.5842
   84CHL1  H15A 8641   6.495   6.329   7.261 -0.4380 -0.8358 -2.8399
   84CHL1  H15B 8642   6.427   6.481   7.178  0.1142 -0.9139 -0.5839
   84CHL1   C16 8643   6.395   6.461   7.401  0.7093 -0.4213  0.0987
   84CHL1  H16A 8644   6.470   6.439   7.479  0.3121 -0.7853  0.3850
   84CHL1  H16B 8645   6.404   6.571   7.395  0.3938 -0.2679  1.9247
   84CHL1   C17 8646   6.249   6.421   7.449 -0.7720 -0.2389  0.5934
   84CHL1   H17 8647   6.173   6.491   7.408 -1.4772 -0.9837  0.6205
   84CHL1   C13 8648   6.219   6.297   7.360  0.8587  0.4414  0.2378
   84CHL1   C18 8649   6.292   6.177   7.421 -0.5461  0.0614  0.3422
   84CHL1  H18A 8650   6.392   6.213   7.452 -1.5294  1.0584  2.5311
   84CHL1  H18B 8651   6.241   6.129   7.507 -1.9897 -0.2208 -0.6478
   84CHL1  H18C 8652   6.311   6.094   7.350  0.2574  0.8376 -0.3731
   84CHL1   C12 8653   6.075   6.267   7.328  0.1677 -0.4100 -0.2401
   84CHL1  H12A 8654   6.013   6.234   7.414 -1.9727  0.7108 -1.2589
   84CHL1  H12B 8655   6.028   6.356   7.278 -0.0629  2.0480  3.9035
   84CHL1   C11 8656   6.072   6.145   7.231 -0.4544 -0.1943 -0.6263
   84CHL1  H11A 8657   6.118   6.049   7.264 -1.9480 -0.3778  1.0479
   84CHL1  H11B 8658   5.967   6.116   7.209 -1.6692  2.1780  1.4759
   84CHL1    C9 8659   6.149   6.171   7.096  0.6593 -0.6783  0.6199
   84CHL1    H9 8660   6.091   6.245   7.037 -0.7691 -4.3724 -3.0817
   84CHL1   C10 8661   6.158   6.053   6.991 -0.6482  0.1530 -0.7765
   84CHL1   C19 8662   6.222   5.927   7.059 -1.0675 -0.1204  0.3240
   84CHL1  H19A 8663   6.148   5.891   7.133 -0.0956 -0.4787  1.1536
   84CHL1  H19B 8664   6.233   5.846   6.984 -0.5196 -0.0317  0.3031
   84CHL1  H19C 8665   6.314   5.942   7.119 -2.0822  0.9614  1.6792
   84CHL1    C1 8666   6.011   6.020   6.952 -0.5925 -0.4761  0.2029
   84CHL1   H1A 8667   5.957   5.980   7.041 -0.0474 -1.6245  0.0335
   84CHL1   H1B 8668   5.972   6.115   6.909  1.3214 -0.3963 -1.4677
   84CHL1    C2 8669   5.999   5.919   6.843 -0.0456  0.7752  0.0978
   84CHL1   H2A 8670   5.895   5.899   6.810  0.0039 -0.0220  0.4244
   84CHL1   H2B 8671   6.048   5.825   6.874 -1.0184 -0.6720 -2.4429
   84CHL1   C20 8672   6.237   6.428   7.600  0.3917 -0.1223  0.2361
   84CHL1   H20 8673   6.303   6.355   7.651  0.8971  0.9096  1.0971
   84CHL1   C21 8674   6.092   6.396   7.643  0.2521 -0.0276  0.1941
   84CHL1  H21A 8675   6.059   6.292   7.622 -0.3357 -0.0669  1.2857
   84CHL1  H21B 8676   6.017   6.455   7.586 -1.0007 -0.6563  1.1497
   84CHL1  H21C 8677   6.089   6.405   7.753  1.7450 -0.1525  0.2681
   84CHL1   C22 8678   6.266   6.573   7.650 -0.0315 -0.2498 -0.3490
   84CHL1  H22A 8679   6.369   6.604   7.625  0.0449 -1.1060 -1.1385
   84CHL1  H22B 8680   6.199   6.638   7.590  0.1073  0.5741  0.3754
   84CHL1   C23 8681   6.246   6.601   7.803 -0.4729  0.4725 -0.3020
   84CHL1  H23A 8682   6.138   6.583   7.821  0.0695 -1.9115  0.9188
   84CHL1  H23B 8683   6.294   6.525   7.868 -0.6541  0.3005 -0.3647
   84CHL1   C24 8684   6.304   6.743   7.839  0.2738 -0.4519 -0.4534
   84CHL1  H24A 8685   6.412   6.739   7.814  1.0494 -0.1490  2.4969
   84CHL1  H24B 8686   6.250   6.821   7.782 -1.2909 -1.7994 -0.8901
   84CHL1   C25 8687   6.290   6.793   7.985 -0.4523  0.0798 -0.9422
   84CHL1   H25 8688   6.329   6.710   8.048 -0.8213  2.3529  2.5547
   84CHL1   C26 8689   6.381   6.917   8.019 -0.2710 -0.1329 -0.3360
   84CHL1  H26A 8690   6.358   6.947   8.123  0.9064  0.9794 -0.3609
   84CHL1  H26B 8691   6.491   6.908   8.008  0.0315  2.1531  0.3185
   84CHL1  H26C 8692   6.363   7.004   7.952 -0.4396  0.5026  0.5245
   84CHL1   C27 8693   6.141   6.814   8.027 -0.0919 -0.2735  0.2697
   84CHL1  H27A 8694   6.071   6.732   8.000  0.9081 -0.9320 -0.3726
   84CHL1  H27B 8695   6.145   6.821   8.138 -1.4198 -0.2238  0.3396
   84CHL1  H27C 8696   6.107   6.908   7.979 -1.5861 -0.5041  0.7983
   85CHL1    C3 8697   0.527   2.990   6.598 -0.3866 -0.3607  0.5205
   85CHL1    H3 8698   0.420   2.981   6.569 -0.6844  2.5033  0.3802
   85CHL1    O3 8699   0.609   3.002   6.475  0.1656  0.2396  0.4597
   85CHL1   H3' 8700   0.687   3.048   6.506 -0.5411  0.6562  1.6986
   85CHL1    C4 8701   0.558   3.122   6.682 -0.0444  0.2288 -0.2787
   85CHL1   H4A 8702   0.669   3.117   6.686 -0.1081 -0.7294  1.4698
   85CHL1   H4B 8703   0.523   3.208   6.621 -0.2119 -0.4851 -1.2144
   85CHL1    C5 8704   0.497   3.111   6.821 -0.2532  0.1293 -0.4368
   85CHL1    C6 8705   0.404   3.200   6.864 -0.1647 -0.8621 -0.5758
   85CHL1    H6 8706   0.375   3.287   6.803 -0.9151  0.4848  1.5905
   85CHL1    C7 8707   0.340   3.199   6.998 -0.2140  0.3999 -0.1133
   85CHL1   H7A 8708   0.355   3.303   7.036  0.3224  0.2191  0.1818
   85CHL1   H7B 8709   0.233   3.173   6.988 -0.4324  0.1496  2.1498
   85CHL1    C8 8710   0.424   3.110   7.095  0.1633  0.0241 -0.3114
   85CHL1    H8 8711   0.524   3.150   7.120  0.9352 -2.3609  0.7482
   85CHL1   C14 8712   0.345   3.091   7.221 -0.6654 -0.3313 -0.0744
   85CHL1   H14 8713   0.256   3.035   7.187  0.8535 -1.3175 -2.7509
   85CHL1   C15 8714   0.299   3.221   7.292 -0.3721 -0.1433 -0.0083
   85CHL1  H15A 8715   0.385   3.290   7.280 -1.3556  1.0427 -0.4827
   85CHL1  H15B 8716   0.208   3.265   7.246  0.2127  0.6037 -0.4651
   85CHL1   C16 8717   0.276   3.177   7.436 -0.2220 -0.0070 -0.8664
   85CHL1  H16A 8718   0.346   3.230   7.504 -1.7676 -0.5532  1.2470
   85CHL1  H16B 8719   0.171   3.184   7.472  0.4052  0.1447  1.0799
   85CHL1   C17 8720   0.304   3.023   7.452  0.1325  0.0131  0.1857
   85CHL1   H17 8721   0.214   2.967   7.417 -0.0915  0.0166  0.7458
   85CHL1   C13 8722   0.403   2.995   7.334 -0.4753  0.5528  0.2707
   85CHL1   C18 8723   0.542   3.048   7.367  0.2731  0.0743 -0.7554
   85CHL1  H18A 8724   0.525   3.154   7.397  1.6507 -0.0362  0.5605
   85CHL1  H18B 8725   0.593   2.993   7.449  1.5982  0.6308 -1.1785
   85CHL1  H18C 8726   0.612   3.046   7.281 -1.2247  0.3686 -2.0164
   85CHL1   C12 8727   0.410   2.860   7.266 -0.5371 -0.1701 -0.0012
   85CHL1  H12A 8728   0.458   2.788   7.335 -0.5930  0.4378  0.6890
   85CHL1  H12B 8729   0.306   2.830   7.243 -0.7153  0.4789 -0.0697
   85CHL1   C11 8730   0.494   2.866   7.136  0.4480  0.0743 -0.0385
   85CHL1  H11A 8731   0.602   2.872   7.162  0.0725  0.6594  1.4664
   85CHL1  H11B 8732   0.478   2.767   7.089 -1.2487 -0.2140  1.0582
   85CHL1    C9 8733   0.451   2.971   7.032  0.5117  0.0161  0.3491
   85CHL1    H9 8734   0.349   2.935   7.010 -0.4034  2.8253 -0.3969
   85CHL1   C10 8735   0.529   2.981   6.897 -0.3978 -0.0239 -0.4680
   85CHL1   C19 8736   0.676   2.970   6.940  0.3275  0.9637 -0.0878
   85CHL1  H19A 8737   0.701   2.864   6.962  2.2717  1.6520  1.3618
   85CHL1  H19B 8738   0.737   3.008   6.855  0.2934  0.1407 -0.4832
   85CHL1  H19C 8739   0.708   3.032   7.027  0.7726  0.7852 -0.1224
   85CHL1    C1 8740   0.493   2.856   6.808  0.1509  0.2668 -0.2058
   85CHL1   H1A 8741   0.531   2.759   6.847  0.6282  0.8736  0.8911
   85CHL1   H1B 8742   0.386   2.854   6.780  0.9965 -0.7967 -3.8525
   85CHL1    C2 8743   0.565   2.872   6.675 -0.4677 -0.1660  0.0140
   85CHL1   H2A 8744   0.552   2.774   6.623 -3.2767  0.0062  0.2658
   85CHL1   H2B 8745   0.676   2.886   6.681 -0.6690  1.4003  0.4854
   85CHL1   C20 8746   0.349   2.975   7.593 -0.4325  0.0197  0.1116
   85CHL1   H20 8747   0.449   3.019   7.616 -0.3397 -0.3829  0.4887
   85CHL1   C21 8748   0.359   2.826   7.594 -0.6199  0.8881  0.4260
   85CHL1  H21A 8749   0.261   2.781   7.571 -0.7663  1.1732  0.4849
   85CHL1  H21B 8750   0.377   2.802   7.701  0.8656 -2.1879 -0.3843
   85CHL1  H21C 8751   0.447   2.776   7.549 -1.3433 -2.0982  2.0577
   85CHL1   C22 8752   0.247   3.031   7.709 -0.3375 -0.0427 -0.4920
   85CHL1  H22A 8753   0.231   3.141   7.703 -0.7863 -0.1162 -0.6433
   85CHL1  H22B 8754   0.150   2.979   7.697 -0.1881 -0.5696  0.5454
   85CHL1   C23 8755   0.290   2.999   7.858 -0.4255 -1.1106 -0.2459
   85CHL1  H23A 8756   0.213   3.039   7.928 -0.5279 -2.4606  0.4363
   85CHL1  H23B 8757   0.299   2.889   7.866  2.5638 -0.8853  0.8955
   85CHL1   C24 8758   0.419   3.071   7.902 -0.1239  0.2035  0.6186
   85CHL1  H24A 8759   0.502   3.039   7.837 -0.2640  0.9984  0.0326
   85CHL1  H24B 8760   0.394   3.179   7.896 -0.4800  0.0308 -2.8170
   85CHL1   C25 8761   0.462   3.030   8.052 -0.3998 -0.3505  0.6869
   85CHL1   H25 8762   0.556   3.085   8.076 -0.2570 -1.0134  1.7440
   85CHL1   C26 8763   0.363   3.068   8.161  0.8433  0.5868  0.0375
   85CHL1  H26A 8764   0.263   3.020   8.150  0.9273 -0.5787  3.1499
   85CHL1  H26B 8765   0.405   3.059   8.264  2.2886  1.4233 -0.4568
   85CHL1  H26C 8766   0.339   3.176   8.151 -1.1847  0.2127  0.3521
   85CHL1   C27 8767   0.478   2.883   8.067 -0.0386  0.8095  0.1166
   85CHL1  H27A 8768   0.384   2.824   8.077  0.7640 -0.1914  2.7300
   85CHL1  H27B 8769   0.542   2.849   7.983  0.4888  1.0769  0.3991
   85CHL1  H27C 8770   0.534   2.865   8.162 -0.2372 -1.0304 -0.0868
   86CHL1    C3 8771   2.120   5.514   6.952 -0.1601  0.4852 -0.3012
   86CHL1    H3 8772   2.079   5.423   7.001  0.5397 -0.1115 -0.8114
   86CHL1    O3 8773   2.131   5.502   6.817  0.2970  0.3364  0.1683
   86CHL1   H3' 8774   2.050   5.471   6.776  0.5200 -1.6624  1.0712
   86CHL1    C4 8775   2.021   5.633   6.987 -0.3802 -0.1837  0.2961
   86CHL1   H4A 8776   2.045   5.723   6.926  0.8001 -1.4603 -1.2080
   86CHL1   H4B 8777   1.921   5.591   6.963  0.2980 -1.7592  0.1571
   86CHL1    C5 8778   2.022   5.669   7.140 -0.3083 -0.3572  0.0594
   86CHL1    C6 8779   1.911   5.686   7.210  0.4392 -0.0824  1.2143
   86CHL1    H6 8780   1.818   5.678   7.151  1.7456 -0.7685 -0.8351
   86CHL1    C7 8781   1.900   5.724   7.350 -1.0356  0.9349 -0.5408
   86CHL1   H7A 8782   1.823   5.804   7.353 -2.1857 -0.1354 -0.4765
   86CHL1   H7B 8783   1.845   5.645   7.406  0.5902  0.1710  0.0507
   86CHL1    C8 8784   2.025   5.783   7.407 -0.1978 -0.7622 -0.2359
   86CHL1    H8 8785   2.035   5.884   7.362 -3.1259 -0.4172 -0.2685
   86CHL1   C14 8786   2.022   5.785   7.559 -0.2480  0.0440  0.1168
   86CHL1   H14 8787   2.008   5.676   7.576 -3.1776  0.1626 -0.8493
   86CHL1   C15 8788   1.902   5.855   7.622  0.9651 -0.0859 -0.2398
   86CHL1  H15A 8789   1.882   5.947   7.562  0.4389  0.8134  1.2625
   86CHL1  H15B 8790   1.814   5.787   7.626  0.3476  0.6740 -0.7016
   86CHL1   C16 8791   1.945   5.881   7.772 -0.1270  0.0500 -0.5139
   86CHL1  H16A 8792   1.961   5.989   7.791  1.8964 -0.1843 -0.6317
   86CHL1  H16B 8793   1.878   5.839   7.850 -0.6942  1.1169 -0.4171
   86CHL1   C17 8794   2.088   5.814   7.783 -0.1908  0.5607  0.0599
   86CHL1   H17 8795   2.067   5.706   7.801 -1.8589  0.8060 -0.3099
   86CHL1   C13 8796   2.145   5.821   7.636  0.7729  0.3843  0.5503
   86CHL1   C18 8797   2.191   5.966   7.605 -0.7216  0.7111  0.1119
   86CHL1  H18A 8798   2.213   5.987   7.498  1.4755 -1.6920  0.0001
   86CHL1  H18B 8799   2.111   6.037   7.635 -1.7523 -0.8782  1.3077
   86CHL1  H18C 8800   2.282   5.991   7.663 -0.3141 -1.6547  0.5836
   86CHL1   C12 8801   2.252   5.725   7.589  1.1598 -0.3096 -0.2729
   86CHL1  H12A 8802   2.344   5.734   7.650 -0.1934  0.2182  1.7623
   86CHL1  H12B 8803   2.214   5.625   7.618 -1.5099  1.4996  3.1176
   86CHL1   C11 8804   2.278   5.727   7.438  0.4331  0.1556 -0.0963
   86CHL1  H11A 8805   2.313   5.827   7.407 -1.6791  0.3108 -2.2352
   86CHL1  H11B 8806   2.350   5.642   7.430 -0.7764 -1.0297  0.9536
   86CHL1    C9 8807   2.146   5.697   7.362  0.3036  0.7187  0.0993
   86CHL1    H9 8808   2.118   5.600   7.408 -0.1263  1.3161  1.1361
   86CHL1   C10 8809   2.160   5.682   7.212 -0.1793 -0.9899  1.5511
   86CHL1   C19 8810   2.235   5.806   7.157  0.3450  0.0602  0.6000
   86CHL1  H19A 8811   2.328   5.835   7.211  0.5989 -0.1182  0.2654
   86CHL1  H19B 8812   2.261   5.786   7.051 -0.1850 -6.2529  1.3108
   86CHL1  H19C 8813   2.163   5.890   7.169 -3.8026 -3.4028  2.3144
   86CHL1    C1 8814   2.244   5.558   7.174 -0.3704 -0.1537  0.5210
   86CHL1   H1A 8815   2.338   5.572   7.231 -2.0596 -0.9437  3.7489
   86CHL1   H1B 8816   2.195   5.470   7.221 -2.9007  1.2936  0.7952
   86CHL1    C2 8817   2.259   5.531   7.019 -0.2516 -0.0593 -0.9966
   86CHL1   H2A 8818   2.323   5.441   7.007  0.2319 -0.0610  1.0790
   86CHL1   H2B 8819   2.316   5.611   6.967 -0.6403  1.2190  0.4441
   86CHL1   C20 8820   2.179   5.857   7.897  0.0895  0.2582 -0.8254
   86CHL1   H20 8821   2.243   5.943   7.871 -0.3787  1.3361  1.3997
   86CHL1   C21 8822   2.280   5.736   7.937 -0.6952 -0.0271  0.5875
   86CHL1  H21A 8823   2.364   5.771   8.001 -2.2325  2.4662  1.3866
   86CHL1  H21B 8824   2.320   5.693   7.843 -2.9878 -0.7280 -0.1234
   86CHL1  H21C 8825   2.226   5.656   7.990  0.9028 -0.9889  0.8259
   86CHL1   C22 8826   2.093   5.896   8.018  0.0825  0.0654  0.0325
   86CHL1  H22A 8827   2.047   5.996   8.002 -0.2280 -0.5011 -3.2333
   86CHL1  H22B 8828   2.010   5.823   8.025 -0.3264  0.6641  2.3176
   86CHL1   C23 8829   2.171   5.892   8.162 -0.0046  0.0237  0.0156
   86CHL1  H23A 8830   2.097   5.901   8.245  2.3986 -0.0110  2.3127
   86CHL1  H23B 8831   2.227   5.796   8.175  0.3034  0.3334  1.1098
   86CHL1   C24 8832   2.273   6.001   8.185  0.2311 -0.0431 -0.2705
   86CHL1  H24A 8833   2.354   5.988   8.110 -0.9237  0.9209 -1.7422
   86CHL1  H24B 8834   2.234   6.104   8.170  2.4081  0.9074  0.2504
   86CHL1   C25 8835   2.334   5.997   8.323  0.0052 -0.2306 -0.3003
   86CHL1   H25 8836   2.366   5.895   8.354  0.5428 -0.1069 -0.4384
   86CHL1   C26 8837   2.459   6.088   8.323 -0.5431  0.4894 -0.3240
   86CHL1  H26A 8838   2.490   6.121   8.425 -0.6311  1.2274 -0.5283
   86CHL1  H26B 8839   2.539   6.028   8.276 -0.3197  0.8996 -0.4701
   86CHL1  H26C 8840   2.443   6.181   8.264  0.9872  0.9571 -0.0342
   86CHL1   C27 8841   2.242   6.064   8.428 -0.1206  0.3274 -0.1947
   86CHL1  H27A 8842   2.279   6.058   8.533 -0.8786 -1.5418 -0.0066
   86CHL1  H27B 8843   2.229   6.171   8.399 -2.7737  0.1147 -0.0107
   86CHL1  H27C 8844   2.142   6.018   8.441  1.0690 -1.7569  2.7082
   87CHL1    C3 8845   0.651   5.110   6.976  0.1141 -0.4567  0.7602
   87CHL1    H3 8846   0.544   5.092   7.000  0.0216  1.6756  2.1923
   87CHL1    O3 8847   0.660   5.131   6.834 -0.1392  0.1321 -0.1840
   87CHL1   H3' 8848   0.620   5.218   6.828  3.0845  1.7661  0.3545
   87CHL1    C4 8849   0.689   5.230   7.053 -0.1043  0.0695 -0.0859
   87CHL1   H4A 8850   0.783   5.277   7.018 -0.1958  1.0375  0.9179
   87CHL1   H4B 8851   0.613   5.307   7.027 -1.3090 -0.3242  1.9954
   87CHL1    C5 8852   0.694   5.228   7.207  0.1594 -0.3542  0.3859
   87CHL1    C6 8853   0.632   5.314   7.291  0.3455 -0.1702 -0.6140
   87CHL1    H6 8854   0.581   5.402   7.251  0.4061  1.0830  1.8768
   87CHL1    C7 8855   0.638   5.303   7.444  0.0323  0.1753 -0.4855
   87CHL1   H7A 8856   0.666   5.400   7.489 -1.3065  1.2009 -1.7388
   87CHL1   H7B 8857   0.536   5.283   7.483 -0.0715  3.1279  1.0336
   87CHL1    C8 8858   0.741   5.203   7.501 -0.1055 -0.7303  0.6629
   87CHL1    H8 8859   0.837   5.258   7.489 -1.3787  1.5054  0.3220
   87CHL1   C14 8860   0.709   5.167   7.639  0.2637 -0.0215 -0.1774
   87CHL1   H14 8861   0.617   5.105   7.634  0.9098 -1.7071  4.1181
   87CHL1   C15 8862   0.694   5.270   7.743  0.0542  0.1753  0.3496
   87CHL1  H15A 8863   0.737   5.371   7.728 -0.2335  0.1846 -0.4849
   87CHL1  H15B 8864   0.584   5.290   7.743 -0.0835 -0.5666 -0.3929
   87CHL1   C16 8865   0.720   5.208   7.879  0.3783 -0.2297 -0.0779
   87CHL1  H16A 8866   0.816   5.252   7.913  1.8867 -2.2831 -1.4600
   87CHL1  H16B 8867   0.635   5.229   7.948  0.4222  0.5311 -0.2473
   87CHL1   C17 8868   0.749   5.056   7.849 -0.2136  0.5659 -0.0857
   87CHL1   H17 8869   0.656   4.997   7.834  0.9080 -0.7477 -2.3461
   87CHL1   C13 8870   0.805   5.065   7.704 -0.6355 -0.4641 -0.2171
   87CHL1   C18 8871   0.952   5.109   7.710 -0.5915 -0.3570 -0.5031
   87CHL1  H18A 8872   0.955   5.209   7.759  1.2784 -0.4594 -0.3249
   87CHL1  H18B 8873   1.011   5.044   7.779  2.2172  2.0579 -0.4523
   87CHL1  H18C 8874   1.004   5.117   7.613 -1.9947 -2.8078 -1.5648
   87CHL1   C12 8875   0.795   4.931   7.627 -0.0716  0.8792 -0.0923
   87CHL1  H12A 8876   0.853   4.840   7.651 -2.2041  0.1226  2.6547
   87CHL1  H12B 8877   0.693   4.889   7.635  0.0204  0.8353  1.0287
   87CHL1   C11 8878   0.805   4.950   7.472 -0.2657 -0.3692 -0.9661
   87CHL1  H11A 8879   0.913   4.967   7.455  0.0621  0.2095  1.3598
   87CHL1  H11B 8880   0.766   4.859   7.421 -0.6047 -0.7138 -0.1074
   87CHL1    C9 8881   0.735   5.077   7.408  0.1813  0.2876  0.6579
   87CHL1    H9 8882   0.631   5.040   7.403  0.5107 -1.2265  3.4117
   87CHL1   C10 8883   0.771   5.104   7.263  0.1664  0.0841 -0.4756
   87CHL1   C19 8884   0.920   5.146   7.246  0.1204  0.5733 -0.6433
   87CHL1  H19A 8885   0.979   5.052   7.250 -2.3669 -1.0459  0.8928
   87CHL1  H19B 8886   0.939   5.203   7.152  2.2831  2.4163  0.7970
   87CHL1  H19C 8887   0.969   5.206   7.325  3.3272  0.7004 -2.5411
   87CHL1    C1 8888   0.727   4.973   7.172 -0.7257  0.4169  0.4721
   87CHL1   H1A 8889   0.775   4.876   7.197 -1.5714  0.1803  1.2403
   87CHL1   H1B 8890   0.620   4.951   7.197 -0.3821 -0.3515  1.3294
   87CHL1    C2 8891   0.750   5.003   7.024  0.2421 -0.5601  0.3491
   87CHL1   H2A 8892   0.727   4.907   6.974  0.5021 -0.8010  0.6979
   87CHL1   H2B 8893   0.855   5.037   7.009 -0.0917  0.5261  0.3359
   87CHL1   C20 8894   0.834   5.000   7.964 -0.3289 -0.6279  0.3150
   87CHL1   H20 8895   0.919   5.072   7.957 -1.1827  0.3115 -0.9586
   87CHL1   C21 8896   0.873   4.853   7.938 -0.3306 -0.4002 -0.0908
   87CHL1  H21A 8897   0.784   4.791   7.961 -0.4896  0.8581  3.0984
   87CHL1  H21B 8898   0.954   4.834   8.012 -0.2003  0.3240 -0.0395
   87CHL1  H21C 8899   0.912   4.839   7.834  3.0522  1.6198  0.7482
   87CHL1   C22 8900   0.767   5.029   8.101  0.6868 -0.2122 -0.2121
   87CHL1  H22A 8901   0.755   5.138   8.118  2.3408 -0.2187  1.2543
   87CHL1  H22B 8902   0.670   4.974   8.105  1.0936 -0.8844  0.6357
   87CHL1   C23 8903   0.862   4.980   8.217  0.7084  0.7764  0.3038
   87CHL1  H23A 8904   0.873   4.869   8.224  1.0266  0.8378  0.8444
   87CHL1  H23B 8905   0.962   5.021   8.190  1.4176  0.7093  2.5720
   87CHL1   C24 8906   0.834   5.057   8.351  0.0007  0.7127  0.8317
   87CHL1  H24A 8907   0.892   5.015   8.436 -0.0366 -0.5578  0.2573
   87CHL1  H24B 8908   0.859   5.163   8.329 -0.5327  0.6926  0.0918
   87CHL1   C25 8909   0.689   5.060   8.400  0.1995  0.8367 -0.4038
   87CHL1   H25 8910   0.621   5.096   8.320 -2.4855  2.3152  2.3197
   87CHL1   C26 8911   0.635   4.921   8.436 -0.2333 -0.3430  0.3491
   87CHL1  H26A 8912   0.697   4.870   8.513  1.0394 -1.4428 -1.3170
   87CHL1  H26B 8913   0.529   4.904   8.463 -0.3702 -0.5761 -0.3073
   87CHL1  H26C 8914   0.667   4.849   8.357  3.5210  0.3146  1.0705
   87CHL1   C27 8915   0.665   5.152   8.515 -0.0311 -0.0479 -0.6882
   87CHL1  H27A 8916   0.555   5.145   8.529  0.0970 -3.2503 -0.4586
   87CHL1  H27B 8917   0.721   5.114   8.604 -1.2926 -0.4894 -0.0591
   87CHL1  H27C 8918   0.690   5.257   8.491  0.7892  0.1584  0.9397
   88CHL1    C3 8919   6.022   4.773   6.750  0.4193 -0.4885  0.1139
   88CHL1    H3 8920   6.093   4.689   6.733  0.5049 -0.0884 -1.7325
   88CHL1    O3 8921   5.984   4.815   6.620  0.0068  0.0353  0.3253
   88CHL1   H3' 8922   5.973   4.910   6.623 -2.0351 -0.0411 -2.0144
   88CHL1    C4 8923   5.903   4.754   6.841 -0.0601 -0.0370 -0.2613
   88CHL1   H4A 8924   5.844   4.848   6.850 -0.4371 -0.2312 -0.6564
   88CHL1   H4B 8925   5.830   4.679   6.804 -1.5576  1.7494 -1.1016
   88CHL1    C5 8926   5.948   4.723   6.984 -0.0299 -0.3585  0.3982
   88CHL1    C6 8927   5.910   4.615   7.060 -0.0282  0.7619  0.4023
   88CHL1    H6 8928   5.855   4.529   7.018  1.5253  0.5815 -1.3827
   88CHL1    C7 8929   5.937   4.603   7.200  0.5619  0.1272 -0.2297
   88CHL1   H7A 8930   5.849   4.561   7.253  1.4796 -2.7395 -0.7876
   88CHL1   H7B 8931   6.021   4.530   7.206  0.7632  0.1985 -1.7990
   88CHL1    C8 8932   5.996   4.730   7.265 -0.3017  0.3955 -0.9086
   88CHL1    H8 8933   5.911   4.801   7.275 -1.3466 -1.0315  1.0276
   88CHL1   C14 8934   6.045   4.699   7.409  0.3715 -0.6485  0.3361
   88CHL1   H14 8935   6.128   4.626   7.395  2.6163  2.0207 -1.1884
   88CHL1   C15 8936   5.948   4.637   7.508  0.2213 -0.1815 -0.1089
   88CHL1  H15A 8937   5.849   4.686   7.490  1.3409  2.0505 -0.5743
   88CHL1  H15B 8938   5.941   4.528   7.486 -0.1863  0.0241 -1.0934
   88CHL1   C16 8939   6.020   4.661   7.640 -0.1560  0.5852 -0.2278
   88CHL1  H16A 8940   5.947   4.713   7.706 -2.6663 -0.4107 -2.0433
   88CHL1  H16B 8941   6.052   4.573   7.698  0.8132  0.2412 -1.2576
   88CHL1   C17 8942   6.142   4.749   7.615 -0.5918  0.1055  0.0076
   88CHL1   H17 8943   6.226   4.681   7.590  0.4241  1.2705  0.1345
   88CHL1   C13 8944   6.114   4.817   7.485  0.1155  0.2066  0.3492
   88CHL1   C18 8945   6.016   4.939   7.513  0.2711  0.1273  0.1658
   88CHL1  H18A 8946   6.077   5.023   7.553  0.9906 -1.2122  2.0299
   88CHL1  H18B 8947   5.963   4.963   7.418  0.2895  0.7614  0.3068
   88CHL1  H18C 8948   5.943   4.914   7.592  0.2940 -1.4546 -0.2740
   88CHL1   C12 8949   6.229   4.869   7.403 -0.8865  0.0776 -0.3312
   88CHL1  H12A 8950   6.252   4.965   7.454 -0.3483  1.3836 -2.8750
   88CHL1  H12B 8951   6.304   4.787   7.403 -1.7844 -0.7660 -0.0217
   88CHL1   C11 8952   6.186   4.902   7.257  0.1220 -0.0321 -0.1516
   88CHL1  H11A 8953   6.126   4.995   7.263  1.6856  0.9411  0.7230
   88CHL1  H11B 8954   6.278   4.923   7.199 -0.0366  0.3149 -0.2821
   88CHL1    C9 8955   6.103   4.788   7.182 -0.0080 -0.3112 -0.3838
   88CHL1    H9 8956   6.173   4.707   7.153 -0.4408 -1.2530  1.0692
   88CHL1   C10 8957   6.043   4.832   7.038  0.9635 -0.2667  0.0120
   88CHL1   C19 8958   5.969   4.971   7.056 -0.2478  1.0029  0.1468
   88CHL1  H19A 8959   5.891   4.963   7.135  0.4964  0.5104  0.8521
   88CHL1  H19B 8960   6.039   5.051   7.089  3.2028 -2.2670  1.4711
   88CHL1  H19C 8961   5.928   5.010   6.961  0.1753  2.4349  0.5251
   88CHL1    C1 8962   6.160   4.862   6.945  0.2314 -0.1368  0.4127
   88CHL1   H1A 8963   6.210   4.956   6.977 -1.1622  1.1331 -0.9572
   88CHL1   H1B 8964   6.229   4.774   6.942  1.9728  1.0929  1.8198
   88CHL1    C2 8965   6.111   4.882   6.796  0.1651 -0.5747 -0.1779
   88CHL1   H2A 8966   6.194   4.896   6.724  1.5299 -1.5587  1.1385
   88CHL1   H2B 8967   6.054   4.978   6.801  1.4466  0.1507  1.5333
   88CHL1   C20 8968   6.204   4.832   7.730  0.3759 -0.7707 -0.3875
   88CHL1   H20 8969   6.174   4.936   7.705  3.3576  0.6055  1.2077
   88CHL1   C21 8970   6.360   4.844   7.729 -0.4209  0.2010 -0.0240
   88CHL1  H21A 8971   6.394   4.740   7.749 -1.4546 -0.2914 -0.7513
   88CHL1  H21B 8972   6.397   4.906   7.814 -0.1306  0.3894 -0.2891
   88CHL1  H21C 8973   6.407   4.879   7.635 -0.9633  0.4554 -0.2057
   88CHL1   C22 8974   6.146   4.795   7.874 -0.5384 -0.6618  1.1298
   88CHL1  H22A 8975   6.181   4.880   7.936  3.1021  0.4384 -2.0728
   88CHL1  H22B 8976   6.035   4.800   7.880 -0.5396  3.0542  0.1134
   88CHL1   C23 8977   6.202   4.664   7.938  0.5587  0.0712 -0.2651
   88CHL1  H23A 8978   6.193   4.585   7.860 -1.9232  0.2690 -0.2330
   88CHL1  H23B 8979   6.304   4.687   7.976  0.8255 -1.4259 -0.0136
   88CHL1   C24 8980   6.120   4.640   8.059  0.7955 -0.3069 -0.2406
   88CHL1  H24A 8981   6.132   4.715   8.140 -2.5078 -0.2095  0.2813
   88CHL1  H24B 8982   6.018   4.659   8.020  1.1724 -1.4454 -1.9041
   88CHL1   C25 8983   6.125   4.495   8.133  0.1059  0.3449  0.5965
   88CHL1   H25 8984   6.231   4.481   8.163  1.5940  1.4135 -3.5100
   88CHL1   C26 8985   6.055   4.506   8.263  0.0880 -0.6649 -0.4177
   88CHL1  H26A 8986   6.060   4.413   8.324 -0.7001  0.2584  1.1245
   88CHL1  H26B 8987   6.110   4.576   8.329  0.5595 -0.9899 -0.4635
   88CHL1  H26C 8988   5.946   4.529   8.254 -0.1525 -1.4004  0.4272
   88CHL1   C27 8989   6.071   4.380   8.039 -0.3714 -0.6038 -0.4070
   88CHL1  H27A 8990   6.150   4.350   7.967  2.1216  1.8667  1.1240
   88CHL1  H27B 8991   6.044   4.293   8.102  1.1847  1.4053  3.3513
   88CHL1  H27C 8992   5.986   4.422   7.981 -0.0881 -0.8978 -1.0389
   89CHL1    C3 8993   1.604   5.339   6.839  0.4262 -0.5412 -0.4777
   89CHL1    H3 8994   1.596   5.228   6.836  1.3650 -0.5922 -3.4416
   89CHL1    O3 8995   1.630   5.381   6.707  0.1458  0.5305  0.5721
   89CHL1   H3' 8996   1.622   5.476   6.694 -2.5376  0.2985 -0.1595
   89CHL1    C4 8997   1.466   5.393   6.887 -0.2938  0.1922  1.7345
   89CHL1   H4A 8998   1.456   5.503   6.884 -2.0510  0.1213 -2.5991
   89CHL1   H4B 8999   1.396   5.352   6.811  2.0106  1.7752 -1.4603
   89CHL1    C5 9000   1.448   5.346   7.028  0.5632  0.5314  0.9240
   89CHL1    C6 9001   1.357   5.255   7.055  0.6348  0.3800 -0.2998
   89CHL1    H6 9002   1.284   5.240   6.974  0.9664  0.3665 -0.5937
   89CHL1    C7 9003   1.337   5.188   7.190 -0.5822 -0.8070 -0.1609
   89CHL1   H7A 9004   1.230   5.188   7.220 -0.6135  0.2863 -0.2344
   89CHL1   H7B 9005   1.374   5.083   7.188  1.7844 -0.0896  1.5931
   89CHL1    C8 9006   1.406   5.268   7.302  0.1782 -0.2594 -0.2754
   89CHL1    H8 9007   1.349   5.360   7.330  1.1581 -0.3382  2.1976
   89CHL1   C14 9008   1.414   5.185   7.433 -0.0920 -0.1116  0.7506
   89CHL1   H14 9009   1.487   5.108   7.401  0.8522  1.5893 -1.3906
   89CHL1   C15 9010   1.292   5.111   7.477  1.0084  0.0639  0.1276
   89CHL1  H15A 9011   1.196   5.157   7.445  0.4783 -0.5544  0.7842
   89CHL1  H15B 9012   1.295   5.012   7.426 -1.4909 -0.0892  0.1528
   89CHL1   C16 9013   1.308   5.090   7.633  0.1377 -0.1818  0.1587
   89CHL1  H16A 9014   1.234   5.151   7.689 -1.9997 -1.0885 -1.5474
   89CHL1  H16B 9015   1.289   4.983   7.656 -0.4049 -0.6359 -2.1148
   89CHL1   C17 9016   1.449   5.140   7.664  0.4170 -0.3961 -0.2175
   89CHL1   H17 9017   1.533   5.068   7.651  2.6520  1.1522  3.7472
   89CHL1   C13 9018   1.477   5.253   7.555  1.0082  0.0749 -0.1113
   89CHL1   C18 9019   1.400   5.381   7.604  0.0670  0.6039  0.7321
   89CHL1  H18A 9020   1.391   5.451   7.519 -2.0677  0.1163  0.4910
   89CHL1  H18B 9021   1.297   5.347   7.629 -0.4838  2.1546  0.6579
   89CHL1  H18C 9022   1.446   5.425   7.695 -0.7712 -0.5949  1.7743
   89CHL1   C12 9023   1.620   5.288   7.519 -0.6913  0.1052 -0.0529
   89CHL1  H12A 9024   1.658   5.346   7.606 -1.9011 -1.6862  1.7668
   89CHL1  H12B 9025   1.683   5.197   7.513 -0.4201  0.0923  2.0720
   89CHL1   C11 9026   1.628   5.373   7.388  0.1662 -0.2073 -0.1897
   89CHL1  H11A 9027   1.575   5.469   7.407 -0.2633 -0.4708 -0.0455
   89CHL1  H11B 9028   1.735   5.380   7.358  0.3691 -0.7439  0.4040
   89CHL1    C9 9029   1.550   5.309   7.267  0.2233 -0.2610 -0.3870
   89CHL1    H9 9030   1.595   5.209   7.252  0.7845 -0.1517  0.5413
   89CHL1   C10 9031   1.561   5.383   7.131  0.6368 -0.1520 -0.3811
   89CHL1   C19 9032   1.539   5.535   7.157 -0.3134 -0.2173 -0.3801
   89CHL1  H19A 9033   1.440   5.563   7.197  0.9415  2.6060  1.0300
   89CHL1  H19B 9034   1.611   5.575   7.232 -0.8727 -0.1073  0.1003
   89CHL1  H19C 9035   1.553   5.591   7.061  2.4726 -0.8213 -0.4114
   89CHL1    C1 9036   1.702   5.355   7.077  0.7457 -0.3287 -0.2045
   89CHL1   H1A 9037   1.776   5.416   7.133  1.7531 -0.8288 -0.9580
   89CHL1   H1B 9038   1.703   5.245   7.088 -4.7694 -0.6357  0.2033
   89CHL1    C2 9039   1.722   5.392   6.928  0.0614  0.3559  0.2309
   89CHL1   H2A 9040   1.816   5.337   6.910  0.9040  1.9829 -0.5918
   89CHL1   H2B 9041   1.728   5.502   6.914 -1.1585  0.3691 -0.2890
   89CHL1   C20 9042   1.473   5.174   7.820 -0.2539 -0.4680  0.1889
   89CHL1   H20 9043   1.422   5.270   7.847 -0.3056 -0.1920 -0.8571
   89CHL1   C21 9044   1.622   5.189   7.840 -0.1045  0.5762  0.4392
   89CHL1  H21A 9045   1.665   5.280   7.793  0.9424 -0.9013 -1.6637
   89CHL1  H21B 9046   1.674   5.098   7.802  1.3510  0.8163  1.7646
   89CHL1  H21C 9047   1.638   5.189   7.949  0.1582 -1.9516  0.4603
   89CHL1   C22 9048   1.419   5.051   7.896  0.3920  0.2293 -1.1004
   89CHL1  H22A 9049   1.314   5.024   7.870  0.5389 -0.4037 -1.0544
   89CHL1  H22B 9050   1.481   4.960   7.881  0.5583 -0.0253  0.8857
   89CHL1   C23 9051   1.433   5.069   8.053  0.7388  0.3670  0.0477
   89CHL1  H23A 9052   1.534   5.067   8.098  1.7298  1.2639 -2.0015
   89CHL1  H23B 9053   1.401   5.174   8.064 -2.3704 -0.5770  1.2242
   89CHL1   C24 9054   1.335   4.984   8.130  0.4784 -0.2244 -0.1441
   89CHL1  H24A 9055   1.357   4.975   8.238  0.9832  0.0130 -0.2216
   89CHL1  H24B 9056   1.230   5.017   8.122  0.6929  0.7893  0.9953
   89CHL1   C25 9057   1.333   4.831   8.090 -0.0798 -0.3581 -0.5769
   89CHL1   H25 9058   1.324   4.834   7.979  0.8764 -0.1661 -0.6600
   89CHL1   C26 9059   1.458   4.754   8.113  0.2219  0.7844  0.1011
   89CHL1  H26A 9060   1.462   4.654   8.065  0.0080  1.2606 -0.9375
   89CHL1  H26B 9061   1.553   4.804   8.082  1.1072 -1.8181 -1.7031
   89CHL1  H26C 9062   1.459   4.744   8.224  0.3632  0.1756  0.0503
   89CHL1   C27 9063   1.222   4.749   8.151 -0.0920 -0.0278 -0.1490
   89CHL1  H27A 9064   1.226   4.644   8.115  4.0097 -1.1936  2.8503
   89CHL1  H27B 9065   1.246   4.747   8.260  2.5532  0.4142 -0.6523
   89CHL1  H27C 9066   1.124   4.794   8.125  0.3784 -0.0904 -2.1624
   90CHL1    C3 9067   3.544   1.878   6.793  0.4965  0.0827  1.2112
   90CHL1    H3 9068   3.654   1.864   6.785  0.3291 -0.9695  0.3225
   90CHL1    O3 9069   3.493   1.940   6.674  0.3416 -0.0101  0.0098
   90CHL1   H3' 9070   3.507   1.882   6.598  0.0468  4.2613 -3.7231
   90CHL1    C4 9071   3.459   1.756   6.818  0.2638 -0.4428 -0.8409
   90CHL1   H4A 9072   3.350   1.779   6.816 -0.0255 -1.7002 -0.5328
   90CHL1   H4B 9073   3.465   1.695   6.726 -2.5827 -2.1036 -0.0424
   90CHL1    C5 9074   3.494   1.677   6.941  0.0957  0.2427  0.1421
   90CHL1    C6 9075   3.494   1.543   6.934 -0.0530  0.4429 -0.5245
   90CHL1    H6 9076   3.461   1.486   6.846 -0.9014 -0.7577  0.5417
   90CHL1    C7 9077   3.533   1.463   7.058 -0.1701  0.5114  0.0961
   90CHL1   H7A 9078   3.456   1.384   7.066 -0.2682  0.5066 -0.7243
   90CHL1   H7B 9079   3.627   1.407   7.039 -0.4769 -0.4633  1.3214
   90CHL1    C8 9080   3.539   1.542   7.186 -0.5222  0.2324 -0.0136
   90CHL1    H8 9081   3.434   1.550   7.220 -0.7024 -1.3823 -0.1036
   90CHL1   C14 9082   3.625   1.465   7.289 -0.0423  0.3427  0.2964
   90CHL1   H14 9083   3.728   1.456   7.247 -0.7156 -1.9342 -1.0266
   90CHL1   C15 9084   3.584   1.321   7.306 -0.0314  0.8846 -0.8622
   90CHL1  H15A 9085   3.473   1.317   7.314  0.1090 -0.1983  1.0660
   90CHL1  H15B 9086   3.628   1.256   7.227  2.0710  3.0654 -1.6389
   90CHL1   C16 9087   3.642   1.280   7.446  0.4098  0.4175 -0.3122
   90CHL1  H16A 9088   3.552   1.233   7.491 -0.4673  1.7319 -0.6281
   90CHL1  H16B 9089   3.720   1.201   7.448  0.0470  0.0269 -1.3220
   90CHL1   C17 9090   3.688   1.413   7.501 -0.3297 -0.2241  0.1300
   90CHL1   H17 9091   3.795   1.427   7.474 -0.6283  2.1252 -0.0806
   90CHL1   C13 9092   3.623   1.531   7.428 -0.2640 -0.2610  0.1308
   90CHL1   C18 9093   3.473   1.553   7.471  0.0165  0.8545 -0.8665
   90CHL1  H18A 9094   3.421   1.625   7.404 -1.7842  2.4433  2.0064
   90CHL1  H18B 9095   3.419   1.457   7.479 -0.6544  1.2316 -0.7290
   90CHL1  H18C 9096   3.476   1.603   7.570  0.0572  2.3276 -1.5834
   90CHL1   C12 9097   3.696   1.670   7.410 -0.4639  0.2633  0.3623
   90CHL1  H12A 9098   3.687   1.742   7.494 -1.3363  1.2624 -0.5554
   90CHL1  H12B 9099   3.805   1.648   7.407 -0.1572  1.4285  1.8462
   90CHL1   C11 9100   3.637   1.753   7.290 -0.2330  0.4655 -0.1122
   90CHL1  H11A 9101   3.540   1.778   7.339 -0.0568  2.9579 -0.8841
   90CHL1  H11B 9102   3.700   1.843   7.273 -0.3085  0.4301 -0.6028
   90CHL1    C9 9103   3.606   1.679   7.157  0.4587 -0.2708  0.5750
   90CHL1    H9 9104   3.708   1.672   7.115  0.5084  1.3928  0.3526
   90CHL1   C10 9105   3.527   1.771   7.059 -0.4807  0.6518  0.6444
   90CHL1   C19 9106   3.386   1.803   7.119  0.2929 -0.2263 -0.1992
   90CHL1  H19A 9107   3.333   1.712   7.153  0.3005  0.7298  2.6341
   90CHL1  H19B 9108   3.385   1.864   7.212 -2.6285 -0.9646  0.3361
   90CHL1  H19C 9109   3.332   1.853   7.036  2.2996  0.5880 -1.0872
   90CHL1    C1 9110   3.605   1.903   7.020 -0.2957 -0.2030 -0.3521
   90CHL1   H1A 9111   3.609   1.969   7.108 -1.4344  1.1119 -1.2435
   90CHL1   H1B 9112   3.713   1.887   6.997 -0.5053  1.3146 -2.8200
   90CHL1    C2 9113   3.549   1.980   6.910  0.1844  0.4550 -0.3496
   90CHL1   H2A 9114   3.609   2.069   6.884 -0.5242  1.7584  2.1174
   90CHL1   H2B 9115   3.445   2.016   6.926  0.1662  0.2323  0.0505
   90CHL1   C20 9116   3.678   1.411   7.650  0.3725  0.5892 -0.4082
   90CHL1   H20 9117   3.574   1.420   7.686  0.7809  0.8807  0.7494
   90CHL1   C21 9118   3.747   1.529   7.712 -0.1265  0.1609  0.6874
   90CHL1  H21A 9119   3.858   1.522   7.706 -0.1657 -1.0500  1.0812
   90CHL1  H21B 9120   3.732   1.551   7.819 -1.2712  0.7148  0.4295
   90CHL1  H21C 9121   3.724   1.628   7.668  2.3585  0.8554  0.8296
   90CHL1   C22 9122   3.728   1.278   7.713 -0.4727 -0.4393  0.5130
   90CHL1  H22A 9123   3.680   1.190   7.664  0.1682  1.4351 -3.8988
   90CHL1  H22B 9124   3.835   1.264   7.686 -1.0362  0.4511 -2.5245
   90CHL1   C23 9125   3.727   1.254   7.865  0.2609 -0.9671  0.0775
   90CHL1  H23A 9126   3.754   1.148   7.887  2.0057 -0.7143 -0.6879
   90CHL1  H23B 9127   3.812   1.309   7.912  0.5678 -0.1665 -1.3435
   90CHL1   C24 9128   3.594   1.282   7.924 -1.0112  0.2068 -0.0866
   90CHL1  H24A 9129   3.577   1.390   7.906  0.5755  0.6731  1.0078
   90CHL1  H24B 9130   3.524   1.223   7.860  1.4417 -0.8874 -1.9764
   90CHL1   C25 9131   3.585   1.253   8.070  0.3276  0.1082 -0.5409
   90CHL1   H25 9132   3.667   1.314   8.112 -0.4037 -0.7154  2.2955
   90CHL1   C26 9133   3.453   1.301   8.123  0.1792  0.4725  0.3460
   90CHL1  H26A 9134   3.440   1.291   8.233  0.2859  1.5360  0.4601
   90CHL1  H26B 9135   3.438   1.410   8.109 -2.0100  0.4813  2.0990
   90CHL1  H26C 9136   3.364   1.263   8.068  0.2538  0.5831  0.1500
   90CHL1   C27 9137   3.602   1.097   8.101  0.3186 -0.0145  0.5132
   90CHL1  H27A 9138   3.710   1.076   8.085  0.7228  1.4946  1.0074
   90CHL1  H27B 9139   3.591   1.063   8.206  0.3338 -1.7929 -0.0285
   90CHL1  H27C 9140   3.536   1.034   8.039  2.3872  0.2831 -2.1589
   91CHL1    C3 9141   3.922   2.909   7.086 -0.0650  0.5185  0.5429
   91CHL1    H3 9142   3.836   2.970   7.120 -1.4614 -0.1441 -1.6632
   91CHL1    O3 9143   3.931   2.944   6.944 -0.2894  0.6389 -0.2912
   91CHL1   H3' 9144   4.010   2.896   6.919  0.6150  1.3989  0.9599
   91CHL1    C4 9145   4.052   2.943   7.164 -0.1514 -0.4024 -0.4739
   91CHL1   H4A 9146   4.145   2.898   7.122 -0.9221 -0.4644 -2.2305
   91CHL1   H4B 9147   4.066   3.052   7.154  2.6692 -0.3344  2.4867
   91CHL1    C5 9148   4.040   2.903   7.308 -0.3454 -0.0239 -0.3249
   91CHL1    C6 9149   4.056   2.990   7.414 -0.5429 -0.0682 -0.2144
   91CHL1    H6 9150   4.091   3.090   7.386 -0.2443 -0.6800 -2.2026
   91CHL1    C7 9151   4.054   2.953   7.564  0.0881  0.0563  0.8254
   91CHL1   H7A 9152   4.126   3.016   7.620 -0.0463  0.9878 -0.0267
   91CHL1   H7B 9153   3.952   2.969   7.607  0.1470  2.1537  0.3023
   91CHL1    C8 9154   4.074   2.805   7.579  0.2831  0.3404  0.5554
   91CHL1    H8 9155   4.182   2.784   7.560  0.1025  0.9592 -1.3693
   91CHL1   C14 9156   4.041   2.771   7.723  1.0959  0.3048  0.4437
   91CHL1   H14 9157   3.939   2.805   7.750  0.1401 -1.8854 -0.1743
   91CHL1   C15 9158   4.121   2.837   7.838  0.5686  0.0587  0.3505
   91CHL1  H15A 9159   4.231   2.828   7.820  0.5542  0.6080 -0.0478
   91CHL1  H15B 9160   4.080   2.940   7.845 -0.6602 -0.3057 -0.9319
   91CHL1   C16 9161   4.089   2.755   7.963  0.3121 -0.2010 -0.6182
   91CHL1  H16A 9162   4.190   2.724   7.997  0.6987 -0.0600 -1.6017
   91CHL1  H16B 9163   4.025   2.813   8.033 -0.6159 -1.1103 -0.6900
   91CHL1   C17 9164   4.009   2.629   7.907  0.6593  0.5720  0.2564
   91CHL1   H17 9165   3.902   2.658   7.908  0.1607 -0.7229 -2.8431
   91CHL1   C13 9166   4.035   2.624   7.757 -0.2299 -0.0855 -0.4942
   91CHL1   C18 9167   4.181   2.563   7.744 -0.2412 -0.4408  0.3245
   91CHL1  H18A 9168   4.217   2.553   7.639  0.9240 -3.1342  0.9008
   91CHL1  H18B 9169   4.248   2.625   7.806 -2.1334 -0.0603  2.1165
   91CHL1  H18C 9170   4.174   2.457   7.775 -0.4535 -1.4424 -2.7717
   91CHL1   C12 9171   3.931   2.557   7.664  0.3306  0.5060  0.0399
   91CHL1  H12A 9172   3.933   2.449   7.691  3.5965  0.5677  0.5716
   91CHL1  H12B 9173   3.826   2.588   7.683  0.0654 -0.6430  0.5332
   91CHL1   C11 9174   3.967   2.579   7.516  0.3795 -0.4057  0.2811
   91CHL1  H11A 9175   4.063   2.523   7.508  1.0222 -0.6185  5.7954
   91CHL1  H11B 9176   3.884   2.535   7.457 -1.4520 -0.6722  2.8798
   91CHL1    C9 9177   3.975   2.728   7.484  0.2865 -0.1253 -0.5631
   91CHL1    H9 9178   3.875   2.767   7.515  0.7735 -0.5042  1.7112
   91CHL1   C10 9179   3.999   2.751   7.340  0.1165 -0.5093  0.0430
   91CHL1   C19 9180   4.110   2.662   7.293 -0.4002  0.0322  0.6619
   91CHL1  H19A 9181   4.127   2.680   7.184 -0.7266  1.6176  0.8417
   91CHL1  H19B 9182   4.205   2.670   7.350 -0.2851 -0.5950  0.5664
   91CHL1  H19C 9183   4.075   2.557   7.284 -1.5039  0.5717 -3.1662
   91CHL1    C1 9184   3.876   2.723   7.250 -0.0523  0.1715 -0.3418
   91CHL1   H1A 9185   3.849   2.615   7.250 -2.3257  0.6855 -0.5707
   91CHL1   H1B 9186   3.786   2.767   7.297  0.2222 -2.3689  2.9617
   91CHL1    C2 9187   3.879   2.764   7.103  0.2207  0.8302  0.1627
   91CHL1   H2A 9188   3.782   2.741   7.055  0.6412 -0.2737 -0.2017
   91CHL1   H2B 9189   3.949   2.701   7.042 -0.8718  0.6940 -0.9918
   91CHL1   C20 9190   4.032   2.503   7.996  0.0249 -0.0827  0.4618
   91CHL1   H20 9191   4.137   2.469   7.996 -0.1613 -0.6625  0.2349
   91CHL1   C21 9192   3.953   2.382   7.945 -0.1698  0.5834 -0.7755
   91CHL1  H21A 9193   4.001   2.334   7.857  0.4428  0.6198 -0.4635
   91CHL1  H21B 9194   3.849   2.404   7.911 -0.2696  2.4442  0.5795
   91CHL1  H21C 9195   3.947   2.298   8.018 -3.3437 -0.5094 -2.1041
   91CHL1   C22 9196   3.987   2.538   8.135 -0.0981 -0.7007 -0.0644
   91CHL1  H22A 9197   4.004   2.447   8.196  1.4481  0.4402  1.3016
   91CHL1  H22B 9198   4.073   2.604   8.159 -0.0424 -0.3546 -1.1379
   91CHL1   C23 9199   3.838   2.578   8.161 -0.5658 -0.5587  0.5477
   91CHL1  H23A 9200   3.821   2.677   8.114 -0.7916 -0.9925 -0.3054
   91CHL1  H23B 9201   3.767   2.504   8.118  0.4785 -0.5133 -1.3629
   91CHL1   C24 9202   3.806   2.590   8.307 -0.3524  0.1276 -0.1208
   91CHL1  H24A 9203   3.821   2.494   8.360  0.1913  0.9389  1.2513
   91CHL1  H24B 9204   3.886   2.651   8.354 -1.1124  0.1258  1.2156
   91CHL1   C25 9205   3.663   2.645   8.338  0.6850  0.3810  0.0922
   91CHL1   H25 9206   3.648   2.742   8.286 -1.0636 -0.1524 -0.4340
   91CHL1   C26 9207   3.568   2.543   8.286  0.4183  1.0789 -0.2685
   91CHL1  H26A 9208   3.461   2.562   8.310  0.0893  1.9723 -2.2469
   91CHL1  H26B 9209   3.581   2.527   8.177  0.3927  1.7115 -0.3648
   91CHL1  H26C 9210   3.595   2.446   8.333 -1.4384  0.9581  0.6258
   91CHL1   C27 9211   3.646   2.663   8.487  0.3267  0.5090  0.8099
   91CHL1  H27A 9212   3.693   2.586   8.552  0.1182 -0.7209 -0.4295
   91CHL1  H27B 9213   3.679   2.767   8.504 -1.3928  1.4025 -0.8951
   91CHL1  H27C 9214   3.537   2.669   8.508  0.2561  0.1531  0.5669
   92CHL1    C3 9215   4.738   3.812   6.912  0.7241  0.9831  0.2985
   92CHL1    H3 9216   4.805   3.725   6.927 -0.2387 -0.5323 -3.1804
   92CHL1    O3 9217   4.685   3.790   6.785 -0.0607 -0.0668  0.0601
   92CHL1   H3' 9218   4.599   3.750   6.794 -0.4101  0.3430 -1.1868
   92CHL1    C4 9219   4.624   3.819   7.011  0.1711  0.0548  0.3818
   92CHL1   H4A 9220   4.545   3.892   6.985  0.2307 -0.0710 -0.1685
   92CHL1   H4B 9221   4.577   3.718   7.009  0.2856 -0.0059  0.6910
   92CHL1    C5 9222   4.666   3.866   7.146  0.3596  0.2959 -0.2330
   92CHL1    C6 9223   4.624   3.803   7.258  0.2788  0.2389 -0.0207
   92CHL1    H6 9224   4.561   3.715   7.237  0.6590  0.0809 -0.5341
   92CHL1    C7 9225   4.655   3.841   7.403  0.1707 -0.1973  0.1734
   92CHL1   H7A 9226   4.567   3.853   7.469  0.3239  1.9165  0.0789
   92CHL1   H7B 9227   4.719   3.768   7.456  0.3493  0.9500  1.6056
   92CHL1    C8 9228   4.737   3.972   7.415  0.2377 -0.5271  0.6490
   92CHL1    H8 9229   4.662   4.054   7.419  0.4697 -0.2868  0.1092
   92CHL1   C14 9230   4.816   3.977   7.546  0.1523 -0.4952  0.1537
   92CHL1   H14 9231   4.892   3.897   7.537  0.6186 -0.0805  0.3458
   92CHL1   C15 9232   4.741   3.951   7.679 -0.3092  0.1473  0.1292
   92CHL1  H15A 9233   4.646   4.008   7.690 -0.2833  0.1720  0.2234
   92CHL1  H15B 9234   4.715   3.845   7.704 -1.8937  1.1643  3.5171
   92CHL1   C16 9235   4.841   3.993   7.781 -0.6694 -0.1713 -0.0856
   92CHL1  H16A 9236   4.785   4.026   7.872  2.1455  1.1658  1.3154
   92CHL1  H16B 9237   4.907   3.911   7.817  1.4605  2.1029  1.5362
   92CHL1   C17 9238   4.948   4.086   7.712 -0.3638 -0.6892 -0.1258
   92CHL1   H17 9239   5.041   4.028   7.698 -0.7744 -1.2072 -0.7768
   92CHL1   C13 9240   4.898   4.110   7.572 -0.3541  0.4640  0.4590
   92CHL1   C18 9241   4.801   4.227   7.573 -0.1561 -0.2541  0.6221
   92CHL1  H18A 9242   4.742   4.239   7.480  0.4957  2.3286  0.4734
   92CHL1  H18B 9243   4.724   4.214   7.652 -0.9956  0.3401 -0.0909
   92CHL1  H18C 9244   4.857   4.320   7.597  0.3127 -0.8142  1.7839
   92CHL1   C12 9245   4.996   4.113   7.451 -1.0094  0.5728  1.7037
   92CHL1  H12A 9246   5.055   4.207   7.464 -2.6086  1.6897  1.2042
   92CHL1  H12B 9247   5.067   4.028   7.454  0.8647  2.0212  0.8357
   92CHL1   C11 9248   4.931   4.108   7.315 -0.4315  0.0744  0.2344
   92CHL1  H11A 9249   4.873   4.201   7.300 -2.2630 -0.7929  1.5193
   92CHL1  H11B 9250   5.016   4.110   7.243  0.9420  0.2907  1.7947
   92CHL1    C9 9251   4.830   3.988   7.296 -0.0537 -0.2972  0.0189
   92CHL1    H9 9252   4.892   3.896   7.287  0.6217  0.0941  0.5478
   92CHL1   C10 9253   4.753   3.999   7.156 -0.2615 -0.1455 -0.3451
   92CHL1   C19 9254   4.688   4.134   7.134  0.7313 -0.6344 -0.1986
   92CHL1  H19A 9255   4.762   4.214   7.114 -1.5514  1.6121 -0.0567
   92CHL1  H19B 9256   4.634   4.121   7.038 -0.3977 -1.2941  0.5027
   92CHL1  H19C 9257   4.616   4.172   7.210 -0.5673  1.0978 -2.2025
   92CHL1    C1 9258   4.874   3.984   7.049  0.7434 -0.2521  0.2792
   92CHL1   H1A 9259   4.924   4.083   7.037 -0.2451  0.2444  0.1709
   92CHL1   H1B 9260   4.952   3.914   7.086  1.3260  1.6856  3.0707
   92CHL1    C2 9261   4.825   3.940   6.909 -0.5949  0.1041  0.2118
   92CHL1   H2A 9262   4.900   3.921   6.830 -1.0089 -0.8549  0.0377
   92CHL1   H2B 9263   4.765   4.021   6.864 -2.7108 -2.0880 -1.1732
   92CHL1   C20 9264   4.993   4.212   7.797 -0.4017  0.8139  0.1043
   92CHL1   H20 9265   4.912   4.288   7.805 -0.3416  0.8428  0.4813
   92CHL1   C21 9266   5.117   4.285   7.731  0.5822 -0.1158  0.0373
   92CHL1  H21A 9267   5.199   4.213   7.709  2.2709  1.4923  0.7618
   92CHL1  H21B 9268   5.156   4.366   7.796 -0.0996  1.2547 -1.2169
   92CHL1  H21C 9269   5.079   4.328   7.636 -0.2265 -1.7426 -0.4210
   92CHL1   C22 9270   5.030   4.172   7.942 -0.3476  0.3114 -0.6656
   92CHL1  H22A 9271   4.937   4.136   7.992  1.5668 -0.3294  2.7280
   92CHL1  H22B 9272   5.110   4.095   7.945  0.3904  1.0838  0.0904
   92CHL1   C23 9273   5.093   4.284   8.026  0.1005  0.1010 -0.0237
   92CHL1  H23A 9274   5.181   4.341   7.989 -1.3005  2.9490  0.6974
   92CHL1  H23B 9275   5.004   4.349   8.037  0.0651  0.2971 -1.2735
   92CHL1   C24 9276   5.141   4.224   8.164 -0.1252  0.1797 -0.4181
   92CHL1  H24A 9277   5.064   4.154   8.203 -1.4884  1.2595 -1.0852
   92CHL1  H24B 9278   5.230   4.160   8.146  1.6060  1.8705  1.6207
   92CHL1   C25 9279   5.160   4.329   8.279 -0.5416 -0.4344 -0.0577
   92CHL1   H25 9280   5.201   4.282   8.371 -0.7925  1.5028  1.0940
   92CHL1   C26 9281   5.267   4.431   8.228  1.4298 -0.0431 -0.3804
   92CHL1  H26A 9282   5.300   4.493   8.314  1.4197  1.7612 -1.6264
   92CHL1  H26B 9283   5.359   4.375   8.199  0.2948 -2.1958 -0.0329
   92CHL1  H26C 9284   5.232   4.493   8.143  0.1076 -0.6401 -0.2886
   92CHL1   C27 9285   5.032   4.411   8.310  0.3885  1.2554 -0.2366
   92CHL1  H27A 9286   5.028   4.474   8.402  0.1528  0.1129  0.5623
   92CHL1  H27B 9287   5.003   4.468   8.220 -0.2883  1.4239  0.0815
   92CHL1  H27C 9288   4.941   4.348   8.323  0.6357  0.9599  0.0736
   93CHL1    C3 9289   5.694   1.121   6.657  0.1000 -0.6500 -0.4078
   93CHL1    H3 9290   5.696   1.016   6.693  1.4049  0.2483  2.4386
   93CHL1    O3 9291   5.660   1.122   6.526  0.6019  0.1085  0.1505
   93CHL1   H3' 9292   5.745   1.141   6.486  0.0573  3.4769  0.2822
   93CHL1    C4 9293   5.600   1.203   6.743 -0.0880  0.0296  0.2982
   93CHL1   H4A 9294   5.583   1.308   6.711  0.8614  0.1303  0.0993
   93CHL1   H4B 9295   5.493   1.174   6.732 -0.2687  0.8204 -0.1895
   93CHL1    C5 9296   5.640   1.186   6.893  0.5955 -0.5103  0.3025
   93CHL1    C6 9297   5.557   1.132   6.986  0.3575 -0.9003  0.6565
   93CHL1    H6 9298   5.463   1.087   6.953 -0.2618  1.9397 -1.8410
   93CHL1    C7 9299   5.573   1.142   7.132  0.2751 -0.5028 -1.3864
   93CHL1   H7A 9300   5.483   1.193   7.173 -0.7828 -1.7180 -2.1001
   93CHL1   H7B 9301   5.585   1.037   7.165  1.0171 -0.4141 -1.3677
   93CHL1    C8 9302   5.697   1.236   7.165 -0.1673  0.1382 -0.0459
   93CHL1    H8 9303   5.663   1.342   7.163 -2.0544 -0.4227  0.2541
   93CHL1   C14 9304   5.748   1.214   7.308 -0.4995 -1.0093 -0.7775
   93CHL1   H14 9305   5.794   1.112   7.310  1.2771 -0.2411  0.8707
   93CHL1   C15 9306   5.642   1.205   7.426  0.1527 -0.2276 -0.1835
   93CHL1  H15A 9307   5.568   1.288   7.422  0.7704  0.3297 -0.3071
   93CHL1  H15B 9308   5.598   1.103   7.423  0.5997 -0.4353  0.4046
   93CHL1   C16 9309   5.736   1.223   7.551 -0.6503  0.6369 -0.7723
   93CHL1  H16A 9310   5.696   1.302   7.618  2.5003  2.0017 -0.3436
   93CHL1  H16B 9311   5.746   1.129   7.609  0.8680 -0.7031 -3.0670
   93CHL1   C17 9312   5.880   1.255   7.501 -0.4238  0.1971  1.3222
   93CHL1   H17 9313   5.936   1.160   7.487 -3.2390 -1.3711  0.0292
   93CHL1   C13 9314   5.859   1.306   7.356  0.5114  0.0360 -0.0808
   93CHL1   C18 9315   5.813   1.452   7.366 -0.8997 -0.1599 -0.4824
   93CHL1  H18A 9316   5.763   1.492   7.276 -1.3177 -0.3032 -0.3146
   93CHL1  H18B 9317   5.748   1.458   7.456 -2.5330  0.8505 -1.6967
   93CHL1  H18C 9318   5.904   1.513   7.383  0.3607 -1.7553 -1.1732
   93CHL1   C12 9319   5.977   1.287   7.263 -0.0214 -0.4748  0.6777
   93CHL1  H12A 9320   6.055   1.359   7.295  0.4781 -0.7750  0.1558
   93CHL1  H12B 9321   6.027   1.189   7.280  0.1592 -0.4901  0.0823
   93CHL1   C11 9322   5.939   1.297   7.117  0.4096 -0.4112  0.0358
   93CHL1  H11A 9323   5.920   1.405   7.098  2.5134 -0.0150 -0.1291
   93CHL1  H11B 9324   6.029   1.270   7.057 -0.8445 -1.8104 -1.2916
   93CHL1    C9 9325   5.815   1.226   7.067  0.0027 -0.1513 -0.4671
   93CHL1    H9 9326   5.830   1.116   7.075  0.9208  0.1140  3.2360
   93CHL1   C10 9327   5.776   1.251   6.913 -0.0675  0.0520  0.5491
   93CHL1   C19 9328   5.787   1.406   6.885  0.2562 -0.7105 -0.0747
   93CHL1  H19A 9329   5.888   1.447   6.904 -0.3493  0.1150  1.6662
   93CHL1  H19B 9330   5.775   1.422   6.776  3.5415 -1.1463 -0.5902
   93CHL1  H19C 9331   5.718   1.464   6.950  0.3328 -1.9418  1.1456
   93CHL1    C1 9332   5.874   1.184   6.819 -0.6093 -0.0915 -0.8961
   93CHL1   H1A 9333   5.970   1.236   6.839 -0.8092 -0.7160  2.0868
   93CHL1   H1B 9334   5.894   1.088   6.871 -0.9235  1.9635  3.4250
   93CHL1    C2 9335   5.837   1.169   6.668  0.4231 -0.1588  0.1690
   93CHL1   H2A 9336   5.898   1.098   6.609 -0.6606 -0.9177 -0.0757
   93CHL1   H2B 9337   5.849   1.270   6.623  0.8599  0.2350  1.1532
   93CHL1   C20 9338   5.953   1.340   7.601 -0.3911  0.8265 -0.6818
   93CHL1   H20 9339   5.899   1.436   7.617 -2.6040 -0.4048 -0.3573
   93CHL1   C21 9340   6.099   1.365   7.552 -0.2376 -0.4453  0.7054
   93CHL1  H21A 9341   6.190   1.382   7.614  2.6005  0.9839 -3.4055
   93CHL1  H21B 9342   6.091   1.447   7.478  1.4053 -1.1176 -0.2722
   93CHL1  H21C 9343   6.133   1.273   7.499  1.2590 -1.0141  2.5259
   93CHL1   C22 9344   5.960   1.275   7.745  0.4042  0.2313 -0.0108
   93CHL1  H22A 9345   5.855   1.269   7.783  1.2542  1.9703  2.9507
   93CHL1  H22B 9346   5.993   1.169   7.743  0.3743  0.2207  0.0334
   93CHL1   C23 9347   6.033   1.351   7.857  0.2661 -0.6709  0.9495
   93CHL1  H23A 9348   6.015   1.292   7.950 -0.1245 -0.7706  0.8131
   93CHL1  H23B 9349   6.138   1.359   7.823 -0.3083  1.1931 -0.5144
   93CHL1   C24 9350   5.974   1.496   7.872 -1.1167  0.1393 -0.8861
   93CHL1  H24A 9351   6.015   1.546   7.961 -0.4272  0.2769 -1.2740
   93CHL1  H24B 9352   5.997   1.553   7.780 -0.9721  1.9522  0.2353
   93CHL1   C25 9353   5.820   1.508   7.890  0.1001 -0.4454  0.2368
   93CHL1   H25 9354   5.775   1.469   7.796 -2.0954  0.0377  1.0193
   93CHL1   C26 9355   5.751   1.437   8.001  0.0061  0.6656 -1.0459
   93CHL1  H26A 9356   5.815   1.429   8.092 -0.2681 -0.3741 -0.9331
   93CHL1  H26B 9357   5.651   1.481   8.020 -1.5632 -3.0291  0.0333
   93CHL1  H26C 9358   5.737   1.329   7.982 -0.7060  0.1125  2.0675
   93CHL1   C27 9359   5.779   1.659   7.890 -0.2711 -0.3930 -0.1737
   93CHL1  H27A 9360   5.673   1.677   7.863 -0.3232  2.1491  1.3471
   93CHL1  H27B 9361   5.786   1.704   7.991 -3.0509  0.0075 -0.0957
   93CHL1  H27C 9362   5.843   1.713   7.816 -1.7981 -0.2977 -1.4684
   94CHL1    C3 9363   0.149   5.553   6.789  0.6968  0.2795  0.5696
   94CHL1    H3 9364   0.061   5.617   6.767 -1.1243 -2.5139 -0.8532
   94CHL1    O3 9365   0.229   5.537   6.674 -0.1371  0.5157  0.0382
   94CHL1   H3' 9366   0.206   5.611   6.617 -1.9907  0.4670  0.6334
   94CHL1    C4 9367   0.239   5.619   6.891 -0.4397  0.4652  0.0382
   94CHL1   H4A 9368   0.340   5.574   6.902  0.1401  2.0293  1.4866
   94CHL1   H4B 9369   0.248   5.728   6.869  0.5309  0.6253  1.0827
   94CHL1    C5 9370   0.177   5.609   7.032  0.0541  0.4986  1.6638
   94CHL1    C6 9371   0.174   5.714   7.109 -0.0866 -0.5964 -0.1179
   94CHL1    H6 9372   0.222   5.809   7.080  1.3453 -0.6383  1.8355
   94CHL1    C7 9373   0.123   5.715   7.248 -0.8011 -0.2634 -0.2811
   94CHL1   H7A 9374   0.193   5.768   7.315 -0.2233 -0.8526 -0.4147
   94CHL1   H7B 9375   0.026   5.766   7.268  0.6933  2.7229 -0.0839
   94CHL1    C8 9376   0.116   5.572   7.312  0.2141  0.2008 -0.1559
   94CHL1    H8 9377   0.221   5.546   7.334  0.1587  0.4583  0.4376
   94CHL1   C14 9378   0.040   5.570   7.449  0.1515  0.1481  0.4582
   94CHL1   H14 9379  -0.061   5.599   7.413 -0.2345  0.6230  1.8718
   94CHL1   C15 9380   0.074   5.666   7.564 -0.3060 -0.2534 -0.3966
   94CHL1  H15A 9381   0.184   5.679   7.569 -0.6437  2.6394  1.8977
   94CHL1  H15B 9382   0.036   5.769   7.550  2.5889  1.2886  1.8164
   94CHL1   C16 9383   0.028   5.598   7.694  0.7405  0.3159 -0.6523
   94CHL1  H16A 9384   0.123   5.577   7.748 -0.2975 -0.2820  1.0112
   94CHL1  H16B 9385  -0.045   5.666   7.743  1.2829  0.6432 -0.2745
   94CHL1   C17 9386  -0.037   5.462   7.651  0.0873 -0.2140  0.3881
   94CHL1   H17 9387  -0.144   5.474   7.623 -0.9335 -3.1846  2.4831
   94CHL1   C13 9388   0.040   5.439   7.517  0.0063  0.4075 -0.2152
   94CHL1   C18 9389   0.194   5.406   7.553  0.1141 -0.1425  0.2105
   94CHL1  H18A 9390   0.240   5.495   7.601 -0.8919  0.7135 -0.3661
   94CHL1  H18B 9391   0.196   5.308   7.605 -0.4425 -0.3670 -0.1822
   94CHL1  H18C 9392   0.235   5.395   7.451 -0.6793 -0.5123 -0.0754
   94CHL1   C12 9393  -0.026   5.336   7.418  0.1215 -0.2810  0.0257
   94CHL1  H12A 9394  -0.020   5.233   7.461  0.6047  0.8930  2.9844
   94CHL1  H12B 9395  -0.134   5.355   7.432  0.0397 -1.5464  1.4003
   94CHL1   C11 9396   0.030   5.332   7.278  0.1063  0.2176 -0.0505
   94CHL1  H11A 9397   0.125   5.276   7.276  0.4983  0.4363  3.9497
   94CHL1  H11B 9398  -0.034   5.270   7.212  2.0471  0.2380 -2.0510
   94CHL1    C9 9399   0.049   5.473   7.214 -0.1183 -0.4303 -1.0304
   94CHL1    H9 9400  -0.051   5.515   7.186 -1.2111 -2.9069 -1.0441
   94CHL1   C10 9401   0.118   5.474   7.078  0.0484 -0.1840  0.4216
   94CHL1   C19 9402   0.254   5.394   7.095  0.1089 -0.0060 -0.3935
   94CHL1  H19A 9403   0.322   5.428   7.175  0.2918  0.1993 -0.6363
   94CHL1  H19B 9404   0.238   5.285   7.111 -0.2115  0.1702  0.5613
   94CHL1  H19C 9405   0.310   5.397   6.999 -1.2320 -3.4968 -1.4604
   94CHL1    C1 9406   0.025   5.414   6.962  0.0694  0.0147 -0.4090
   94CHL1   H1A 9407  -0.025   5.317   6.983  1.2549 -1.0687 -2.2829
   94CHL1   H1B 9408  -0.065   5.478   6.952  0.9644  1.3912  0.1648
   94CHL1    C2 9409   0.097   5.411   6.830  0.6546  1.2588  0.1108
   94CHL1   H2A 9410   0.027   5.364   6.758  1.5056 -2.6615  1.5948
   94CHL1   H2B 9411   0.186   5.344   6.828 -0.5500 -0.4253 -1.6756
   94CHL1   C20 9412  -0.036   5.361   7.764  0.1278 -0.0147  0.0908
   94CHL1   H20 9413   0.073   5.352   7.785  0.2525  2.5128  0.8733
   94CHL1   C21 9414  -0.112   5.223   7.733  0.3609  0.2255 -0.1078
   94CHL1  H21A 9415  -0.196   5.250   7.666 -0.3358 -2.2826 -0.3688
   94CHL1  H21B 9416  -0.156   5.168   7.819 -0.1665  0.2216 -0.3773
   94CHL1  H21C 9417  -0.038   5.158   7.681  1.6967  2.2775 -0.8789
   94CHL1   C22 9418  -0.102   5.425   7.883  1.0153  0.0381  0.3682
   94CHL1  H22A 9419  -0.076   5.530   7.906 -0.4595  0.2585  1.2079
   94CHL1  H22B 9420  -0.212   5.415   7.867  0.4348  1.1978  3.0113
   94CHL1   C23 9421  -0.082   5.355   8.014 -0.2457 -0.2949 -0.7958
   94CHL1  H23A 9422  -0.115   5.249   8.013  1.0721 -0.7294 -1.9610
   94CHL1  H23B 9423   0.029   5.350   8.016 -0.2715 -2.5587 -2.1033
   94CHL1   C24 9424  -0.149   5.421   8.140  0.6024  0.6192  0.2238
   94CHL1  H24A 9425  -0.088   5.512   8.159 -1.0120  1.1863  3.3859
   94CHL1  H24B 9426  -0.251   5.458   8.114  1.5048  2.2493 -1.2115
   94CHL1   C25 9427  -0.151   5.339   8.269  0.1573 -0.7346 -0.5013
   94CHL1   H25 9428  -0.049   5.296   8.277  0.5406  0.0966 -0.7610
   94CHL1   C26 9429  -0.180   5.436   8.385 -0.3645 -0.0551  0.0056
   94CHL1  H26A 9430  -0.174   5.385   8.484  0.7989 -0.4114 -0.2411
   94CHL1  H26B 9431  -0.108   5.521   8.387  1.1867 -1.3230  0.0360
   94CHL1  H26C 9432  -0.286   5.469   8.376 -0.5850 -0.6076  0.4741
   94CHL1   C27 9433  -0.249   5.216   8.270 -0.5148  0.3432 -0.8667
   94CHL1  H27A 9434  -0.214   5.151   8.187  1.1535 -1.3904  1.0627
   94CHL1  H27B 9435  -0.250   5.157   8.364 -1.1927 -0.1207 -1.1524
   94CHL1  H27C 9436  -0.350   5.260   8.252 -0.8104 -0.8832 -2.5248
   95CHL1    C3 9437   1.193   4.835   6.812 -0.1224  0.4499 -0.1034
   95CHL1    H3 9438   1.302   4.851   6.821 -0.0553 -0.6504  1.5348
   95CHL1    O3 9439   1.152   4.886   6.681 -0.7386 -0.7363 -0.6425
   95CHL1   H3' 9440   1.062   4.919   6.683 -0.4811  0.1586 -2.3704
   95CHL1    C4 9441   1.171   4.689   6.818  0.1439  0.7665  0.0933
   95CHL1   H4A 9442   1.071   4.661   6.779 -0.5873  1.9361  1.0496
   95CHL1   H4B 9443   1.236   4.643   6.740 -0.5243 -0.1474  0.0577
   95CHL1    C5 9444   1.205   4.633   6.958  0.6883 -0.2067  0.5839
   95CHL1    C6 9445   1.284   4.521   6.970  0.0076 -0.4584  0.2916
   95CHL1    H6 9446   1.328   4.467   6.884 -3.3066 -3.0498  0.0108
   95CHL1    C7 9447   1.315   4.457   7.107  0.2719  0.2439 -0.3364
   95CHL1   H7A 9448   1.309   4.347   7.093 -0.0205  0.1304  0.6474
   95CHL1   H7B 9449   1.419   4.491   7.129  0.2314  0.7503 -0.8964
   95CHL1    C8 9450   1.224   4.518   7.223 -0.2225  0.0699 -0.0548
   95CHL1    H8 9451   1.131   4.459   7.214 -0.5722  0.7987 -1.4097
   95CHL1   C14 9452   1.281   4.482   7.363 -0.1681 -0.2038 -0.1809
   95CHL1   H14 9453   1.367   4.551   7.381 -2.2504  2.7760 -0.8011
   95CHL1   C15 9454   1.343   4.347   7.402  0.4327 -0.2311  0.0164
   95CHL1  H15A 9455   1.289   4.258   7.364  0.4255  0.0613 -0.6763
   95CHL1  H15B 9456   1.452   4.339   7.382  0.3453  1.1137 -1.1710
   95CHL1   C16 9457   1.314   4.342   7.557 -0.5238 -0.2777 -0.5936
   95CHL1  H16A 9458   1.231   4.271   7.578  0.3918 -0.8417  1.4842
   95CHL1  H16B 9459   1.402   4.298   7.609 -2.2468 -1.5702  1.4197
   95CHL1   C17 9460   1.268   4.479   7.600 -0.1040  0.0110  0.1338
   95CHL1   H17 9461   1.361   4.538   7.615  0.4224 -1.2166  1.9503
   95CHL1   C13 9462   1.190   4.533   7.483  0.2432  0.0542  0.8121
   95CHL1   C18 9463   1.045   4.465   7.474  0.4180 -0.1790 -0.5539
   95CHL1  H18A 9464   1.005   4.479   7.371 -1.5042  1.2840  0.3555
   95CHL1  H18B 9465   1.046   4.356   7.495 -0.1486  0.2858  2.2793
   95CHL1  H18C 9466   0.971   4.516   7.538  0.3951 -1.1520  0.2211
   95CHL1   C12 9467   1.177   4.686   7.470  0.1692  0.2493 -0.7922
   95CHL1  H12A 9468   1.096   4.722   7.537 -1.1946  0.6757 -2.5969
   95CHL1  H12B 9469   1.278   4.730   7.486  0.4721 -0.8183  0.4623
   95CHL1   C11 9470   1.130   4.724   7.330 -0.7183 -0.2945  1.0492
   95CHL1  H11A 9471   1.028   4.682   7.316 -0.7383  0.7003 -2.7458
   95CHL1  H11B 9472   1.136   4.835   7.323 -2.3606 -0.1904  0.8575
   95CHL1    C9 9473   1.208   4.669   7.207 -0.1644  0.1931 -0.5882
   95CHL1    H9 9474   1.308   4.715   7.206 -0.3165  0.5204 -1.5186
   95CHL1   C10 9475   1.145   4.712   7.075  0.4419  0.6145  0.1665
   95CHL1   C19 9476   0.989   4.691   7.077 -0.1370 -0.3397 -0.1372
   95CHL1  H19A 9477   0.937   4.710   6.981  0.1524  0.7912 -0.0834
   95CHL1  H19B 9478   0.957   4.594   7.121  0.5508 -1.0442 -1.1457
   95CHL1  H19C 9479   0.951   4.763   7.153  0.3433 -0.5263  0.2871
   95CHL1    C1 9480   1.172   4.860   7.054  0.9285 -0.1878  0.1192
   95CHL1   H1A 9481   1.126   4.916   7.139 -0.6848 -0.9759 -0.1985
   95CHL1   H1B 9482   1.280   4.885   7.061  1.7108 -2.8981 -1.0836
   95CHL1    C2 9483   1.117   4.911   6.917  0.0224  0.4490 -0.1436
   95CHL1   H2A 9484   1.118   5.022   6.913  3.3155  0.5998  1.7088
   95CHL1   H2B 9485   1.012   4.878   6.905  0.5174 -2.0929  1.5045
   95CHL1   C20 9486   1.196   4.482   7.738 -0.5646 -1.1509  0.1651
   95CHL1   H20 9487   1.097   4.436   7.719 -1.4653  1.2433 -1.3210
   95CHL1   C21 9488   1.191   4.621   7.790  0.0336 -1.0573 -0.3796
   95CHL1  H21A 9489   1.126   4.695   7.738  2.7941  3.1217  1.4931
   95CHL1  H21B 9490   1.287   4.677   7.790 -0.6747  0.5254  3.4155
   95CHL1  H21C 9491   1.168   4.619   7.899 -0.5028 -1.8687 -0.5022
   95CHL1   C22 9492   1.268   4.386   7.837  0.5912  1.1183  0.2843
   95CHL1  H22A 9493   1.292   4.287   7.792  1.1625  1.7617 -0.8654
   95CHL1  H22B 9494   1.372   4.423   7.851  2.3474 -2.0357 -2.8569
   95CHL1   C23 9495   1.186   4.368   7.962 -0.8442  0.1572  0.0403
   95CHL1  H23A 9496   1.157   4.464   8.009  0.4816  0.0047  1.2220
   95CHL1  H23B 9497   1.097   4.305   7.939 -0.7372 -0.9584  2.4047
   95CHL1   C24 9498   1.265   4.292   8.065 -0.4444 -0.4279  0.0423
   95CHL1  H24A 9499   1.315   4.209   8.011 -0.1638 -1.0320  1.1888
   95CHL1  H24B 9500   1.345   4.359   8.102 -0.1163 -1.2318  0.8166
   95CHL1   C25 9501   1.179   4.238   8.176  0.1931 -0.3408  0.5278
   95CHL1   H25 9502   1.101   4.183   8.118  2.7852 -1.8596 -1.7584
   95CHL1   C26 9503   1.250   4.138   8.267 -0.9352 -0.8238  0.0210
   95CHL1  H26A 9504   1.286   4.049   8.211 -0.9934 -1.1062  0.4243
   95CHL1  H26B 9505   1.329   4.192   8.324 -2.2390  2.7826 -1.2971
   95CHL1  H26C 9506   1.188   4.096   8.350  0.3572 -1.3518  0.7480
   95CHL1   C27 9507   1.116   4.360   8.255 -0.5232  0.3934  1.0649
   95CHL1  H27A 9508   1.065   4.430   8.185 -2.4540 -1.8843  0.0392
   95CHL1  H27B 9509   1.030   4.322   8.314  1.4278 -3.5884  1.6862
   95CHL1  H27C 9510   1.199   4.404   8.313  1.7771  0.2976 -1.8871
   96CHL1    C3 9511   0.793   3.551   6.802 -0.1774  0.5483 -0.0551
   96CHL1    H3 9512   0.902   3.554   6.819 -0.1866  0.9900 -0.0683
   96CHL1    O3 9513   0.763   3.571   6.667 -0.0870 -0.3208  0.2239
   96CHL1   H3' 9514   0.668   3.573   6.658 -0.3594 -3.7120  1.1917
   96CHL1    C4 9515   0.741   3.412   6.848 -0.2749  0.0929  0.1771
   96CHL1   H4A 9516   0.631   3.422   6.836 -0.2625  1.8175  1.1078
   96CHL1   H4B 9517   0.782   3.338   6.777  1.4294 -0.0133  1.1930
   96CHL1    C5 9518   0.773   3.391   6.992  0.2409  0.3306  0.5279
   96CHL1    C6 9519   0.842   3.282   7.035  0.2168 -0.6700 -0.7034
   96CHL1    H6 9520   0.885   3.204   6.971  0.5681 -1.8474  0.9087
   96CHL1    C7 9521   0.886   3.265   7.178  0.2557  1.2361 -0.0418
   96CHL1   H7A 9522   0.861   3.158   7.197 -0.1263  1.1759 -0.8674
   96CHL1   H7B 9523   0.995   3.283   7.173  0.3549  1.9109  2.7113
   96CHL1    C8 9524   0.813   3.353   7.286 -0.8880  0.6778  0.3847
   96CHL1    H8 9525   0.711   3.310   7.291 -0.0841 -1.3701  0.0397
   96CHL1   C14 9526   0.883   3.350   7.422  0.4792 -0.1081  0.3306
   96CHL1   H14 9527   0.986   3.387   7.404  0.4079 -0.4672 -0.9041
   96CHL1   C15 9528   0.911   3.209   7.483 -0.4367  0.0271  0.2687
   96CHL1  H15A 9529   0.811   3.159   7.486 -0.5353  0.2092  3.2351
   96CHL1  H15B 9530   0.987   3.145   7.434  0.7423 -0.9495  3.1443
   96CHL1   C16 9531   0.949   3.256   7.629  0.0247  0.4142 -0.0247
   96CHL1  H16A 9532   0.904   3.182   7.698  0.4997  1.4638  1.4740
   96CHL1  H16B 9533   1.058   3.244   7.640 -0.3616 -2.3836  1.5488
   96CHL1   C17 9534   0.898   3.406   7.649 -0.2961 -0.1923 -0.6760
   96CHL1   H17 9535   0.993   3.460   7.630  0.1261 -1.1794 -1.4213
   96CHL1   C13 9536   0.813   3.438   7.526  0.7367 -0.6678 -0.1984
   96CHL1   C18 9537   0.664   3.399   7.551  0.9412  0.7897  0.0155
   96CHL1  H18A 9538   0.637   3.445   7.648  0.8525 -0.4486  0.5965
   96CHL1  H18B 9539   0.606   3.434   7.463 -0.8285  0.8029  1.1488
   96CHL1  H18C 9540   0.655   3.289   7.561  2.2054  0.6197 -0.4771
   96CHL1   C12 9541   0.818   3.578   7.470 -0.0157 -1.0810 -0.1849
   96CHL1  H12A 9542   0.786   3.659   7.539  2.4260 -0.5151  0.4018
   96CHL1  H12B 9543   0.927   3.602   7.467 -0.8818  3.9573 -1.8158
   96CHL1   C11 9544   0.760   3.600   7.330 -0.3598 -0.2746 -0.6046
   96CHL1  H11A 9545   0.649   3.604   7.331 -0.4622 -2.2948 -0.3749
   96CHL1  H11B 9546   0.795   3.700   7.295  0.0943  0.2151  1.1479
   96CHL1    C9 9547   0.801   3.494   7.228 -0.0318  0.1043 -0.1660
   96CHL1    H9 9548   0.901   3.526   7.192 -0.5830 -0.0641 -1.9450
   96CHL1   C10 9549   0.722   3.504   7.090 -0.5680  0.9090  0.0786
   96CHL1   C19 9550   0.572   3.478   7.119  0.2698  0.5720 -0.0830
   96CHL1  H19A 9551   0.505   3.490   7.031  0.0956  0.6851  0.0634
   96CHL1  H19B 9552   0.556   3.380   7.167 -0.7641  0.3688 -0.7921
   96CHL1  H19C 9553   0.533   3.557   7.187  1.3423  1.8176 -0.8554
   96CHL1    C1 9554   0.748   3.644   7.031 -0.4350 -0.3581  0.1922
   96CHL1   H1A 9555   0.673   3.706   7.083 -2.0874  0.2433 -2.7023
   96CHL1   H1B 9556   0.845   3.682   7.071 -1.0685  1.0840  0.4216
   96CHL1    C2 9557   0.742   3.665   6.886 -0.8397 -0.3044 -0.3655
   96CHL1   H2A 9558   0.782   3.765   6.858  0.3214 -0.8822 -0.7924
   96CHL1   H2B 9559   0.637   3.684   6.854 -0.2484  1.6960 -1.2709
   96CHL1   C20 9560   0.844   3.438   7.793  0.5834 -0.1982  0.3972
   96CHL1   H20 9561   0.755   3.376   7.819 -1.0129  1.4157 -0.9351
   96CHL1   C21 9562   0.816   3.584   7.811  0.2628 -0.0355 -0.1104
   96CHL1  H21A 9563   0.882   3.659   7.764 -1.3377  2.0256  0.7910
   96CHL1  H21B 9564   0.810   3.610   7.919  5.0473 -1.7899  0.8154
   96CHL1  H21C 9565   0.717   3.601   7.762  1.4720  0.6515 -2.4666
   96CHL1   C22 9566   0.946   3.399   7.900  0.3364 -0.0311  0.6540
   96CHL1  H22A 9567   0.972   3.292   7.888 -0.3205 -0.0539 -0.7309
   96CHL1  H22B 9568   1.044   3.451   7.897  2.1318 -3.1976 -2.2148
   96CHL1   C23 9569   0.902   3.394   8.051  0.9160 -0.1386 -0.2443
   96CHL1  H23A 9570   0.887   3.500   8.080  0.1799  0.6093 -3.0769
   96CHL1  H23B 9571   0.808   3.334   8.050  1.9688 -1.8377 -1.8932
   96CHL1   C24 9572   1.011   3.332   8.152  0.7268 -0.0153  0.6683
   96CHL1  H24A 9573   1.052   3.248   8.093 -1.1403  0.5011 -1.5079
   96CHL1  H24B 9574   1.096   3.401   8.167  1.8024 -1.4443  1.4310
   96CHL1   C25 9575   0.943   3.270   8.280  0.7191 -0.6925  0.7659
   96CHL1   H25 9576   0.854   3.215   8.242  0.4528  1.0270 -1.2912
   96CHL1   C26 9577   1.029   3.165   8.351  1.0389 -0.4048 -0.4159
   96CHL1  H26A 9578   1.088   3.097   8.286  0.2044 -1.2769 -0.2743
   96CHL1  H26B 9579   1.102   3.205   8.424  3.0050  1.0141 -2.9709
   96CHL1  H26C 9580   0.951   3.102   8.399 -1.8286  2.0264 -1.5138
   96CHL1   C27 9581   0.902   3.391   8.369  0.4547  0.6754 -0.0086
   96CHL1  H27A 9582   0.834   3.451   8.304 -1.4407 -1.8086 -0.5101
   96CHL1  H27B 9583   0.843   3.355   8.456 -2.1391  0.7675 -1.5892
   96CHL1  H27C 9584   1.000   3.435   8.393  0.8025  0.4333 -0.9436
   97OSM      N 9585   4.477   5.806  11.162  0.3154  0.0031  0.5943
   97OSM    C15 9586   4.426   5.943  11.161  0.1641 -0.5039 -0.0263
   97OSM   H15A 9587   4.342   5.966  11.098 -0.8672 -1.9911  0.7603
   97OSM   H15B 9588   4.506   6.014  11.142 -0.7485  0.3093 -0.9306
   97OSM   H15C 9589   4.406   5.968  11.264 -0.7958 -1.0552 -0.0725
   97OSM    C14 9590   4.604   5.785  11.238 -0.6521  0.1779 -0.0268
   97OSM   H14A 9591   4.676   5.852  11.193  0.7286 -1.2168  0.0336
   97OSM   H14B 9592   4.637   5.684  11.221 -0.8848  0.3196 -1.5305
   97OSM   H14C 9593   4.608   5.813  11.342 -0.2793 -0.5843  0.1669
   97OSM    C13 9594   4.377   5.722  11.232  0.2770  0.1361  0.5724
   97OSM   H13A 9595   4.356   5.764  11.329  1.6289  0.3111  0.8072
   97OSM   H13B 9596   4.401   5.616  11.239 -1.6166 -0.3890 -0.1672
   97OSM   H13C 9597   4.282   5.739  11.183  0.5165  1.9774  0.6918
   97OSM    C12 9598   4.495   5.761  11.016  1.1320 -0.4163 -0.4001
   97OSM   H12A 9599   4.548   5.841  10.969  2.1909  0.1016  1.5438
   97OSM   H12B 9600   4.397   5.760  10.971  1.4099 -0.5930 -1.0056
   97OSM    C11 9601   4.568   5.632  10.988  0.4710 -0.5892 -0.1833
   97OSM   H11A 9602   4.667   5.637  11.038  1.0476  0.8806 -1.3928
   97OSM   H11B 9603   4.596   5.635  10.881  0.6390  2.8246 -0.1603
   97OSM      P 9604   4.488   5.386  10.990 -0.0310  0.0970 -0.2737
   97OSM    O13 9605   4.624   5.340  11.022  0.5775 -0.6907 -0.1627
   97OSM    O14 9606   4.389   5.302  11.061 -0.0209 -0.2068 -0.2036
   97OSM    O11 9607   4.457   5.387  10.828 -0.0983 -0.3718 -0.5988
   97OSM    O12 9608   4.476   5.534  11.029  0.4215  0.7251 -0.3264
   97OSM    C1S 9609   4.534   5.315  10.730  0.2896 -0.3678 -0.2462
   97OSM    H1S 9610   4.527   5.207  10.755 -0.3046  0.0839  1.7143
   97OSM    H1T 9611   4.642   5.341  10.731  0.5385 -1.3567 -0.8410
   97OSM     NF 9612   4.538   5.249  10.492 -0.0822  0.7293  0.5036
   97OSM    HNF 9613   4.607   5.286  10.431  1.4693 -1.3690  0.8827
   97OSM    C2S 9614   4.466   5.335  10.595  0.0252  0.5647  0.0394
   97OSM    H2S 9615   4.360   5.306  10.611 -0.5771  2.6689  0.2679
   97OSM    C3S 9616   4.463   5.487  10.558 -0.1471  0.1878  0.7538
   97OSM    H3S 9617   4.567   5.519  10.538  0.1195 -0.4514  1.1008
   97OSM     O3 9618   4.405   5.575  10.654 -0.1676 -0.1904  0.7832
   97OSM    HO3 9619   4.396   5.516  10.730  0.1021 -2.2170 -0.6560
   97OSM    C4S 9620   4.382   5.513  10.434  0.2726 -1.7155 -0.6129
   97OSM    H4S 9621   4.274   5.495  10.443 -0.2773  1.1016 -0.6067
   97OSM    C5S 9622   4.435   5.545  10.318  0.2576 -0.0824  0.4711
   97OSM    H5S 9623   4.543   5.565  10.314  0.4785 -0.5232  2.7102
   97OSM    C6S 9624   4.352   5.574  10.194  0.1875  0.0160 -0.7012
   97OSM    H6S 9625   4.396   5.537  10.099 -0.7843  0.1530 -1.2135
   97OSM    H6T 9626   4.352   5.685  10.194 -1.1524  0.0337  0.0486
   97OSM    C7S 9627   4.204   5.519  10.193 -0.8942 -0.2980 -0.4382
   97OSM    H7S 9628   4.153   5.552  10.286 -0.3400  0.5651 -0.4297
   97OSM    H7T 9629   4.214   5.408  10.192 -0.4961 -0.2702 -0.0391
   97OSM    C8S 9630   4.131   5.553  10.065 -0.3374 -0.0062  0.5505
   97OSM    H8S 9631   4.027   5.575  10.096 -0.1337 -0.5928  1.7149
   97OSM    H8T 9632   4.117   5.459  10.008  0.1797  0.5504 -0.5280
   97OSM    C9S 9633   4.178   5.664   9.972 -0.1480 -0.4519 -0.1678
   97OSM    H9S 9634   4.289   5.664   9.974 -0.1012 -3.0890  1.2765
   97OSM    H9T 9635   4.152   5.764  10.012  0.9071 -0.9411  1.8639
   97OSM   C10S 9636   4.145   5.640   9.822  0.5951 -0.3544 -0.1179
   97OSM   H10S 9637   4.157   5.533   9.793  1.7187  0.1744 -1.7268
   97OSM   H10T 9638   4.221   5.695   9.763 -0.8427  1.7127 -0.1535
   97OSM   C11S 9639   4.001   5.684   9.784 -0.1233  0.6853  0.2961
   97OSM   H11S 9640   3.971   5.776   9.840  1.8937  0.4012  1.9545
   97OSM   H11T 9641   3.928   5.604   9.811 -0.4081 -0.3518 -3.1431
   97OSM   C12S 9642   3.972   5.703   9.639  0.2019 -0.6227  0.1350
   97OSM   H12S 9643   4.015   5.625   9.573  0.0613 -0.3716 -0.2555
   97OSM   H12T 9644   4.029   5.793   9.608 -0.7180  0.1702  0.6774
   97OSM   C13S 9645   3.825   5.729   9.606  0.6252  0.2374 -0.1233
   97OSM   H13S 9646   3.801   5.771   9.506 -1.5436  0.0934  0.2779
   97OSM   H13T 9647   3.801   5.809   9.680  1.7377  0.7370 -0.2920
   97OSM   C14S 9648   3.725   5.607   9.628  0.4264 -0.4269 -0.2328
   97OSM   H14S 9649   3.622   5.648   9.618  1.3369  1.6540 -1.9255
   97OSM   H14T 9650   3.740   5.566   9.730 -1.1525 -1.4561 -0.3849
   97OSM   C15S 9651   3.737   5.500   9.515  0.3419 -0.1080 -0.0822
   97OSM   H15S 9652   3.679   5.410   9.543 -0.8943  1.0261  1.2059
   97OSM   H15T 9653   3.845   5.476   9.509  0.7611  1.2050  1.3571
   97OSM   C16S 9654   3.689   5.567   9.386 -0.4443 -0.1185  0.0131
   97OSM   H16S 9655   3.744   5.657   9.352 -2.0074  0.4210 -1.2212
   97OSM   H16T 9656   3.587   5.606   9.407 -0.0421  1.8607 -1.3855
   97OSM   C17S 9657   3.693   5.462   9.272  0.0146  0.7370  0.2310
   97OSM   H17S 9658   3.647   5.519   9.189 -0.0140  1.5788  0.8158
   97OSM   H17T 9659   3.634   5.371   9.296  0.2126 -0.0841 -2.1678
   97OSM   C18S 9660   3.833   5.429   9.240 -0.5360  0.6961 -0.1897
   97OSM   H18S 9661   3.891   5.523   9.226  0.8564 -0.1375 -0.2575
   97OSM   H18T 9662   3.849   5.360   9.155 -0.0284  1.3902 -0.6668
   97OSM   H18U 9663   3.866   5.378   9.333  2.2403  0.4079 -1.2377
   97OSM    C1F 9664   4.517   5.115  10.480 -0.4124  0.4492  0.4818
   97OSM     OF 9665   4.450   5.059  10.568 -0.0838 -0.5136  0.0819
   97OSM    C2F 9666   4.593   5.032  10.375  0.0705 -0.2104  1.0127
   97OSM    H2F 9667   4.625   4.944  10.434 -0.3086 -1.2850 -0.3203
   97OSM    H2G 9668   4.682   5.090  10.342 -0.3039 -0.1567  0.0550
   97OSM    C3F 9669   4.510   4.991  10.257 -0.8573  1.2733 -0.3293
   97OSM    H3F 9670   4.432   4.921  10.291  0.1488 -0.3445 -1.2249
   97OSM    H3G 9671   4.582   4.927  10.200  0.5813  2.7802 -0.2885
   97OSM    C4F 9672   4.462   5.099  10.164 -0.2043 -0.7385  0.0470
   97OSM    H4F 9673   4.547   5.156  10.120 -2.3648  1.9594 -0.8737
   97OSM    H4G 9674   4.403   5.179  10.213  1.9304  0.9880 -0.0139
   97OSM    C5F 9675   4.386   5.066  10.050 -0.6033  0.3612  0.1846
   97OSM    H5F 9676   4.447   4.998   9.987 -1.3378 -0.4176  0.2885
   97OSM    H5G 9677   4.364   5.157   9.990  0.6026 -0.6006 -1.8047
   97OSM    C6F 9678   4.260   4.993  10.085  0.0887  0.4292 -0.6705
   97OSM    H6F 9679   4.192   5.041  10.159 -0.2824 -2.2796  0.8702
   97OSM    H6G 9680   4.294   4.898  10.132 -0.3583  1.0766  1.0443
   97OSM    C7F 9681   4.174   4.952   9.966  0.0947 -0.1603  0.7286
   97OSM    H7F 9682   4.160   4.842   9.972 -0.0401 -0.1760  0.1414
   97OSM    H7G 9683   4.225   4.961   9.868 -2.1862 -1.5542 -0.6907
   97OSM    C8F 9684   4.039   5.033   9.953  0.2429  1.0012 -0.9676
   97OSM    H8F 9685   3.974   5.021  10.042  1.1880  0.3356 -0.3382
   97OSM    H8G 9686   3.986   4.975   9.875 -0.6144  0.2608  0.1321
   97OSM    C9F 9687   4.073   5.176   9.915  0.1720  0.3959 -0.1964
   97OSM    H9F 9688   4.157   5.224   9.969 -1.3073  1.4377  1.2631
   97OSM   C10F 9689   4.014   5.234   9.813  0.1298  0.4682 -0.7426
   97OSM   H10F 9690   4.043   5.338   9.796 -0.2189  0.7316  0.2136
   97OSM   C11F 9691   3.914   5.174   9.716 -0.5565  0.7436  0.8122
   97OSM   H11F 9692   3.838   5.251   9.689 -1.3684 -0.0464  0.8080
   97OSM   H11G 9693   3.855   5.083   9.738  0.5002 -0.3197 -0.6299
   97OSM   C12F 9694   3.994   5.130   9.594 -0.2917 -0.0691  0.2116
   97OSM   H12F 9695   4.059   5.042   9.611 -2.6520 -1.5274  2.4281
   97OSM   H12G 9696   4.041   5.221   9.551 -0.5589 -0.0730 -0.0977
   97OSM   C13F 9697   3.908   5.090   9.471  0.8988 -0.3121 -0.9229
   97OSM   H13F 9698   3.838   5.173   9.449 -0.2058 -1.2594 -1.0787
   97OSM   H13G 9699   3.841   5.008   9.504  0.7122 -0.7214 -2.2785
   97OSM   C14F 9700   3.990   5.047   9.348  0.5650  0.0015  0.5729
   97OSM   H14F 9701   4.048   4.958   9.379 -2.2700 -2.2016  0.0035
   97OSM   H14G 9702   4.061   5.122   9.307  0.0466 -0.4581 -1.2464
   97OSM   C15F 9703   3.900   4.987   9.239 -0.0127  0.4480  0.4953
   97OSM   H15F 9704   3.828   5.065   9.206  1.3876  1.9754  0.9527
   97OSM   H15G 9705   3.823   4.913   9.269 -0.9260  1.5499  0.9587
   97OSM   C16F 9706   3.980   4.933   9.115  0.6805 -0.1880 -0.0079
   97OSM   H16F 9707   4.012   4.831   9.144 -1.1467 -0.3379  1.7111
   97OSM   H16G 9708   4.070   4.998   9.108 -0.8261  2.0553  0.1253
   97OSM   C17F 9709   3.899   4.940   8.988 -0.2328 -0.0697  0.0747
   97OSM   H17F 9710   3.967   4.909   8.905  0.2270  2.1360 -0.4647
   97OSM   H17G 9711   3.861   5.042   8.963  0.6118  0.5812  1.3439
   97OSM   C18F 9712   3.780   4.843   8.992  0.1274 -0.2619  0.5138
   97OSM   H18F 9713   3.696   4.894   9.044  0.4489  0.9588 -0.1260
   97OSM   H18G 9714   3.813   4.754   9.050  0.9209 -1.0306 -1.0571
   97OSM   H18H 9715   3.754   4.822   8.886  1.7394 -0.4190  0.1198
   98OSM      N 9716   2.693   5.819  10.742 -0.7402 -0.9036  0.2641
   98OSM    C15 9717   2.736   5.926  10.645  0.0245  0.3797 -0.1062
   98OSM   H15A 9718   2.788   5.886  10.559 -1.6330 -0.9766 -0.5304
   98OSM   H15B 9719   2.796   5.996  10.701 -1.5648  1.8513 -0.1735
   98OSM   H15C 9720   2.654   5.982  10.604  0.1713 -1.3790 -3.1592
   98OSM    C14 9721   2.600   5.872  10.838  0.0334 -0.0400  0.5663
   98OSM   H14A 9722   2.505   5.875  10.787  0.4741 -3.7653 -0.7995
   98OSM   H14B 9723   2.620   5.976  10.860  0.4493 -0.1512  0.7323
   98OSM   H14C 9724   2.599   5.812  10.929 -1.8270 -1.4981 -0.3447
   98OSM    C13 9725   2.616   5.713  10.670 -0.6175  0.6405  0.3642
   98OSM   H13A 9726   2.689   5.667  10.605 -1.1525  2.5446 -1.6870
   98OSM   H13B 9727   2.542   5.761  10.608  2.6972  2.2916 -2.6589
   98OSM   H13C 9728   2.581   5.631  10.732  1.9845 -2.2917 -1.7303
   98OSM    C12 9729   2.816   5.765  10.818 -0.1857  0.1635 -0.3756
   98OSM   H12A 9730   2.795   5.700  10.901  0.6458 -1.8362 -1.6498
   98OSM   H12B 9731   2.880   5.842  10.858  0.1518 -0.1487 -0.3170
   98OSM    C11 9732   2.919   5.694  10.739 -0.3515  1.0870  0.2066
   98OSM   H11A 9733   3.015   5.702  10.793 -1.2903  1.4465  1.8777
   98OSM   H11B 9734   2.944   5.747  10.645  0.5603  2.7153  1.3327
   98OSM      P 9735   2.853   5.439  10.796  0.5031  0.0958 -0.2180
   98OSM    O13 9736   2.951   5.452  10.910  0.0955 -0.2800  0.1682
   98OSM    O14 9737   2.712   5.438  10.837  0.1171  0.2517  0.4044
   98OSM    O11 9738   2.883   5.317  10.710  0.4272 -0.2349  0.1930
   98OSM    O12 9739   2.874   5.560  10.699 -0.1624 -0.5920 -0.6654
   98OSM    C1S 9740   2.780   5.236  10.649  0.8146  0.2257 -0.2867
   98OSM    H1S 9741   2.690   5.299  10.628 -0.9480 -1.9112  0.5105
   98OSM    H1T 9742   2.729   5.162  10.714 -1.2044  1.3435 -0.5114
   98OSM     NF 9743   2.710   5.094  10.446  0.3673 -0.4141  0.7721
   98OSM    HNF 9744   2.724   4.997  10.427  0.1138 -0.1117 -1.1592
   98OSM    C2S 9745   2.821   5.165  10.520 -0.3036  0.2998  0.2054
   98OSM    H2S 9746   2.863   5.239  10.449  0.7332 -0.9378 -0.5268
   98OSM    C3S 9747   2.947   5.077  10.549 -0.3255 -0.0728 -0.3305
   98OSM    H3S 9748   2.915   4.994  10.616  0.4426 -1.1175 -1.2311
   98OSM     O3 9749   3.053   5.147  10.619  0.4554  0.0211 -0.7320
   98OSM    HO3 9750   3.011   5.225  10.655  1.5285  0.7521 -1.0262
   98OSM    C4S 9751   3.004   5.010  10.418 -0.2548  0.1531 -0.2517
   98OSM    H4S 9752   2.956   4.914  10.393 -0.5240 -0.0114  0.8128
   98OSM    C5S 9753   3.107   5.049  10.343 -0.4820  0.5911  0.4118
   98OSM    H5S 9754   3.163   5.141  10.366 -0.0303  0.0215  1.6387
   98OSM    C6S 9755   3.173   4.989  10.217 -0.2217 -0.0365  0.4158
   98OSM    H6S 9756   3.224   4.891  10.233  0.0048  0.0361  0.1463
   98OSM    H6T 9757   3.248   5.059  10.175  0.2570 -0.8381 -0.1149
   98OSM    C7S 9758   3.065   4.966  10.107  0.0903 -0.0050  0.3589
   98OSM    H7S 9759   3.015   5.061  10.079 -0.3824 -0.0730  0.9395
   98OSM    H7T 9760   2.979   4.901  10.135 -0.9979  1.3512  0.2795
   98OSM    C8S 9761   3.119   4.902   9.978 -0.0051 -1.2026  0.1723
   98OSM    H8S 9762   3.145   4.795   9.993  1.1103 -0.6593  2.5226
   98OSM    H8T 9763   3.207   4.960   9.944 -0.7301  0.3953  0.9229
   98OSM    C9S 9764   3.015   4.908   9.862  0.2165 -0.3018 -0.0505
   98OSM    H9S 9765   3.000   5.014   9.831  2.9566 -0.4825 -2.3990
   98OSM    H9T 9766   2.920   4.873   9.907 -1.4010  2.1963 -1.2632
   98OSM   C10S 9767   3.067   4.837   9.742 -0.4635  0.4083 -0.3663
   98OSM   H10S 9768   3.103   4.735   9.768 -1.3831  0.3129  0.5689
   98OSM   H10T 9769   3.159   4.894   9.715 -0.4556  0.1538 -0.8934
   98OSM   C11S 9770   2.967   4.850   9.624  0.2397 -0.1697 -0.0856
   98OSM   H11S 9771   2.901   4.939   9.619 -0.0866 -0.4012  0.0894
   98OSM   H11T 9772   2.911   4.754   9.623 -0.8982  0.4840  0.2175
   98OSM   C12S 9773   3.051   4.849   9.495  0.3643  0.5897 -0.0375
   98OSM   H12S 9774   3.118   4.760   9.492  1.5054  1.4544 -1.4112
   98OSM   H12T 9775   3.117   4.937   9.483  2.4705 -0.7274  1.1671
   98OSM   C13S 9776   2.958   4.837   9.371  0.1159  0.0568 -0.4317
   98OSM   H13S 9777   2.877   4.912   9.372 -0.7260 -0.8236 -0.7063
   98OSM   H13T 9778   2.906   4.739   9.373 -0.5451  0.4084  0.2630
   98OSM   C14S 9779   3.037   4.850   9.237  0.4756  0.2440 -0.2997
   98OSM   H14S 9780   3.081   4.752   9.209  1.0895 -0.5268  2.9524
   98OSM   H14T 9781   3.108   4.935   9.231  0.1490  0.6105  0.7592
   98OSM   C15S 9782   2.937   4.871   9.120  0.0878  0.3021 -0.3678
   98OSM   H15S 9783   2.886   4.970   9.125 -3.6567 -1.4643 -0.0285
   98OSM   H15T 9784   2.853   4.802   9.143  1.8883 -1.6669  0.6013
   98OSM   C16S 9785   2.995   4.868   8.981  0.2168 -0.2496  0.0635
   98OSM   H16S 9786   2.920   4.838   8.903  0.6664  1.4272 -1.0592
   98OSM   H16T 9787   3.080   4.797   8.979  1.2736  0.9986 -0.3294
   98OSM   C17S 9788   3.040   5.013   8.943  0.1373 -0.2746 -0.5591
   98OSM   H17S 9789   3.109   5.052   9.021 -1.1553 -0.7800  0.8886
   98OSM   H17T 9790   2.952   5.081   8.939  1.0128  0.8651 -3.7642
   98OSM   C18S 9791   3.115   5.028   8.804  0.1375 -0.0698  0.3034
   98OSM   H18S 9792   3.154   5.126   8.769  0.4484 -0.9043 -1.8320
   98OSM   H18T 9793   3.042   5.003   8.724 -0.5575  0.9387  0.6063
   98OSM   H18U 9794   3.202   4.962   8.786  0.1137  0.0045 -0.0794
   98OSM    C1F 9795   2.604   5.155  10.384 -0.0470 -0.0822 -0.3837
   98OSM     OF 9796   2.579   5.272  10.400  0.1183 -0.7193  0.1403
   98OSM    C2F 9797   2.540   5.075  10.280  0.3926  0.2347  0.3593
   98OSM    H2F 9798   2.433   5.103  10.268  0.7788  1.0199 -1.5982
   98OSM    H2G 9799   2.535   4.968  10.311  2.5919  0.2624  0.9701
   98OSM    C3F 9800   2.608   5.095  10.142 -0.1499 -0.0963 -0.7755
   98OSM    H3F 9801   2.710   5.053  10.157 -0.6163 -0.7567  0.8425
   98OSM    H3G 9802   2.627   5.201  10.117  0.0438  1.0785  3.5938
   98OSM    C4F 9803   2.536   5.023  10.028 -0.0600  1.0332  0.2603
   98OSM    H4F 9804   2.435   5.062  10.004  0.1505  1.5210  0.1636
   98OSM    H4G 9805   2.536   4.914  10.048  0.4671  1.0353  0.2926
   98OSM    C5F 9806   2.615   5.029   9.900  0.1034  0.5582  0.0578
   98OSM    H5F 9807   2.716   4.988   9.917 -0.5796 -2.7428 -2.8195
   98OSM    H5G 9808   2.632   5.130   9.857  0.4886  1.1045  1.4366
   98OSM    C6F 9809   2.570   4.942   9.784  0.2414  0.3890 -0.5012
   98OSM    H6F 9810   2.613   4.994   9.696 -1.5328  2.7568 -0.0798
   98OSM    H6G 9811   2.460   4.957   9.782  0.0977 -0.6138 -0.7229
   98OSM    C7F 9812   2.587   4.791   9.800  0.0199 -0.8022  0.5546
   98OSM    H7F 9813   2.531   4.762   9.892 -0.2140 -1.7610  0.1246
   98OSM    H7G 9814   2.697   4.781   9.806  0.1848  1.2726  2.1603
   98OSM    C8F 9815   2.529   4.714   9.674 -0.0068 -0.3402 -0.3213
   98OSM    H8F 9816   2.422   4.740   9.663 -0.7229 -3.2206 -0.8153
   98OSM    H8G 9817   2.536   4.607   9.700  1.3732 -0.2838 -0.3677
   98OSM    C9F 9818   2.608   4.742   9.552  0.1153 -0.2438 -0.5999
   98OSM    H9F 9819   2.711   4.704   9.555  0.3072  0.1714 -1.5814
   98OSM   C10F 9820   2.565   4.817   9.446 -0.1498  0.3521  0.1055
   98OSM   H10F 9821   2.621   4.835   9.353 -0.5905  2.4237  0.2116
   98OSM   C11F 9822   2.421   4.875   9.444 -0.0942 -0.1064  0.6039
   98OSM   H11F 9823   2.411   4.965   9.508 -0.8980  0.3442 -0.1379
   98OSM   H11G 9824   2.355   4.800   9.492 -0.8231  0.7947  1.0412
   98OSM   C12F 9825   2.373   4.922   9.307 -0.1768 -0.2578  0.3081
   98OSM   H12F 9826   2.391   4.842   9.232  0.7627 -0.2395  0.5006
   98OSM   H12G 9827   2.435   5.008   9.273 -1.9033  0.7584 -0.4249
   98OSM   C13F 9828   2.223   4.955   9.312 -0.4134  0.0804 -0.2275
   98OSM   H13F 9829   2.215   5.058   9.354  1.3008 -0.1419  0.7018
   98OSM   H13G 9830   2.162   4.892   9.380 -0.0634 -0.7198 -0.6403
   98OSM   C14F 9831   2.148   4.940   9.179 -0.3723 -0.2755 -0.1716
   98OSM   H14F 9832   2.040   4.949   9.201 -0.2914 -2.2022  1.1685
   98OSM   H14G 9833   2.177   4.838   9.147  1.1951 -0.3378  1.3113
   98OSM   C15F 9834   2.191   5.032   9.069 -0.2944 -0.2867  0.2428
   98OSM   H15F 9835   2.301   5.025   9.052  0.3532 -2.9857  4.2079
   98OSM   H15G 9836   2.192   5.135   9.111  1.3642  0.0378 -0.5058
   98OSM   C16F 9837   2.119   5.011   8.935  0.0284 -0.1442  0.3122
   98OSM   H16F 9838   2.013   5.003   8.966  0.2649 -0.3838  1.0974
   98OSM   H16G 9839   2.141   4.917   8.881 -1.2172 -1.2541  1.6456
   98OSM   C17F 9840   2.143   5.130   8.838 -0.1259 -0.0058 -0.4553
   98OSM   H17F 9841   2.252   5.126   8.815 -0.0586 -1.4732  0.0372
   98OSM   H17G 9842   2.112   5.220   8.895 -0.2646 -0.6199  0.4578
   98OSM   C18F 9843   2.077   5.120   8.700  0.2816 -0.1505  0.8621
   98OSM   H18F 9844   1.984   5.061   8.715 -0.5177  1.2598  1.6617
   98OSM   H18G 9845   2.150   5.066   8.636  2.4249  1.6998  1.6034
   98OSM   H18H 9846   2.050   5.223   8.669  1.7379  0.0704  0.2584
   99OSM      N 9847   4.561   6.827  11.003  0.0665 -0.4413  0.2445
   99OSM    C15 9848   4.516   6.969  10.980 -0.4156  0.4179  0.3553
   99OSM   H15A 9849   4.591   7.020  10.920  0.6639 -2.4670 -0.9553
   99OSM   H15B 9850   4.506   7.011  11.078  0.9540  2.2341 -0.2264
   99OSM   H15C 9851   4.420   6.975  10.931 -0.8889  1.6674  1.3704
   99OSM    C14 9852   4.685   6.835  11.092 -0.3822  0.3224  0.6219
   99OSM   H14A 9853   4.723   6.738  11.121  1.8823  1.2709  1.0161
   99OSM   H14B 9854   4.670   6.888  11.185  1.3300 -1.2429  1.8386
   99OSM   H14C 9855   4.766   6.884  11.041 -0.0916 -0.8729 -0.1045
   99OSM    C13 9856   4.454   6.766  11.090  0.4224  0.4016 -0.2792
   99OSM   H13A 9857   4.484   6.669  11.127 -0.2523  0.4398  0.3742
   99OSM   H13B 9858   4.363   6.749  11.034  1.5355 -0.5758 -1.9156
   99OSM   H13C 9859   4.444   6.827  11.178 -0.7639  2.1545 -1.5638
   99OSM    C12 9860   4.591   6.762  10.878 -1.2998  0.2836  0.4175
   99OSM   H12A 9861   4.601   6.655  10.894  1.8427  0.5944  1.2597
   99OSM   H12B 9862   4.690   6.785  10.841 -0.7777 -0.3524  1.3620
   99OSM    C11 9863   4.494   6.768  10.760 -0.1838  0.2301 -0.3308
   99OSM   H11A 9864   4.535   6.704  10.679 -1.6746 -0.2388 -0.7484
   99OSM   H11B 9865   4.477   6.870  10.721 -0.3404 -0.3500 -1.8685
   99OSM      P 9866   4.355   6.554  10.791 -0.1708 -0.0161 -0.4839
   99OSM    O13 9867   4.477   6.503  10.858  0.0559 -0.2395  0.3296
   99OSM    O14 9868   4.233   6.495  10.840  0.1420  0.8566 -0.6093
   99OSM    O11 9869   4.367   6.508  10.638 -0.0237 -0.2750 -0.4853
   99OSM    O12 9870   4.367   6.715  10.791  0.2121 -0.2047 -0.3296
   99OSM    C1S 9871   4.391   6.367  10.604  0.2364 -0.1973 -0.0785
   99OSM    H1S 9872   4.290   6.323  10.618  0.5347 -0.7722  0.3474
   99OSM    H1T 9873   4.475   6.323  10.662 -0.8480 -0.9695  0.9732
   99OSM     NF 9874   4.403   6.234  10.398  0.4681  0.9400 -0.5003
   99OSM    HNF 9875   4.483   6.176  10.409 -1.4070 -1.7815 -0.3408
   99OSM    C2S 9876   4.425   6.367  10.454  1.0009 -0.1935  1.1578
   99OSM    H2S 9877   4.349   6.432  10.407  1.0993  1.4187  3.1031
   99OSM    C3S 9878   4.568   6.423  10.437  0.2698  0.3106 -0.2861
   99OSM    H3S 9879   4.645   6.359  10.485  0.0499 -1.0051 -1.6103
   99OSM     O3 9880   4.576   6.563  10.477 -0.6037  0.3032 -0.4399
   99OSM    HO3 9881   4.496   6.561  10.530 -0.5826 -1.2169 -0.4210
   99OSM    C4S 9882   4.605   6.427  10.290  0.3735  0.8088 -0.4614
   99OSM    H4S 9883   4.646   6.327  10.269 -1.3384 -0.4200  1.6183
   99OSM    C5S 9884   4.599   6.527  10.194 -0.6916  0.4341 -1.2948
   99OSM    H5S 9885   4.567   6.629  10.221 -1.5290  0.0138 -0.6347
   99OSM    C6S 9886   4.640   6.518  10.052 -0.2581 -0.0064  0.2348
   99OSM    H6S 9887   4.741   6.562  10.032 -0.3396 -0.3309 -0.9813
   99OSM    H6T 9888   4.574   6.582   9.990  1.2170  1.0662 -0.3120
   99OSM    C7S 9889   4.651   6.366  10.008 -0.6707  0.2333 -0.1673
   99OSM    H7S 9890   4.555   6.316  10.034 -0.6252 -0.6093 -1.5431
   99OSM    H7T 9891   4.732   6.316  10.066 -0.7275  0.7859  0.4095
   99OSM    C8S 9892   4.674   6.354   9.854 -0.0345  0.0054 -0.2618
   99OSM    H8S 9893   4.780   6.376   9.828  0.2194  0.5836  1.1892
   99OSM    H8T 9894   4.608   6.433   9.813  1.0980  2.5910  2.4977
   99OSM    C9S 9895   4.640   6.214   9.805 -0.2548  0.3055 -0.1391
   99OSM    H9S 9896   4.559   6.165   9.862 -0.8254  2.3130  0.8434
   99OSM    H9T 9897   4.732   6.151   9.807 -1.1192 -1.3814 -4.0095
   99OSM   C10S 9898   4.610   6.213   9.652 -0.0190  0.0267  0.5150
   99OSM   H10S 9899   4.536   6.286   9.611  0.6900 -0.4992 -1.8853
   99OSM   H10T 9900   4.567   6.118   9.613 -0.4662  1.1580 -1.9228
   99OSM   C11S 9901   4.742   6.234   9.570  0.5128 -0.4447  0.0379
   99OSM   H11S 9902   4.823   6.165   9.603  1.8089  0.3321 -1.4114
   99OSM   H11T 9903   4.765   6.338   9.601 -0.0204 -0.6683  1.2500
   99OSM   C12S 9904   4.723   6.207   9.420  0.6615  0.6087 -0.2293
   99OSM   H12S 9905   4.625   6.247   9.386  0.4096 -0.8082 -1.2958
   99OSM   H12T 9906   4.807   6.260   9.371  1.0504  1.6765  1.5329
   99OSM   C13S 9907   4.706   6.062   9.373 -0.3664  0.3690 -0.3606
   99OSM   H13S 9908   4.596   6.042   9.370 -0.7581  2.3540 -2.2038
   99OSM   H13T 9909   4.750   5.996   9.450 -2.1577  0.6442  0.9756
   99OSM   C14S 9910   4.773   6.038   9.241 -0.0371  0.2309  0.1410
   99OSM   H14S 9911   4.733   6.109   9.165 -0.3905 -0.4238 -0.2961
   99OSM   H14T 9912   4.749   5.935   9.208 -5.9080  0.6078  2.1091
   99OSM   C15S 9913   4.929   6.060   9.249  0.3519  0.3134  1.1906
   99OSM   H15S 9914   4.966   6.014   9.343  1.7154 -1.3670 -0.1132
   99OSM   H15T 9915   4.950   6.169   9.256 -0.8883  0.6384  0.2063
   99OSM   C16S 9916   4.997   5.991   9.131  0.4863  0.7012  0.2459
   99OSM   H16S 9917   4.970   6.056   9.046 -2.6767  0.2942  0.7908
   99OSM   H16T 9918   4.939   5.896   9.130 -0.1265  1.0415  1.1443
   99OSM   C17S 9919   5.145   5.984   9.148 -0.5119  0.4560 -0.1045
   99OSM   H17S 9920   5.172   5.935   9.244  0.6784  1.7455  0.2571
   99OSM   H17T 9921   5.198   6.081   9.144 -0.2261  0.2609 -1.4052
   99OSM   C18S 9922   5.210   5.887   9.045  0.6383 -0.3007  0.0027
   99OSM   H18S 9923   5.309   5.853   9.083  0.0058 -0.2591  1.8043
   99OSM   H18T 9924   5.199   5.948   8.954 -1.2072  0.4560  0.6874
   99OSM   H18U 9925   5.141   5.800   9.035 -0.3134  0.3879  0.4297
   99OSM    C1F 9926   4.281   6.190  10.363  0.2050 -0.1030  0.7572
   99OSM     OF 9927   4.169   6.239  10.381 -0.1490  0.3754  0.0847
   99OSM    C2F 9928   4.292   6.054  10.300 -0.0425 -0.1639 -0.1926
   99OSM    H2F 9929   4.244   5.973  10.359 -0.5775 -0.1295 -0.5706
   99OSM    H2G 9930   4.400   6.028  10.302  0.3320  1.3290 -0.0815
   99OSM    C3F 9931   4.234   6.049  10.163  0.9166 -0.0381  0.7970
   99OSM    H3F 9932   4.199   5.944  10.154 -0.1594  0.2037  1.8268
   99OSM    H3G 9933   4.129   6.087  10.166 -0.5859 -3.2941 -2.3079
   99OSM    C4F 9934   4.324   6.100  10.051 -0.3441 -0.4939  0.1038
   99OSM    H4F 9935   4.428   6.072  10.080  0.4819  2.7067  0.6046
   99OSM    H4G 9936   4.325   6.211  10.053  1.2327 -0.4046 -1.8447
   99OSM    C5F 9937   4.282   6.053   9.910 -0.1454 -0.6375 -0.1009
   99OSM    H5F 9938   4.302   5.943   9.907  0.3739 -0.5575  0.2513
   99OSM    H5G 9939   4.357   6.098   9.841  0.5293  0.6675  1.4185
   99OSM    C6F 9940   4.126   6.068   9.882 -1.0218 -0.4235  1.0865
   99OSM    H6F 9941   4.102   6.168   9.922 -1.5766 -0.7667  1.6306
   99OSM    H6G 9942   4.068   5.992   9.940 -3.3367 -0.2188 -0.8418
   99OSM    C7F 9943   4.088   6.046   9.729 -0.4323  0.3155 -0.4251
   99OSM    H7F 9944   4.103   5.936   9.721 -0.6581  0.2808 -0.3895
   99OSM    H7G 9945   4.158   6.092   9.656 -0.9595 -0.2930 -1.3302
   99OSM    C8F 9946   3.946   6.078   9.701 -0.3067  0.0456  0.8110
   99OSM    H8F 9947   3.878   6.036   9.778  0.8553  0.3257  2.0239
   99OSM    H8G 9948   3.907   6.020   9.614 -2.5639  0.6782  1.3339
   99OSM    C9F 9949   3.923   6.229   9.696 -0.1909  0.0720  0.1726
   99OSM    H9F 9950   3.977   6.288   9.771  0.0318  0.0921 -0.0031
   99OSM   C10F 9951   3.855   6.299   9.601 -0.3774 -0.1508  0.2851
   99OSM   H10F 9952   3.865   6.408   9.594 -0.8154 -0.1864 -1.1308
   99OSM   C11F 9953   3.788   6.243   9.478 -0.0035 -0.6832 -0.8907
   99OSM   H11F 9954   3.681   6.272   9.476  0.6690  2.1105 -0.3615
   99OSM   H11G 9955   3.794   6.132   9.478  2.0788 -0.6365  1.0158
   99OSM   C12F 9956   3.854   6.279   9.346  0.0702 -0.0612  0.5754
   99OSM   H12F 9957   3.955   6.232   9.337 -0.4215 -1.4205  1.7694
   99OSM   H12G 9958   3.865   6.389   9.349  0.7513 -0.1310  0.9837
   99OSM   C13F 9959   3.763   6.230   9.229 -0.5207 -0.1834 -0.1850
   99OSM   H13F 9960   3.665   6.281   9.225  0.4393  1.7734 -0.1340
   99OSM   H13G 9961   3.746   6.121   9.243  0.8579 -0.1760  2.1322
   99OSM   C14F 9962   3.812   6.249   9.089  0.3867 -0.4820  0.3099
   99OSM   H14F 9963   3.913   6.205   9.074  0.9949  0.7051  0.7297
   99OSM   H14G 9964   3.809   6.359   9.076 -0.7586 -0.4443  0.7641
   99OSM   C15F 9965   3.710   6.195   8.987  0.3748 -0.0606 -0.0363
   99OSM   H15F 9966   3.607   6.231   9.005  0.2521 -0.7490  0.6303
   99OSM   H15G 9967   3.710   6.084   8.993 -0.4129 -0.1000 -0.6325
   99OSM   C16F 9968   3.738   6.235   8.843 -0.0666  0.0426 -0.3297
   99OSM   H16F 9969   3.846   6.221   8.824  0.0523 -0.8361  0.8484
   99OSM   H16G 9970   3.719   6.343   8.830 -0.3875 -0.0066 -0.2958
   99OSM   C17F 9971   3.649   6.154   8.744 -0.3164 -0.0737 -0.2125
   99OSM   H17F 9972   3.542   6.173   8.770 -0.0815  0.3729  0.4528
   99OSM   H17G 9973   3.674   6.046   8.752 -1.6806 -0.3939  0.0729
   99OSM   C18F 9974   3.642   6.202   8.596  0.2023 -0.2885  0.2495
   99OSM   H18F 9975   3.738   6.188   8.542  0.0034  0.0254 -0.1932
   99OSM   H18G 9976   3.617   6.309   8.577  0.6267 -0.1796  0.2896
   99OSM   H18H 9977   3.563   6.143   8.546 -0.2560  0.2538  0.3208
  100OSM      N 9978   0.579   6.753  10.468  0.0007  0.0586  0.2537
  100OSM    C15 9979   0.688   6.851  10.494  0.2875  0.4843 -0.4605
  100OSM   H15A 9980   0.655   6.952  10.475  0.2283  0.5546  0.0017
  100OSM   H15B 9981   0.773   6.816  10.437  0.2434 -1.6694  0.7017
  100OSM   H15C 9982   0.721   6.837  10.596 -0.5604  0.8568 -0.1247
  100OSM    C14 9983   0.545   6.754  10.318  0.4186  0.1185 -0.5282
  100OSM   H14A 9984   0.637   6.730  10.266  2.0696  0.1301  2.1871
  100OSM   H14B 9985   0.497   6.842  10.278  2.7968  0.8175 -2.1310
  100OSM   H14C 9986   0.479   6.672  10.295 -5.2331  3.9313  0.1634
  100OSM    C13 9987   0.636   6.617  10.503 -0.5131 -0.4299  0.8894
  100OSM   H13A 9988   0.736   6.613  10.461 -1.3493  0.8017 -1.4626
  100OSM   H13B 9989   0.579   6.536  10.461 -0.0901 -0.7901  0.9998
  100OSM   H13C 9990   0.651   6.612  10.609  3.4144  1.9054  0.6378
  100OSM    C12 9991   0.458   6.796  10.552  0.4620 -0.2876 -0.0155
  100OSM   H12A 9992   0.370   6.743  10.517 -0.9654 -0.1670  3.0786
  100OSM   H12B 9993   0.430   6.899  10.537 -1.8574 -0.8421  0.1185
  100OSM    C11 9994   0.451   6.766  10.694  0.4576  0.8310 -0.6604
  100OSM   H11A 9995   0.378   6.834  10.743 -0.4353 -0.9684  0.6111
  100OSM   H11B 9996   0.542   6.775  10.757 -0.3059 -2.0687  1.0473
  100OSM      P 9997   0.257   6.579  10.716 -0.0177  0.3284  0.2956
  100OSM    O13 9998   0.268   6.434  10.728  0.6380 -0.5773  0.0376
  100OSM    O14 9999   0.201   6.658  10.829  0.1724 -0.3337 -0.3860
  100OSM    O1110000   0.184   6.610  10.581 -0.0752  0.2292  0.0167
  100OSM    O1210001   0.404   6.631  10.702 -0.0011 -0.2932 -0.3952
  100OSM    C1S10002   0.190   6.518  10.472 -0.1873  0.2583 -0.4767
  100OSM    H1S10003   0.174   6.413  10.507  1.5029  0.1637  0.1000
  100OSM    H1T10004   0.292   6.512  10.428  0.4054  0.6110  0.7995
  100OSM     NF10005   0.085   6.423  10.280  0.1341  0.1144 -0.0122
  100OSM    HNF10006   0.154   6.422  10.208  0.6182 -0.6800  0.4506
  100OSM    C2S10007   0.085   6.537  10.364  0.0351 -0.3983  0.1703
  100OSM    H2S10008  -0.014   6.550  10.413 -0.0095  2.5947 -0.4646
  100OSM    C3S10009   0.122   6.666  10.298 -0.0357  0.1842 -0.6317
  100OSM    H3S10010   0.225   6.658  10.260 -0.1313 -1.0971 -0.6486
  100OSM     O310011   0.133   6.779  10.382 -0.4701  0.1740 -0.2954
  100OSM    HO310012   0.128   6.747  10.473  0.4384  0.2526 -0.2081
  100OSM    C4S10013   0.029   6.703  10.188 -0.6765  0.3678  0.1531
  100OSM    H4S10014   0.045   6.647  10.095 -1.7595  1.7764 -0.9358
  100OSM    C5S10015  -0.059   6.805  10.178  0.1571  0.1021  0.3693
  100OSM    H5S10016  -0.082   6.863  10.268 -2.4316  0.1761 -0.2376
  100OSM    C6S10017  -0.149   6.813  10.058  0.5434 -0.4148  0.4905
  100OSM    H6S10018  -0.193   6.915  10.056  1.8968  0.3324  3.5095
  100OSM    H6T10019  -0.233   6.745  10.085  0.5571 -0.1814  1.1474
  100OSM    C7S10020  -0.090   6.772   9.918 -0.7137 -0.6940  0.6824
  100OSM    H7S10021  -0.062   6.665   9.926 -1.8409 -1.1256 -0.7096
  100OSM    H7T10022   0.003   6.830   9.904 -2.7706  2.5120 -0.9514
  100OSM    C8S10023  -0.167   6.797   9.785  0.6046 -0.1063 -0.1091
  100OSM    H8S10024  -0.197   6.904   9.782  0.9607 -0.0208 -1.0857
  100OSM    H8T10025  -0.260   6.739   9.771 -0.0125  1.1391 -1.4116
  100OSM    C9S10026  -0.088   6.768   9.662 -0.8551  0.2866  0.7040
  100OSM    H9S10027  -0.028   6.674   9.666 -0.1492  0.7472  1.2800
  100OSM    H9T10028  -0.008   6.840   9.638 -1.5029  1.0376  0.7728
  100OSM   C10S10029  -0.170   6.765   9.535 -0.4670 -0.3751 -0.1124
  100OSM   H10S10030  -0.226   6.860   9.528  0.3443  0.1176  0.0262
  100OSM   H10T10031  -0.250   6.687   9.531  0.1769 -1.0160 -2.9306
  100OSM   C11S10032  -0.084   6.745   9.398  0.4019 -0.3774  0.4858
  100OSM   H11S10033  -0.067   6.637   9.378  0.2653 -0.2664 -0.2333
  100OSM   H11T10034   0.006   6.810   9.397 -1.1090  1.9453 -2.6529
  100OSM   C12S10035  -0.185   6.782   9.281  0.0726 -0.4955 -0.7422
  100OSM   H12S10036  -0.218   6.884   9.309  1.1299 -0.2515 -0.3282
  100OSM   H12T10037  -0.280   6.724   9.280 -0.8472  0.9608 -2.2114
  100OSM   C13S10038  -0.125   6.793   9.140 -0.4810  0.2462 -0.1373
  100OSM   H13S10039  -0.107   6.693   9.095 -1.4676 -0.6461  1.3874
  100OSM   H13T10040  -0.027   6.844   9.150  0.0429 -1.0080  1.6958
  100OSM   C14S10041  -0.216   6.884   9.050 -0.4342 -0.4737 -0.2979
  100OSM   H14S10042  -0.233   6.981   9.101 -1.9175 -0.8524 -0.0259
  100OSM   H14T10043  -0.313   6.831   9.036 -1.4402  1.3851 -0.5858
  100OSM   C15S10044  -0.157   6.904   8.913  0.4051 -0.5900 -0.4292
  100OSM   H15S10045  -0.074   6.978   8.922 -0.3318  0.1933  0.2056
  100OSM   H15T10046  -0.237   6.956   8.855 -0.0916 -2.9245 -1.9611
  100OSM   C16S10047  -0.099   6.780   8.854  0.3772 -0.1887 -0.1944
  100OSM   H16S10048  -0.165   6.692   8.840  0.2503  0.2297 -2.5626
  100OSM   H16T10049  -0.014   6.752   8.921  2.8345  2.6197 -1.8782
  100OSM   C17S10050  -0.038   6.793   8.712 -0.2938 -0.1932 -0.4107
  100OSM   H17S10051   0.058   6.848   8.707  0.3365 -1.3530 -2.1812
  100OSM   H17T10052  -0.106   6.847   8.643 -1.3437  1.2491  1.6302
  100OSM   C18S10053  -0.004   6.661   8.645  0.6067 -0.6343 -0.5201
  100OSM   H18S10054  -0.093   6.595   8.633  0.0191 -0.6029  2.6172
  100OSM   H18T10055   0.079   6.612   8.700  1.5924  1.2431 -0.2370
  100OSM   H18U10056   0.045   6.683   8.548 -0.0399  0.1456 -0.6797
  100OSM    C1F10057   0.032   6.311  10.324 -0.6410  0.3944 -0.3350
  100OSM     OF10058  -0.052   6.311  10.416  0.9901  0.6736 -0.0577
  100OSM    C2F10059   0.082   6.191  10.257  0.5183  0.5230  0.1202
  100OSM    H2F10060   0.174   6.143  10.298 -0.1818  0.3270  1.5199
  100OSM    H2G10061   0.094   6.218  10.150 -2.0215  0.8069 -0.1694
  100OSM    C3F10062  -0.025   6.070  10.267 -0.8056 -0.4958 -0.0132
  100OSM    H3F10063  -0.128   6.094  10.234 -0.6579 -0.1314 -0.2156
  100OSM    H3G10064  -0.025   6.029  10.370  2.1502 -0.9089 -0.0877
  100OSM    C4F10065   0.031   5.949  10.193  0.0845  0.0530 -0.6402
  100OSM    H4F10066  -0.044   5.871  10.219 -0.3912  0.9133  0.6907
  100OSM    H4G10067   0.128   5.930  10.242  0.2336  3.8965  0.9535
  100OSM    C5F10068   0.061   5.973  10.046 -0.1454  0.2586 -1.0874
  100OSM    H5F10069   0.140   6.051  10.042  0.8620 -0.2000  3.8134
  100OSM    H5G10070  -0.031   6.002   9.989 -1.3721  0.7792  1.0438
  100OSM    C6F10071   0.113   5.843   9.984  0.6218 -0.5422 -0.4473
  100OSM    H6F10072   0.034   5.770  10.010 -0.3966  0.1047 -1.6085
  100OSM    H6G10073   0.207   5.808  10.031 -0.8071  0.9482  3.9623
  100OSM    C7F10074   0.113   5.850   9.828 -0.0081  0.0733 -0.4352
  100OSM    H7F10075   0.187   5.930   9.805 -0.6348  0.9753  0.6007
  100OSM    H7G10076   0.025   5.907   9.792 -0.5224 -0.8127 -0.6200
  100OSM    C8F10077   0.115   5.712   9.751 -0.6313  0.2452  0.1257
  100OSM    H8F10078   0.122   5.736   9.642 -0.9580 -0.5394 -0.0749
  100OSM    H8G10079   0.020   5.655   9.764 -0.1334 -0.0479  2.9972
  100OSM    C9F10080   0.229   5.623   9.797  0.4613 -0.0220  0.8832
  100OSM    H9F10081   0.256   5.644   9.901 -0.6167  3.0328  0.6428
  100OSM   C10F10082   0.304   5.544   9.710  0.8939 -0.2930 -0.2462
  100OSM   H10F10083   0.385   5.477   9.743  0.2081 -1.0187 -0.0163
  100OSM   C11F10084   0.287   5.526   9.564  0.5345 -0.0432 -0.3710
  100OSM   H11F10085   0.387   5.511   9.520  0.6456 -0.6078  0.0597
  100OSM   H11G10086   0.250   5.621   9.518 -1.7552 -1.2866 -1.2839
  100OSM   C12F10087   0.208   5.398   9.532 -0.0682 -0.4267 -0.3776
  100OSM   H12F10088   0.121   5.401   9.601 -0.6322  4.4647 -0.9112
  100OSM   H12G10089   0.271   5.308   9.551 -0.5101 -0.5014  0.8118
  100OSM   C13F10090   0.164   5.404   9.375 -0.5033 -0.3848 -0.2138
  100OSM   H13F10091   0.246   5.398   9.301 -1.2097  0.6637 -1.1239
  100OSM   H13G10092   0.114   5.504   9.371 -1.3811 -0.8060 -0.0783
  100OSM   C14F10093   0.070   5.298   9.347 -0.1803  0.2503  0.0405
  100OSM   H14F10094   0.015   5.301   9.250  0.6450 -0.7018 -0.4865
  100OSM   H14G10095  -0.019   5.310   9.412 -1.9306 -1.3980 -1.8757
  100OSM   C15F10096   0.117   5.148   9.367  0.1904 -0.9465 -0.5511
  100OSM   H15F10097   0.145   5.159   9.474  0.2530  3.1542 -0.8123
  100OSM   H15G10098   0.213   5.126   9.315 -0.2020 -0.2418 -1.6116
  100OSM   C16F10099   0.015   5.037   9.342 -0.4009 -0.0215  0.1098
  100OSM   H16F10100  -0.077   5.064   9.398  0.3454  3.2915 -0.0884
  100OSM   H16G10101   0.060   4.947   9.390 -0.3860 -1.9309 -3.1987
  100OSM   C17F10102  -0.011   5.006   9.198  0.7704  0.8642 -0.2691
  100OSM   H17F10103  -0.031   5.105   9.153 -0.0227 -0.3424 -2.7387
  100OSM   H17G10104  -0.106   4.949   9.196 -0.2622  2.2840  2.3665
  100OSM   C18F10105   0.106   4.938   9.120 -0.6554  0.2866  0.2930
  100OSM   H18F10106   0.197   5.000   9.137  0.0912 -0.2750 -1.3943
  100OSM   H18G10107   0.086   4.949   9.011 -0.5592  0.4606  0.2918
  100OSM   H18H10108   0.120   4.833   9.154  0.2659  0.5591  0.7900
  101OSM      N10109   4.061   5.245  10.933 -0.2848  1.1230 -0.2857
  101OSM    C1510110   4.062   5.370  11.015 -0.1593  0.1047  0.2968
  101OSM   H15A10111   4.028   5.450  10.951  0.2186 -1.1306 -1.5459
  101OSM   H15B10112   4.165   5.392  11.038 -0.0025  0.9206 -1.0616
  101OSM   H15C10113   3.996   5.359  11.100  0.5193 -2.0131  0.6190
  101OSM    C1410114   4.153   5.271  10.820 -0.3393 -0.2207 -0.2854
  101OSM   H14A10115   4.153   5.189  10.750 -0.9488  0.1354 -0.7076
  101OSM   H14B10116   4.252   5.289  10.859 -0.3558 -1.4673  0.3857
  101OSM   H14C10117   4.113   5.355  10.765  0.2698  0.0100 -0.3916
  101OSM    C1310118   4.126   5.133  11.026  1.4262  0.1971 -0.1059
  101OSM   H13A10119   4.161   5.057  10.958 -0.3642  0.0727 -0.9414
  101OSM   H13B10120   4.051   5.107  11.099  1.4988 -0.4924 -0.2709
  101OSM   H13C10121   4.212   5.174  11.077  2.3538 -2.1240  0.3329
  101OSM    C1210122   3.920   5.211  10.888 -0.2081 -0.7316  0.1203
  101OSM   H12A10123   3.856   5.201  10.974 -0.1564 -0.9407  0.1364
  101OSM   H12B10124   3.923   5.114  10.840  1.0035 -0.4257 -0.4688
  101OSM    C1110125   3.862   5.316  10.782 -0.3414 -0.3462 -0.5271
  101OSM   H11A10126   3.762   5.278  10.749 -1.4560  1.2593  0.8451
  101OSM   H11B10127   3.931   5.327  10.696 -0.5068  1.8120 -0.4412
  101OSM      P10128   3.703   5.493  10.884 -0.0524  0.2810 -0.1879
  101OSM    O1310129   3.639   5.382  10.955 -0.0095  0.6993 -0.6388
  101OSM    O1410130   3.717   5.622  10.962 -0.6588 -0.1407  0.0867
  101OSM    O1110131   3.629   5.525  10.743  0.3760 -0.4383  0.5262
  101OSM    O1210132   3.853   5.448  10.836  0.5219 -0.1228 -0.5968
  101OSM    C1S10133   3.670   5.654  10.682 -0.1156 -0.2952  0.1155
  101OSM    H1S10134   3.766   5.630  10.633 -1.3574 -1.9134 -1.6617
  101OSM    H1T10135   3.670   5.738  10.755 -1.5515 -0.3266  0.1978
  101OSM     NF10136   3.645   5.811  10.493  0.0091 -0.1518  0.1434
  101OSM    HNF10137   3.622   5.908  10.499  2.3080  0.7030 -2.4077
  101OSM    C2S10138   3.575   5.700  10.565  0.1717 -0.1566 -0.0228
  101OSM    H2S10139   3.560   5.611  10.500 -0.5396 -0.8595  1.0701
  101OSM    C3S10140   3.437   5.740  10.613  0.3288  0.3114  0.3768
  101OSM    H3S10141   3.440   5.834  10.672  0.2973 -0.1908  1.1985
  101OSM     O310142   3.378   5.649  10.708  0.2789 -0.4955 -0.7529
  101OSM    HO310143   3.450   5.587  10.721 -0.2081 -0.9960 -0.4169
  101OSM    C4S10144   3.345   5.755  10.498  0.7015 -0.1426  0.1168
  101OSM    H4S10145   3.329   5.661  10.444  0.9151 -0.1299  0.0287
  101OSM    C5S10146   3.262   5.862  10.482 -0.5206  0.0730  0.2544
  101OSM    H5S10147   3.269   5.948  10.550 -1.9357  0.5912 -0.2191
  101OSM    C6S10148   3.150   5.871  10.388 -0.2169  0.1931 -0.0700
  101OSM    H6S10149   3.135   5.977  10.359 -0.6773  0.3305  0.6539
  101OSM    H6T10150   3.058   5.853  10.449 -0.8949 -1.1897 -1.4020
  101OSM    C7S10151   3.154   5.780  10.270  0.1160  0.1787 -0.2651
  101OSM    H7S10152   3.257   5.769  10.229 -0.0854 -3.2201 -0.0858
  101OSM    H7T10153   3.097   5.835  10.192 -0.5458 -0.3379 -0.1452
  101OSM    C8S10154   3.081   5.646  10.290 -0.5546  0.2257 -0.2949
  101OSM    H8S10155   2.974   5.671  10.306 -0.9090 -0.5025 -1.4071
  101OSM    H8T10156   3.105   5.595  10.386 -1.2555 -0.5118 -0.5040
  101OSM    C9S10157   3.099   5.540  10.182  0.0764 -0.1167 -0.0600
  101OSM    H9S10158   3.202   5.500  10.165 -0.8820 -2.1347 -1.4834
  101OSM    H9T10159   3.073   5.591  10.087  1.1750 -3.8610 -2.5934
  101OSM   C10S10160   3.001   5.425  10.188 -0.4507  0.7208 -0.4182
  101OSM   H10S10161   2.903   5.477  10.192  0.6441  3.0717 -2.0661
  101OSM   H10T10162   3.017   5.374  10.286  1.7390 -0.7138 -1.4637
  101OSM   C11S10163   3.007   5.324  10.072 -0.0621 -0.2428  0.4601
  101OSM   H11S10164   2.938   5.242  10.102  0.6663 -0.8323  0.5501
  101OSM   H11T10165   3.110   5.283  10.064 -0.1754 -0.3231 -0.7514
  101OSM   C12S10166   2.966   5.386   9.942  0.4756  0.1346 -0.0577
  101OSM   H12S10167   3.028   5.469   9.903  0.3183  0.0943 -0.4032
  101OSM   H12T10168   2.863   5.429   9.948 -0.3255 -1.8175  1.5520
  101OSM   C13S10169   2.959   5.275   9.835 -0.1321  0.7851  0.2393
  101OSM   H13S10170   2.893   5.191   9.864  1.4855 -1.0933 -1.2252
  101OSM   H13T10171   3.058   5.231   9.808 -0.5832  1.0685 -2.0519
  101OSM   C14S10172   2.912   5.333   9.695  0.2625  0.2707 -0.3722
  101OSM   H14S10173   2.981   5.418   9.675  0.5126  0.5793  1.5512
  101OSM   H14T10174   2.816   5.385   9.713 -0.1391 -0.5746 -0.0472
  101OSM   C15S10175   2.889   5.238   9.575 -0.0657  0.2836 -0.6433
  101OSM   H15S10176   2.814   5.173   9.624  1.5226 -0.5080  0.8280
  101OSM   H15T10177   2.978   5.179   9.546  0.2300 -0.6011  1.8813
  101OSM   C16S10178   2.843   5.313   9.451 -0.2382  0.3995  0.7787
  101OSM   H16S10179   2.925   5.377   9.413  0.5209 -1.8553 -1.6695
  101OSM   H16T10180   2.748   5.370   9.462 -0.3107  1.3125 -3.0312
  101OSM   C17S10181   2.824   5.216   9.330 -0.4810  0.3583 -0.1372
  101OSM   H17S10182   2.747   5.140   9.357  0.2134  0.1288  1.2741
  101OSM   H17T10183   2.915   5.153   9.332 -0.2300  0.4509 -3.3004
  101OSM   C18S10184   2.793   5.271   9.189  0.6115 -0.4939  0.5164
  101OSM   H18S10185   2.683   5.283   9.179  0.7887  0.6512 -0.2316
  101OSM   H18T10186   2.818   5.187   9.121 -0.6239 -3.9418  3.9073
  101OSM   H18U10187   2.844   5.363   9.155 -2.4144  1.3705  0.5933
  101OSM    C1F10188   3.746   5.780  10.421 -0.2243  0.4421 -0.4256
  101OSM     OF10189   3.764   5.666  10.391 -0.1998  0.5587  1.0037
  101OSM    C2F10190   3.833   5.890  10.375 -0.0929 -0.6825  0.7782
  101OSM    H2F10191   3.942   5.878  10.395  0.3622  1.5478 -0.0599
  101OSM    H2G10192   3.803   5.986  10.421 -0.6771 -0.4417 -0.0787
  101OSM    C3F10193   3.817   5.896  10.223 -0.1838 -0.5798 -0.1161
  101OSM    H3F10194   3.865   5.804  10.184  1.4655 -0.3061  1.1164
  101OSM    H3G10195   3.883   5.980  10.191 -0.7668  0.2833  0.8986
  101OSM    C4F10196   3.678   5.920  10.167 -0.1017 -0.0977  0.0807
  101OSM    H4F10197   3.649   6.025  10.190  1.1948  0.4373 -0.6384
  101OSM    H4G10198   3.594   5.860  10.210 -0.7968  1.7026  1.3877
  101OSM    C5F10199   3.683   5.918  10.012 -0.0434  0.0485  0.1777
  101OSM    H5F10200   3.758   5.849   9.967  0.7219  0.5826  0.6159
  101OSM    H5G10201   3.729   6.015   9.986  4.5642 -1.5619  1.3041
  101OSM    C6F10202   3.548   5.893   9.943  0.4045  0.0804  0.5591
  101OSM    H6F10203   3.473   5.959   9.990 -0.7329  0.5341 -1.7577
  101OSM    H6G10204   3.560   5.918   9.835 -3.7573  2.0835  0.3867
  101OSM    C7F10205   3.495   5.748   9.954 -0.0278  0.0240  0.2019
  101OSM    H7F10206   3.487   5.718  10.060  0.8461 -1.5934 -0.1530
  101OSM    H7G10207   3.564   5.684   9.896 -0.6070 -0.9178  0.5236
  101OSM    C8F10208   3.350   5.744   9.886  0.0060 -0.9005 -0.2720
  101OSM    H8F10209   3.351   5.798   9.789  1.3202 -0.3651  0.0266
  101OSM    H8G10210   3.271   5.796   9.946 -1.7780 -0.1470 -3.0593
  101OSM    C9F10211   3.322   5.601   9.869  0.0992 -0.4094 -0.0760
  101OSM    H9F10212   3.304   5.544   9.961 -2.8894  0.8161  0.2244
  101OSM   C10F10213   3.294   5.538   9.758  0.0569  0.2120 -0.4825
  101OSM   H10F10214   3.262   5.433   9.766 -1.2152  0.7063  1.8196
  101OSM   C11F10215   3.285   5.596   9.620 -0.4183  0.0185  0.1205
  101OSM   H11F10216   3.386   5.576   9.578 -0.3513 -3.2380  1.5478
  101OSM   H11G10217   3.264   5.705   9.626 -0.4532  0.1613 -1.8699
  101OSM   C12F10218   3.199   5.533   9.513 -0.2195 -0.1839  0.1115
  101OSM   H12F10219   3.098   5.571   9.540 -0.8061 -0.8809 -1.0216
  101OSM   H12G10220   3.202   5.422   9.518 -2.4137 -0.3732 -1.1640
  101OSM   C13F10221   3.221   5.588   9.372  0.4013 -0.0551 -0.7527
  101OSM   H13F10222   3.328   5.582   9.341  0.9479  0.6278  0.9388
  101OSM   H13G10223   3.193   5.694   9.387  0.9417 -0.1125  0.8010
  101OSM   C14F10224   3.132   5.526   9.265  0.0162 -0.0522  0.4300
  101OSM   H14F10225   3.024   5.545   9.284 -0.2873 -1.3060  0.0133
  101OSM   H14G10226   3.142   5.416   9.274  1.4981 -0.1226 -1.5261
  101OSM   C15F10227   3.169   5.553   9.121  0.4752 -0.2395  0.5065
  101OSM   H15F10228   3.274   5.518   9.110  0.7544  0.5354  0.6765
  101OSM   H15G10229   3.169   5.662   9.102  1.5102 -0.0407  1.5221
  101OSM   C16F10230   3.085   5.503   9.006 -0.7480  0.5343 -0.4016
  101OSM   H16F10231   2.995   5.567   8.995 -0.7176  0.3960 -1.5672
  101OSM   H16G10232   3.047   5.403   9.039 -2.7355  0.6070 -2.2630
  101OSM   C17F10233   3.159   5.485   8.865  0.1953 -0.4799 -0.3104
  101OSM   H17F10234   3.250   5.422   8.876 -0.0791 -0.7851  0.2721
  101OSM   H17G10235   3.190   5.587   8.835  0.1319 -0.0498  1.0316
  101OSM   C18F10236   3.060   5.431   8.758  0.3676  0.0211 -0.3546
  101OSM   H18F10237   3.063   5.320   8.762 -1.6601 -0.1116 -1.4840
  101OSM   H18G10238   3.100   5.462   8.659 -0.3580  0.4012 -0.5346
  101OSM   H18H10239   2.964   5.477   8.787  0.0487  0.4414 -1.9748
  102OSM      N10240   0.235   1.355  10.735 -0.0153  0.2250  0.0569
  102OSM    C1510241   0.110   1.384  10.812 -0.4138 -0.6838 -0.1229
  102OSM   H15A10242   0.028   1.406  10.745  1.0258 -1.3404 -2.1841
  102OSM   H15B10243   0.127   1.475  10.868  2.0587 -1.2438  0.1382
  102OSM   H15C10244   0.081   1.300  10.874 -1.1881 -0.5111 -0.2365
  102OSM    C1410245   0.283   1.481  10.668 -0.2887 -0.6794 -0.2566
  102OSM   H14A10246   0.213   1.515  10.593 -1.0700 -0.5739  0.5067
  102OSM   H14B10247   0.373   1.450  10.618 -0.2806 -0.2468 -0.5172
  102OSM   H14C10248   0.307   1.561  10.737 -1.5835 -2.4834  2.4381
  102OSM    C1310249   0.333   1.302  10.839 -0.4071 -0.3099 -0.1803
  102OSM   H13A10250   0.283   1.212  10.869 -0.3437  0.1731  1.4375
  102OSM   H13B10251   0.338   1.372  10.921  0.2033 -1.6454  0.9569
  102OSM   H13C10252   0.431   1.279  10.801 -0.3391  0.9071 -0.8021
  102OSM    C1210253   0.207   1.249  10.624 -0.0020  0.7826 -0.1550
  102OSM   H12A10254   0.172   1.169  10.688  1.1288  0.4771  0.1177
  102OSM   H12B10255   0.300   1.216  10.581 -1.2711 -1.0878 -1.6123
  102OSM    C1110256   0.107   1.279  10.514 -0.3447 -0.2495 -0.4987
  102OSM   H11A10257   0.124   1.199  10.439 -0.0669 -0.8161  0.1584
  102OSM   H11B10258   0.126   1.377  10.465 -0.4483 -0.4713 -0.9868
  102OSM      P10259  -0.105   1.149  10.611  0.4638 -0.4459  0.2242
  102OSM    O1310260  -0.003   1.058  10.666  0.4505 -0.2920  0.1131
  102OSM    O1410261  -0.222   1.182  10.693 -0.0127  0.1294 -0.8758
  102OSM    O1110262  -0.170   1.075  10.481 -0.3917  0.0169  0.1456
  102OSM    O1210263  -0.029   1.273  10.565  0.1611  0.1216  0.3083
  102OSM    C1S10264  -0.217   1.169  10.379  0.3078  0.4173 -0.7191
  102OSM    H1S10265  -0.221   1.276  10.408  1.0717  0.7208 -1.6514
  102OSM    H1T10266  -0.317   1.131  10.349  0.9323 -0.0848 -2.3108
  102OSM     NF10267  -0.191   1.247  10.154 -0.1794 -0.9239  0.1819
  102OSM    HNF10268  -0.276   1.223  10.107  1.2267  0.5515 -3.4227
  102OSM    C2S10269  -0.140   1.148  10.242  0.4928 -0.5532  0.1672
  102OSM    H2S10270  -0.030   1.155  10.259  0.5439 -2.6108  1.0428
  102OSM    C3S10271  -0.172   1.004  10.181 -0.0532 -0.1255 -0.2246
  102OSM    H3S10272  -0.282   1.002  10.164 -0.5291 -0.8123  2.3922
  102OSM     O310273  -0.142   0.903  10.277  0.0159  0.0860 -0.1407
  102OSM    HO310274  -0.125   0.947  10.361  0.4289 -0.2921 -0.0205
  102OSM    C4S10275  -0.097   0.989  10.055 -0.5234  0.8558 -0.0000
  102OSM    H4S10276  -0.131   1.048   9.969  2.6415 -0.2715 -2.2371
  102OSM    C5S10277   0.016   0.908  10.040  0.2965 -0.5951  0.3069
  102OSM    H5S10278   0.069   0.867  10.127 -0.6212 -2.2577  0.1241
  102OSM    C6S10279   0.099   0.889   9.917 -0.3836  0.0978  0.2270
  102OSM    H6S10280   0.145   0.788   9.926 -0.7932 -0.1471 -0.3935
  102OSM    H6T10281   0.177   0.968   9.911 -0.2784 -0.0475 -0.3925
  102OSM    C7S10282   0.019   0.884   9.792  0.1931  0.2937  0.0356
  102OSM    H7S10283  -0.022   0.985   9.768 -1.3242  0.1164  1.6726
  102OSM    H7T10284  -0.062   0.809   9.797  2.3180 -2.2221 -0.9582
  102OSM    C8S10285   0.099   0.845   9.679  0.2267  0.7574  0.1951
  102OSM    H8S10286   0.137   0.740   9.681  1.1757  1.0486 -1.0553
  102OSM    H8T10287   0.196   0.898   9.670  0.5562  0.0890 -0.2958
  102OSM    C9S10288   0.032   0.864   9.545  0.5198 -0.0132  0.3385
  102OSM    H9S10289  -0.037   0.951   9.555  0.4157 -0.1509  0.8832
  102OSM    H9T10290  -0.017   0.770   9.513  1.0832  0.4012 -1.8799
  102OSM   C10S10291   0.131   0.917   9.432  0.2600  0.5457  0.1916
  102OSM   H10S10292   0.214   0.842   9.424 -0.5108 -0.2712 -0.4054
  102OSM   H10T10293   0.171   1.018   9.454 -1.6658  0.9929  1.7795
  102OSM   C11S10294   0.052   0.935   9.297  0.0217 -0.1076 -0.2139
  102OSM   H11S10295  -0.000   1.032   9.306  0.8354  0.1701  2.1550
  102OSM   H11T10296  -0.033   0.862   9.292  2.4972 -3.2602  0.3320
  102OSM   C12S10297   0.134   0.948   9.169  0.8708  0.6592  0.2607
  102OSM   H12S10298   0.208   0.865   9.177 -0.1116 -0.0406  3.0334
  102OSM   H12T10299   0.175   1.051   9.165 -0.9578  1.5125  1.9422
  102OSM   C13S10300   0.047   0.937   9.036  0.2502 -0.2058 -0.3023
  102OSM   H13S10301  -0.027   1.019   9.031 -0.7480 -1.0911 -0.3030
  102OSM   H13T10302  -0.015   0.845   9.034 -0.1038  0.0251  0.0053
  102OSM   C14S10303   0.136   0.954   8.910 -0.5144  0.0609 -0.5808
  102OSM   H14S10304   0.221   0.882   8.912 -0.5856 -0.0157 -0.2861
  102OSM   H14T10305   0.182   1.055   8.918 -0.6547  0.0639  0.3086
  102OSM   C15S10306   0.062   0.930   8.785  0.8833  0.5624 -0.0103
  102OSM   H15S10307  -0.031   0.989   8.796 -0.2285 -1.3441  1.7034
  102OSM   H15T10308   0.047   0.821   8.771 -0.2585  0.5026  1.3870
  102OSM   C16S10309   0.141   0.971   8.667  0.8609 -1.1399  0.4722
  102OSM   H16S10310   0.229   0.907   8.645  1.9093  1.2290 -2.9465
  102OSM   H16T10311   0.162   1.080   8.677 -0.8298 -0.6249 -1.0208
  102OSM   C17S10312   0.052   0.960   8.535 -1.3920 -0.4709 -0.0658
  102OSM   H17S10313  -0.039   1.017   8.564 -1.9110 -0.3361 -1.8575
  102OSM   H17T10314   0.028   0.856   8.503  0.9986 -0.8999 -0.6396
  102OSM   C18S10315   0.124   1.031   8.429 -0.0687  0.2635  0.4878
  102OSM   H18S10316   0.224   0.986   8.410 -1.0743 -1.5387 -0.9399
  102OSM   H18T10317   0.151   1.135   8.457 -0.3574  0.7707 -0.9931
  102OSM   H18U10318   0.072   1.028   8.331  0.5470 -0.4817  0.1731
  102OSM    C1F10319  -0.166   1.379  10.160  0.0904  0.7231 -0.5506
  102OSM     OF10320  -0.090   1.428  10.242 -0.7546  0.1872  0.8125
  102OSM    C2F10321  -0.245   1.472  10.067  0.4573 -0.4306 -0.4321
  102OSM    H2F10322  -0.355   1.456  10.074  0.1452  1.5088 -0.1108
  102OSM    H2G10323  -0.229   1.440   9.962 -1.6843 -0.3605 -0.8318
  102OSM    C3F10324  -0.219   1.621  10.104  0.3526 -1.2943  0.4175
  102OSM    H3F10325  -0.110   1.637  10.090 -0.1104  0.3362 -1.9206
  102OSM    H3G10326  -0.245   1.644  10.209  0.5724  0.7404  0.0596
  102OSM    C4F10327  -0.291   1.718  10.008  0.2801  0.8024  0.2184
  102OSM    H4F10328  -0.279   1.821  10.048 -0.0397  0.9132  0.0371
  102OSM    H4G10329  -0.402   1.708  10.011  0.3356 -1.2448 -1.6342
  102OSM    C5F10330  -0.237   1.702   9.867  0.3731 -0.3738  0.5985
  102OSM    H5F10331  -0.297   1.626   9.813 -1.2472  0.5847  0.9841
  102OSM    H5G10332  -0.133   1.666   9.856  0.2398 -0.5580 -0.1617
  102OSM    C6F10333  -0.251   1.824   9.777  0.5591  0.0737  0.0915
  102OSM    H6F10334  -0.202   1.904   9.836  0.6156  0.0613  0.0607
  102OSM    H6G10335  -0.359   1.850   9.772  0.3145 -1.0773 -0.9982
  102OSM    C7F10336  -0.184   1.794   9.643  0.6508 -0.9149 -0.2844
  102OSM    H7F10337  -0.234   1.706   9.597  3.2686 -1.4989 -2.2795
  102OSM    H7G10338  -0.075   1.785   9.665  1.4281  3.4125 -1.3015
  102OSM    C8F10339  -0.192   1.915   9.551  0.3099 -0.6075  0.4703
  102OSM    H8F10340  -0.138   2.002   9.594  0.9246 -0.2096 -1.0400
  102OSM    H8G10341  -0.302   1.923   9.540  0.5824 -0.4574 -3.1686
  102OSM    C9F10342  -0.145   1.885   9.410  0.0190  0.4322  0.9851
  102OSM    H9F10343  -0.082   1.795   9.404  1.4329  1.3735  1.0467
  102OSM   C10F10344  -0.167   1.949   9.291  0.4395 -0.0275 -0.2989
  102OSM   H10F10345  -0.126   1.908   9.198  0.2794 -0.9450  0.0244
  102OSM   C11F10346  -0.261   2.072   9.280  0.0142 -0.3975  0.3772
  102OSM   H11F10347  -0.279   2.127   9.374 -0.8810 -1.0537  0.5974
  102OSM   H11G10348  -0.356   2.027   9.245  1.1939 -0.9408 -2.4823
  102OSM   C12F10349  -0.218   2.171   9.165  0.3428  0.1665 -0.3733
  102OSM   H12F10350  -0.187   2.126   9.069  0.7300 -0.5818  0.0958
  102OSM   H12G10351  -0.127   2.222   9.202 -0.6275  1.2823  0.5606
  102OSM   C13F10352  -0.332   2.273   9.128  0.5385  0.1706 -0.0383
  102OSM   H13F10353  -0.359   2.327   9.222 -0.7782  1.9337 -1.3464
  102OSM   H13G10354  -0.420   2.209   9.104 -0.0771  0.0800  2.2028
  102OSM   C14F10355  -0.293   2.354   9.000  0.2993 -0.4773  0.0751
  102OSM   H14F10356  -0.294   2.275   8.921  1.3854 -0.7190  0.2826
  102OSM   H14G10357  -0.191   2.399   8.995 -0.7755  1.9615 -1.6889
  102OSM   C15F10358  -0.397   2.461   8.953 -0.0354  0.3257 -0.0162
  102OSM   H15F10359  -0.405   2.533   9.038 -2.0408  0.5830 -0.3610
  102OSM   H15G10360  -0.492   2.409   8.927  0.8221  0.5115 -4.0968
  102OSM   C16F10361  -0.363   2.541   8.821 -0.1031  0.5640 -0.2817
  102OSM   H16F10362  -0.280   2.615   8.825 -1.1235  1.6969  2.2746
  102OSM   H16G10363  -0.458   2.592   8.794 -0.7051 -0.3485  0.0265
  102OSM   C17F10364  -0.329   2.454   8.704 -0.1275 -0.0569  0.4353
  102OSM   H17F10365  -0.414   2.393   8.667  0.7761 -0.3018 -1.3357
  102OSM   H17G10366  -0.268   2.373   8.750 -3.2199 -0.7315  3.7643
  102OSM   C18F10367  -0.281   2.519   8.576 -0.1932 -0.0475 -0.2745
  102OSM   H18F10368  -0.361   2.579   8.530  0.4283 -0.5197 -2.0656
  102OSM   H18G10369  -0.258   2.439   8.503 -0.1916 -1.0712  0.8017
  102OSM   H18H10370  -0.191   2.581   8.594  0.7073 -0.5857 -2.5507
  103OSM      N10371   5.706   5.600  10.984  0.4027 -0.9460 -1.0405
  103OSM    C1510372   5.618   5.489  10.957  0.7349 -0.4864  0.2562
  103OSM   H15A10373   5.583   5.443  11.048  0.0841  1.3906  0.9942
  103OSM   H15B10374   5.678   5.410  10.914 -0.1477  0.1917 -2.3873
  103OSM   H15C10375   5.544   5.508  10.880 -0.6202 -2.5542  0.9629
  103OSM    C1410376   5.624   5.724  11.015  0.9539 -0.4137 -0.1276
  103OSM   H14A10377   5.579   5.756  10.922  0.9259 -0.7182 -0.2194
  103OSM   H14B10378   5.682   5.805  11.058 -1.0449  0.9724  0.1151
  103OSM   H14C10379   5.544   5.704  11.084  2.0897  2.1721  2.1037
  103OSM    C1310380   5.795   5.573  11.097 -0.0257  0.4013  0.5445
  103OSM   H13A10381   5.842   5.476  11.089  0.1767  0.5951 -1.2239
  103OSM   H13B10382   5.749   5.578  11.194  0.4636  1.3828  0.7363
  103OSM   H13C10383   5.870   5.650  11.104  0.0974  0.4159 -0.6061
  103OSM    C1210384   5.793   5.620  10.864  0.5307  0.0806  0.6437
  103OSM   H12A10385   5.838   5.526  10.836  0.0323 -0.2457  0.9287
  103OSM   H12B10386   5.872   5.689  10.892  0.7031  1.1048 -2.0018
  103OSM    C1110387   5.745   5.685  10.737 -0.2634 -0.8267 -0.7482
  103OSM   H11A10388   5.658   5.626  10.698 -1.4063  0.9516 -0.9985
  103OSM   H11B10389   5.824   5.687  10.659  0.8077  1.9070  0.2868
  103OSM      P10390   5.774   5.956  10.740  0.2571 -0.4072  0.3158
  103OSM    O1310391   5.669   6.059  10.751 -0.2504 -0.5846 -0.0989
  103OSM    O1410392   5.885   5.971  10.836  0.2318  0.2707  0.1573
  103OSM    O1110393   5.822   5.944  10.589 -0.1595  0.6506  0.3677
  103OSM    O1210394   5.695   5.817  10.761  0.0636 -0.3004 -0.0590
  103OSM    C1S10395   5.724   5.934  10.480  0.1731  0.1774 -0.1288
  103OSM    H1S10396   5.658   6.024  10.478 -1.4739 -0.9031  1.6033
  103OSM    H1T10397   5.658   5.845  10.480 -1.2057  1.1535 -1.3887
  103OSM     NF10398   5.689   5.938  10.236 -0.6608  0.3584  0.2379
  103OSM    HNF10399   5.622   5.865  10.230  0.1382 -0.3530 -0.3359
  103OSM    C2S10400   5.792   5.922  10.341 -0.4184 -0.3336  0.6658
  103OSM    H2S10401   5.866   6.005  10.338 -1.0877  0.2722  0.7366
  103OSM    C3S10402   5.874   5.792  10.337 -0.5635 -0.1967  0.4514
  103OSM    H3S10403   5.802   5.708  10.348 -1.9169  0.9895  0.9639
  103OSM     O310404   5.958   5.762  10.447  1.1330  0.3695  0.6351
  103OSM    HO310405   5.908   5.804  10.517  1.6737 -1.4800  2.2214
  103OSM    C4S10406   5.956   5.781  10.210  0.0946  0.0380 -0.1204
  103OSM    H4S10407   6.016   5.869  10.181 -1.2845  1.1935  0.3968
  103OSM    C5S10408   5.976   5.684  10.125  0.6456  0.0282 -0.1081
  103OSM    H5S10409   5.915   5.592  10.123 -1.6487  1.4540 -0.2615
  103OSM    C6S10410   6.070   5.704  10.008 -0.0991  0.1105 -0.3153
  103OSM    H6S10411   6.173   5.662  10.016 -0.6475 -0.9697  1.8333
  103OSM    H6T10412   6.081   5.810   9.976 -1.6155  0.4622  0.2217
  103OSM    C7S10413   6.005   5.640   9.876 -0.6395 -0.4978 -0.2663
  103OSM    H7S10414   5.903   5.685   9.877  0.2671  1.8214 -2.1638
  103OSM    H7T10415   6.002   5.529   9.884  0.7324 -0.4271  2.6004
  103OSM    C8S10416   6.086   5.681   9.752  0.1513  0.1010 -0.6794
  103OSM    H8S10417   6.189   5.647   9.776  0.4655  0.1121 -1.9687
  103OSM    H8T10418   6.096   5.791   9.742  0.7518 -0.0952 -2.7168
  103OSM    C9S10419   6.028   5.628   9.622  0.2540  0.0149 -0.2489
  103OSM    H9S10420   5.920   5.651   9.611  0.0142  0.1774  2.0741
  103OSM    H9T10421   6.038   5.517   9.624 -2.3644 -0.2865  0.2819
  103OSM   C10S10422   6.093   5.688   9.498  0.1036 -0.1135  0.3642
  103OSM   H10S10423   6.198   5.714   9.524  0.4834  0.0693 -1.2374
  103OSM   H10T10424   6.033   5.782   9.491 -0.5239 -0.4130  1.5127
  103OSM   C11S10425   6.090   5.605   9.361  0.5168  1.1064 -0.4924
  103OSM   H11S10426   5.988   5.571   9.333  1.2755 -1.2726 -0.5577
  103OSM   H11T10427   6.134   5.504   9.379  0.0216  0.8757 -0.5540
  103OSM   C12S10428   6.152   5.678   9.245  0.2127 -0.0157 -0.0779
  103OSM   H12S10429   6.259   5.687   9.274  1.2378 -0.3137 -3.3492
  103OSM   H12T10430   6.098   5.774   9.232 -1.3692 -0.8859 -0.0984
  103OSM   C13S10431   6.142   5.595   9.125 -0.6187 -0.3759  0.4506
  103OSM   H13S10432   6.035   5.598   9.097 -0.9131 -2.0851  1.2504
  103OSM   H13T10433   6.179   5.492   9.144  2.4194  0.5066 -0.0548
  103OSM   C14S10434   6.221   5.664   9.018 -0.2142 -0.9058 -0.1295
  103OSM   H14S10435   6.318   5.611   9.003  0.6545  0.7350 -0.5564
  103OSM   H14T10436   6.251   5.766   9.049  1.3498 -1.1711 -0.6819
  103OSM   C15S10437   6.142   5.664   8.883 -0.0482  0.7219 -0.2042
  103OSM   H15S10438   6.041   5.698   8.915  0.9323  0.8804  3.2144
  103OSM   H15T10439   6.121   5.561   8.847  0.2842  0.5829 -0.0111
  103OSM   C16S10440   6.220   5.743   8.779  0.0550  0.2130 -0.2345
  103OSM   H16S10441   6.242   5.840   8.829 -2.3578  1.5958 -1.6469
  103OSM   H16T10442   6.159   5.775   8.692  0.1262  1.3185  0.1103
  103OSM   C17S10443   6.343   5.674   8.719  0.0217  0.0251 -1.2471
  103OSM   H17S10444   6.310   5.586   8.660 -0.9997  1.7161 -3.3479
  103OSM   H17T10445   6.407   5.645   8.805 -0.0068 -0.4043 -1.3672
  103OSM   C18S10446   6.421   5.773   8.638 -0.0362  0.7932 -0.2115
  103OSM   H18S10447   6.516   5.745   8.587  0.5966  1.3030  0.6683
  103OSM   H18T10448   6.465   5.851   8.702 -1.7418  1.9663 -0.4005
  103OSM   H18U10449   6.360   5.816   8.556 -0.1528  1.0770  0.0252
  103OSM    C1F10450   5.647   6.058  10.206  0.1967 -0.1950  0.0091
  103OSM     OF10451   5.702   6.159  10.250  0.3492  0.3089 -0.2835
  103OSM    C2F10452   5.519   6.069  10.131 -0.2562  0.7567  0.3784
  103OSM    H2F10453   5.445   6.127  10.191 -0.9424  2.4662 -1.9828
  103OSM    H2G10454   5.475   5.973  10.096 -0.0781  1.3093 -1.4469
  103OSM    C3F10455   5.534   6.153  10.004 -1.0752  0.3250 -0.0512
  103OSM    H3F10456   5.580   6.251  10.029 -0.6016 -0.4789  2.5644
  103OSM    H3G10457   5.430   6.167   9.970 -1.3449  1.3326  1.1007
  103OSM    C4F10458   5.615   6.084   9.896 -0.5307 -0.5273  0.3474
  103OSM    H4F10459   5.723   6.083   9.921 -0.3193 -0.9305 -0.5425
  103OSM    H4G10460   5.607   6.148   9.806 -0.7683 -0.1646  0.6259
  103OSM    C5F10461   5.574   5.932   9.868  0.3871  0.5363 -0.1137
  103OSM    H5F10462   5.465   5.916   9.857  0.6232 -0.0077 -2.2132
  103OSM    H5G10463   5.616   5.867   9.948  1.2331  1.1479 -0.0477
  103OSM    C6F10464   5.622   5.881   9.729  0.3946 -0.0568 -0.3215
  103OSM    H6F10465   5.733   5.885   9.727  0.4305 -0.7646 -0.0482
  103OSM    H6G10466   5.591   5.960   9.658 -0.5679 -0.1736 -0.0463
  103OSM    C7F10467   5.574   5.739   9.695  0.0108  0.3961 -0.1422
  103OSM    H7F10468   5.467   5.728   9.724 -0.2781 -0.8651 -1.5514
  103OSM    H7G10469   5.635   5.668   9.754  1.1923 -0.3262 -2.1100
  103OSM    C8F10470   5.597   5.700   9.545 -0.3528  0.0519 -0.0299
  103OSM    H8F10471   5.585   5.590   9.537 -0.6415  0.1699 -1.3136
  103OSM    H8G10472   5.699   5.731   9.514 -1.0495  0.7660 -1.7384
  103OSM    C9F10473   5.505   5.769   9.450 -0.8480 -0.1424  0.3938
  103OSM    H9F10474   5.399   5.775   9.476 -1.0592 -0.0350 -0.4582
  103OSM   C10F10475   5.542   5.828   9.335  0.5152 -0.2275  0.2302
  103OSM   H10F10476   5.472   5.887   9.275 -0.9452 -2.1608 -0.0892
  103OSM   C11F10477   5.682   5.835   9.282  0.3503 -0.8403  0.0361
  103OSM   H11F10478   5.745   5.754   9.326 -0.9531 -1.7400  0.2889
  103OSM   H11G10479   5.720   5.928   9.329 -0.6365 -0.2486 -0.3283
  103OSM   C12F10480   5.699   5.844   9.128  0.1764 -0.4908 -0.7514
  103OSM   H12F10481   5.801   5.880   9.105  0.1797  0.3059  0.3853
  103OSM   H12G10482   5.627   5.926   9.104  1.7500  1.4696  0.8327
  103OSM   C13F10483   5.659   5.721   9.045  0.9317  0.0674  0.6982
  103OSM   H13F10484   5.553   5.697   9.069 -0.0062  0.0291 -2.8490
  103OSM   H13G10485   5.725   5.641   9.083  0.3157 -0.3817  0.8378
  103OSM   C14F10486   5.685   5.743   8.894 -0.1384 -0.6290  0.2229
  103OSM   H14F10487   5.655   5.656   8.830 -0.7930  0.5553 -1.1466
  103OSM   H14G10488   5.792   5.767   8.884 -0.3397  0.0466 -0.3581
  103OSM   C15F10489   5.623   5.870   8.837  0.0907  0.8081  0.3735
  103OSM   H15F10490   5.674   5.964   8.866  1.9123 -0.1711  0.5124
  103OSM   H15G10491   5.516   5.869   8.869  0.1699 -0.4007  0.6452
  103OSM   C16F10492   5.614   5.870   8.687 -0.5270 -0.3588 -0.6056
  103OSM   H16F10493   5.566   5.776   8.651 -0.0476 -0.8814  0.0995
  103OSM   H16G10494   5.717   5.874   8.644 -0.8455  0.4353 -1.3225
  103OSM   C17F10495   5.564   5.997   8.625 -0.1501  0.8112 -0.7012
  103OSM   H17F10496   5.622   6.085   8.661  1.2322 -1.0724  2.0364
  103OSM   H17G10497   5.457   6.006   8.650 -0.4335  0.0805 -1.5817
  103OSM   C18F10498   5.584   5.987   8.473  0.1947 -0.1678 -0.5044
  103OSM   H18F10499   5.692   5.990   8.448  0.7300 -0.1649  1.6179
  103OSM   H18G10500   5.519   6.066   8.430 -3.6195 -1.5258  2.2685
  103OSM   H18H10501   5.552   5.885   8.442 -3.9429  0.0941  2.1245
  104OSM      N10502   5.227   3.958  11.146  0.0246  0.1513 -0.4971
  104OSM    C1510503   5.162   3.829  11.159 -0.6153  0.0717 -0.0297
  104OSM   H15A10504   5.097   3.846  11.244 -2.8943  0.8240 -1.8281
  104OSM   H15B10505   5.231   3.748  11.175  0.6649  1.1635  0.1253
  104OSM   H15C10506   5.094   3.795  11.082 -0.4920 -2.6403  0.9463
  104OSM    C1410507   5.117   4.062  11.139  0.0952  0.5876  0.2408
  104OSM   H14A10508   5.053   4.042  11.054  0.1501 -1.5880  0.6308
  104OSM   H14B10509   5.161   4.160  11.133  0.6412  0.3565  0.4420
  104OSM   H14C10510   5.054   4.054  11.226 -1.2486  0.5352 -0.7006
  104OSM    C1310511   5.321   3.982  11.259  0.3523 -0.3725  0.6899
  104OSM   H13A10512   5.397   3.906  11.268 -0.9429 -1.7302  0.5511
  104OSM   H13B10513   5.267   3.993  11.351 -1.2090  0.2296 -0.2636
  104OSM   H13C10514   5.368   4.079  11.244 -1.7527  0.5921 -0.0489
  104OSM    C1210515   5.308   3.972  11.024 -0.1394 -0.4724  0.2456
  104OSM   H12A10516   5.389   3.900  11.032 -0.8080 -1.4689 -1.3038
  104OSM   H12B10517   5.341   4.074  11.021  0.1813 -0.5884 -1.1832
  104OSM    C1110518   5.251   3.927  10.888  0.1325 -1.0742  0.2556
  104OSM   H11A10519   5.163   3.860  10.893  0.0468 -0.9372  0.6308
  104OSM   H11B10520   5.331   3.874  10.832  4.0412  0.2043  4.0097
  104OSM      P10521   5.308   4.141  10.743  0.5035 -0.1372 -0.1172
  104OSM    O1310522   5.229   4.265  10.704  0.2696  0.4830 -0.0675
  104OSM    O1410523   5.425   4.162  10.828  0.3302  0.6608 -0.0479
  104OSM    O1110524   5.356   4.054  10.619 -0.0968 -0.2414 -0.2773
  104OSM    O1210525   5.209   4.041  10.809  0.7434 -0.5561  0.2982
  104OSM    C1S10526   5.261   3.989  10.531  0.1147 -0.2882  0.1522
  104OSM    H1S10527   5.157   3.990  10.572  0.6291 -1.5082  1.6089
  104OSM    H1T10528   5.278   3.880  10.524  0.6337 -0.2020  0.0401
  104OSM     NF10529   5.174   3.996  10.295 -0.0158 -0.3840 -0.0886
  104OSM    HNF10530   5.192   3.940  10.214  0.4701 -1.7424  0.9144
  104OSM    C2S10531   5.279   4.040  10.388 -0.3127 -0.0432  0.6451
  104OSM    H2S10532   5.287   4.151  10.391  1.0034 -0.0738 -0.6454
  104OSM    C3S10533   5.423   3.985  10.351  0.0980  0.0788  0.4295
  104OSM    H3S10534   5.401   3.880  10.320 -0.5434  0.7399 -1.5221
  104OSM     O310535   5.521   3.987  10.451 -0.5058 -0.3326  0.3997
  104OSM    HO310536   5.483   4.024  10.531  1.0603  1.9528  0.1635
  104OSM    C4S10537   5.470   4.056  10.225  0.2029  0.3354 -0.4547
  104OSM    H4S10538   5.430   4.003  10.137 -0.2424  0.3134 -0.2457
  104OSM    C5S10539   5.546   4.170  10.214  0.2513  0.1084  0.3788
  104OSM    H5S10540   5.595   4.207  10.305  0.4466 -1.2233  0.8257
  104OSM    C6S10541   5.570   4.233  10.078  0.0061 -0.2464  0.2454
  104OSM    H6S10542   5.677   4.213  10.054  0.6164  0.2918  2.3066
  104OSM    H6T10543   5.582   4.343  10.086 -0.2664 -0.2851  1.2173
  104OSM    C7S10544   5.474   4.212   9.962  0.4047 -0.2076 -1.2953
  104OSM    H7S10545   5.376   4.243  10.005 -0.2660 -0.9140 -2.2839
  104OSM    H7T10546   5.476   4.106   9.931  1.1670  0.0458 -2.1465
  104OSM    C8S10547   5.523   4.281   9.844 -0.1599 -0.3386 -0.0207
  104OSM    H8S10548   5.615   4.232   9.804 -0.4003 -0.7183 -0.1055
  104OSM    H8T10549   5.554   4.388   9.853  0.0047 -0.2822 -1.0581
  104OSM    C9S10550   5.418   4.290   9.729 -0.2388  0.1758 -0.4060
  104OSM    H9S10551   5.329   4.333   9.779  0.2207 -2.7749  3.4807
  104OSM    H9T10552   5.382   4.188   9.704 -1.1876 -0.4866  3.1287
  104OSM   C10S10553   5.471   4.355   9.600  0.3208  0.1800  0.4105
  104OSM   H10S10554   5.560   4.293   9.573 -1.9420 -4.0689  1.8459
  104OSM   H10T10555   5.500   4.457   9.633  1.2005  0.2013 -0.3634
  104OSM   C11S10556   5.381   4.368   9.478  0.3319  0.4723  0.4130
  104OSM   H11S10557   5.443   4.418   9.401 -1.7268 -0.6176 -2.0764
  104OSM   H11T10558   5.288   4.426   9.497  0.1699  0.5942 -0.7217
  104OSM   C12S10559   5.327   4.229   9.421  0.2986 -0.6926 -0.3148
  104OSM   H12S10560   5.253   4.178   9.487 -0.6010 -0.6403 -1.2562
  104OSM   H12T10561   5.415   4.161   9.417 -1.0494 -2.4706 -1.8655
  104OSM   C13S10562   5.254   4.245   9.287  0.4751  0.4587 -0.8619
  104OSM   H13S10563   5.157   4.296   9.303  0.7020  0.9180 -0.9397
  104OSM   H13T10564   5.233   4.137   9.273 -1.5761  0.2746  2.4199
  104OSM   C14S10565   5.338   4.302   9.179  0.4096  0.0581 -0.1084
  104OSM   H14S10566   5.429   4.243   9.159  1.5601  1.9640 -0.8213
  104OSM   H14T10567   5.357   4.408   9.209  1.7076 -0.1548 -0.1549
  104OSM   C15S10568   5.271   4.328   9.045  0.4024  0.2330 -0.1716
  104OSM   H15S10569   5.164   4.356   9.038 -0.0996 -1.7840 -1.6729
  104OSM   H15T10570   5.273   4.231   8.990 -1.4657  0.8706 -1.4642
  104OSM   C16S10571   5.348   4.428   8.951  0.3158 -0.5681 -0.3477
  104OSM   H16S10572   5.447   4.378   8.946  0.9637  0.5202  0.8430
  104OSM   H16T10573   5.359   4.523   9.008  2.3508 -1.9477  1.7972
  104OSM   C17S10574   5.287   4.450   8.812 -0.4002 -0.5955  0.3733
  104OSM   H17S10575   5.341   4.529   8.754 -2.8399 -0.3682 -1.7938
  104OSM   H17T10576   5.186   4.492   8.828  1.0123  2.6459  1.7398
  104OSM   C18S10577   5.288   4.328   8.731  0.7216 -0.2600  0.4623
  104OSM   H18S10578   5.390   4.285   8.718  0.4811 -1.2269  1.5629
  104OSM   H18T10579   5.249   4.348   8.629  0.9360 -1.9558  0.0159
  104OSM   H18U10580   5.220   4.251   8.773  1.3524  0.0833  2.2133
  104OSM    C1F10581   5.050   4.060  10.305 -0.1195  0.9738 -0.5897
  104OSM     OF10582   5.005   4.108  10.408  0.1739 -0.2042  1.2042
  104OSM    C2F10583   4.980   4.072  10.173 -0.1102 -0.7771 -0.0524
  104OSM    H2F10584   4.884   4.018  10.182  0.7840 -2.2821  0.8210
  104OSM    H2G10585   5.041   4.006  10.107 -1.6419 -0.4862 -1.8712
  104OSM    C3F10586   4.965   4.222  10.139  0.4068 -0.4172 -0.0983
  104OSM    H3F10587   5.051   4.281  10.176  0.3662  0.2609 -1.0501
  104OSM    H3G10588   4.884   4.259  10.206  2.3918  0.4516  1.9124
  104OSM    C4F10589   4.929   4.257   9.994  0.6476 -0.0961  0.4200
  104OSM    H4F10590   5.022   4.244   9.934  2.1983 -0.8976  2.8472
  104OSM    H4G10591   4.903   4.365   9.988 -2.5510 -0.8086 -0.1951
  104OSM    C5F10592   4.819   4.182   9.926 -0.8639  0.0912  0.2763
  104OSM    H5F10593   4.721   4.229   9.948 -0.4081  0.5455  1.3742
  104OSM    H5G10594   4.804   4.078   9.963 -1.2227 -0.4679 -1.3675
  104OSM    C6F10595   4.838   4.177   9.768 -0.1729  0.4718  0.5197
  104OSM    H6F10596   4.756   4.119   9.721 -0.1817 -0.3415  1.5003
  104OSM    H6G10597   4.927   4.114   9.746 -1.5822 -0.8211 -1.9063
  104OSM    C7F10598   4.848   4.316   9.701 -0.0726 -0.6548  0.2858
  104OSM    H7F10599   4.953   4.346   9.721  0.1026 -0.3034 -1.0763
  104OSM    H7G10600   4.780   4.388   9.749  0.7733  0.1934  0.2402
  104OSM    C8F10601   4.820   4.309   9.549 -0.4277  0.1963  0.7380
  104OSM    H8F10602   4.825   4.416   9.518  0.0522  0.5666  2.0138
  104OSM    H8G10603   4.719   4.274   9.522  0.1082 -1.1907  0.4530
  104OSM    C9F10604   4.918   4.224   9.476 -0.6697  0.3482 -0.4866
  104OSM    H9F10605   5.025   4.237   9.495 -0.1125 -2.0365 -1.5625
  104OSM   C10F10606   4.880   4.123   9.388 -1.1961  0.4148  0.5198
  104OSM   H10F10607   4.963   4.076   9.333 -1.2835  0.7648  0.0862
  104OSM   C11F10608   4.743   4.089   9.333  0.0759  0.5475 -0.7224
  104OSM   H11F10609   4.666   4.099   9.413  2.0831 -1.7673  1.6713
  104OSM   H11G10610   4.734   3.982   9.309 -3.2296  0.1635  1.5441
  104OSM   C12F10611   4.695   4.197   9.228 -0.1614 -0.2760 -0.6228
  104OSM   H12F10612   4.723   4.288   9.285 -0.5834 -1.5443  1.7294
  104OSM   H12G10613   4.586   4.189   9.209 -0.1026 -0.5367 -0.8566
  104OSM   C13F10614   4.778   4.181   9.105 -0.2219 -0.4557  0.1625
  104OSM   H13F10615   4.886   4.178   9.129 -0.4914  1.2943  1.8288
  104OSM   H13G10616   4.763   4.268   9.037  1.2165  0.6749  1.2278
  104OSM   C14F10617   4.753   4.056   9.028  0.1148 -0.7866  0.3642
  104OSM   H14F10618   4.663   4.065   8.964  0.3866 -0.7861 -0.0182
  104OSM   H14G10619   4.709   3.974   9.090  0.1326 -2.0669 -1.2568
  104OSM   C15F10620   4.873   4.013   8.948  0.3179  0.5788  0.4152
  104OSM   H15F10621   4.839   3.934   8.878  0.6119  1.0254 -0.2420
  104OSM   H15G10622   4.951   3.980   9.021  2.6092 -0.8881 -2.4636
  104OSM   C16F10623   4.952   4.119   8.859 -0.1376  0.8055  0.2391
  104OSM   H16F10624   5.026   4.061   8.799 -0.9362 -0.8408  0.7767
  104OSM   H16G10625   4.991   4.199   8.926  0.3003  2.1947 -1.5906
  104OSM   C17F10626   4.863   4.178   8.752  0.8037  0.8818 -0.5141
  104OSM   H17F10627   4.763   4.185   8.799  1.7901  0.6464  1.7277
  104OSM   H17G10628   4.858   4.115   8.661  2.2575  1.2150 -0.8590
  104OSM   C18F10629   4.900   4.322   8.714 -0.4162 -0.0432  0.2724
  104OSM   H18F10630   4.995   4.331   8.656 -1.5631  1.1268 -1.4995
  104OSM   H18G10631   4.917   4.379   8.808 -1.8512 -0.4970  0.8309
  104OSM   H18H10632   4.821   4.374   8.657  0.1453  0.8928  0.3284
  105OSM      N10633   2.950   0.293  11.050 -0.2278 -0.1610 -0.6857
  105OSM    C1510634   2.872   0.171  11.092 -0.6459 -0.0433  0.2160
  105OSM   H15A10635   2.816   0.140  11.005  0.1148  3.0066 -1.5160
  105OSM   H15B10636   2.804   0.192  11.173 -0.8121  1.2101 -0.2333
  105OSM   H15C10637   2.939   0.091  11.120 -1.4000 -0.4636  0.8814
  105OSM    C1410638   2.853   0.400  11.022  0.6953  0.0657  0.1104
  105OSM   H14A10639   2.902   0.487  10.982  0.2538 -0.0327 -0.6561
  105OSM   H14B10640   2.804   0.424  11.115  1.7994 -0.9852  1.0048
  105OSM   H14C10641   2.771   0.374  10.956 -0.5326  0.0900  1.5855
  105OSM    C1310642   3.040   0.337  11.156  0.8590  0.8419 -0.4636
  105OSM   H13A10643   3.122   0.268  11.169 -0.1274 -0.4674 -1.0208
  105OSM   H13B10644   2.976   0.351  11.242 -1.3706 -2.4011 -1.4230
  105OSM   H13C10645   3.080   0.435  11.134  0.8155  0.9846  0.0743
  105OSM    C1210646   3.038   0.273  10.924 -0.1351  0.2298 -0.6358
  105OSM   H12A10647   3.117   0.203  10.945 -0.7621 -1.0901 -2.3888
  105OSM   H12B10648   3.082   0.369  10.900 -0.5810  0.5974 -0.0055
  105OSM    C1110649   2.959   0.226  10.805 -0.7319 -0.7787 -0.2922
  105OSM   H11A10650   3.016   0.224  10.710 -0.6325 -1.8639 -0.2276
  105OSM   H11B10651   2.873   0.289  10.774  0.8988  1.1571 -1.1622
  105OSM      P10652   3.010  -0.031  10.789  0.3826 -0.1251  0.1462
  105OSM    O1310653   3.138  -0.032  10.864 -0.1519  0.2782 -0.2013
  105OSM    O1410654   2.939  -0.153  10.816  0.2978  0.4312  0.5550
  105OSM    O1110655   3.035  -0.003  10.638  0.0411  0.1854 -0.0638
  105OSM    O1210656   2.921   0.096  10.834  0.0816 -0.5204  0.9532
  105OSM    C1S10657   2.935   0.030  10.539 -0.9956  0.7438 -0.2759
  105OSM    H1S10658   2.889   0.126  10.570  0.0684  0.9888  0.6425
  105OSM    H1T10659   2.851  -0.043  10.537 -1.5556  1.3920 -1.0499
  105OSM     NF10660   2.884   0.078  10.297 -0.1929  1.0107  0.1164
  105OSM    HNF10661   2.836   0.004  10.251  0.0932  0.6271  0.4285
  105OSM    C2S10662   2.989   0.039  10.388 -0.4566 -0.2969  0.4607
  105OSM    H2S10663   3.074   0.110  10.403 -0.8410 -0.2524  2.8578
  105OSM    C3S10664   3.058  -0.093  10.353 -0.4644  0.2138  0.2771
  105OSM    H3S10665   2.981  -0.168  10.381  0.1369  0.6681  3.4435
  105OSM     O310666   3.161  -0.128  10.445  0.8948  0.3004 -0.7406
  105OSM    HO310667   3.122  -0.088  10.523 -0.0879 -2.1813  0.1581
  105OSM    C4S10668   3.099  -0.107  10.207 -0.3920  0.2123  0.4140
  105OSM    H4S10669   3.012  -0.134  10.145  0.3227  1.4057 -1.1879
  105OSM    C5S10670   3.224  -0.092  10.154  0.2494  0.8503  0.7926
  105OSM    H5S10671   3.304  -0.062  10.222  1.6898  0.1554 -0.5255
  105OSM    C6S10672   3.277  -0.111  10.014 -0.2073  1.1854 -0.1104
  105OSM    H6S10673   3.343  -0.201  10.020 -0.7467  0.8480  0.9519
  105OSM    H6T10674   3.338  -0.028   9.972 -2.0759  0.6548 -4.3993
  105OSM    C7S10675   3.166  -0.152   9.916 -0.5096 -0.2796 -0.3599
  105OSM    H7S10676   3.100  -0.063   9.904  2.4057  2.1948  0.5874
  105OSM    H7T10677   3.101  -0.230   9.960 -0.1619 -0.7642 -0.6970
  105OSM    C8S10678   3.224  -0.190   9.780  0.2603  0.0268 -0.8609
  105OSM    H8S10679   3.298  -0.273   9.787  0.0733 -0.0549  0.2872
  105OSM    H8T10680   3.285  -0.103   9.748  1.7476 -0.8417 -0.5108
  105OSM    C9S10681   3.125  -0.237   9.676  0.2745 -0.3330  0.4698
  105OSM    H9S10682   3.035  -0.175   9.690 -1.0169 -1.8681 -0.6053
  105OSM    H9T10683   3.096  -0.339   9.709 -1.7798  0.4748  1.2824
  105OSM   C10S10684   3.167  -0.242   9.529 -0.1356 -0.4261  0.1262
  105OSM   H10S10685   3.250  -0.314   9.514  1.0927  0.4050  2.4027
  105OSM   H10T10686   3.203  -0.143   9.495 -0.6835 -0.1822  0.2343
  105OSM   C11S10687   3.060  -0.286   9.430 -0.3956 -0.2545 -0.1291
  105OSM   H11S10688   2.989  -0.201   9.421 -2.3422 -1.8088 -0.1428
  105OSM   H11T10689   3.008  -0.380   9.460  0.5186 -1.2849 -1.5807
  105OSM   C12S10690   3.128  -0.310   9.298 -0.5539 -0.6126 -0.2340
  105OSM   H12S10691   3.173  -0.411   9.286 -2.8630 -1.6247 -0.8577
  105OSM   H12T10692   3.211  -0.237   9.285 -0.8845  0.7632  3.8837
  105OSM   C13S10693   3.022  -0.298   9.186 -1.2420  0.4331  0.4361
  105OSM   H13S10694   2.993  -0.191   9.180 -1.8578  0.2531  0.0992
  105OSM   H13T10695   2.928  -0.350   9.217 -3.0757  3.6430  0.7241
  105OSM   C14S10696   3.086  -0.356   9.055 -0.2195  0.3141 -0.2975
  105OSM   H14S10697   3.173  -0.293   9.030  0.4957  0.5086  2.4113
  105OSM   H14T10698   3.005  -0.337   8.981 -1.0431 -0.8747  0.2491
  105OSM   C15S10699   3.120  -0.506   9.056  0.1361 -0.0743  0.4961
  105OSM   H15S10700   3.034  -0.555   9.107 -1.8872  0.3403 -2.2941
  105OSM   H15T10701   3.218  -0.522   9.107  0.9386 -0.7148 -1.1753
  105OSM   C16S10702   3.129  -0.576   8.919 -0.2114  0.0687  0.2993
  105OSM   H16S10703   3.037  -0.550   8.862  1.8801  1.7448 -2.5672
  105OSM   H16T10704   3.138  -0.686   8.931  0.3511  0.0089 -0.5715
  105OSM   C17S10705   3.249  -0.525   8.837 -0.2227 -0.2043 -0.4861
  105OSM   H17S10706   3.339  -0.537   8.902 -1.7406 -1.6006  1.4996
  105OSM   H17T10707   3.238  -0.417   8.816  0.0149 -0.2277 -0.7418
  105OSM   C18S10708   3.280  -0.609   8.708  0.5616 -0.4472 -0.6662
  105OSM   H18S10709   3.315  -0.707   8.748  2.0993  1.0302  1.9398
  105OSM   H18T10710   3.360  -0.567   8.644  0.9027 -0.8764 -0.5312
  105OSM   H18U10711   3.187  -0.622   8.650 -0.3895 -1.0924  0.9424
  105OSM    C1F10712   2.838   0.203  10.293 -0.0179  0.6545  0.5659
  105OSM     OF10713   2.893   0.293  10.359 -0.7608  0.4744 -0.6802
  105OSM    C2F10714   2.714   0.236  10.212 -0.4941 -0.1139 -0.3653
  105OSM    H2F10715   2.665   0.320  10.265  1.7053 -0.0899  1.8076
  105OSM    H2G10716   2.651   0.146  10.223  1.8428 -1.9437 -0.9790
  105OSM    C3F10717   2.751   0.268  10.063  0.3902 -0.1671 -0.5209
  105OSM    H3F10718   2.810   0.362  10.060 -0.3707  0.3460  0.2548
  105OSM    H3G10719   2.654   0.304  10.021 -0.7580 -0.1170  1.9455
  105OSM    C4F10720   2.823   0.159   9.985 -0.3257 -0.4769  0.2980
  105OSM    H4F10721   2.778   0.058   9.997  0.8087 -0.8250  2.0146
  105OSM    H4G10722   2.927   0.153  10.023 -0.5902  1.7623  1.5353
  105OSM    C5F10723   2.821   0.186   9.838 -0.1432  0.4133  0.3613
  105OSM    H5F10724   2.863   0.287   9.821 -2.5816  1.4340 -0.1160
  105OSM    H5G10725   2.720   0.188   9.792 -0.4966 -0.0811  1.0838
  105OSM    C6F10726   2.914   0.094   9.745  0.7208 -0.0705  0.2622
  105OSM    H6F10727   2.879  -0.011   9.753  2.4543 -0.6045  1.3765
  105OSM    H6G10728   3.018   0.084   9.781  0.8236 -0.2974 -0.1000
  105OSM    C7F10729   2.917   0.146   9.598  0.0806 -0.8163 -0.5065
  105OSM    H7F10730   3.015   0.115   9.555  0.6472 -0.5738  0.5902
  105OSM    H7G10731   2.909   0.257   9.606 -3.0121 -1.0886  1.9420
  105OSM    C8F10732   2.794   0.102   9.523 -0.9290 -0.1920 -0.4794
  105OSM    H8F10733   2.703   0.149   9.566 -1.1896 -0.0832 -1.1399
  105OSM    H8G10734   2.779  -0.007   9.529 -4.0875  0.1038 -1.2699
  105OSM    C9F10735   2.803   0.157   9.381 -0.0715  0.2244  0.5219
  105OSM    H9F10736   2.898   0.162   9.325 -0.5084  4.5701 -0.1669
  105OSM   C10F10737   2.695   0.194   9.306  0.4224  0.0461  0.1330
  105OSM   H10F10738   2.713   0.254   9.215  2.2285 -0.2105  0.2683
  105OSM   C11F10739   2.547   0.196   9.338  0.3222  0.3198  0.1572
  105OSM   H11F10740   2.538   0.185   9.448  0.6713 -0.0352  0.1540
  105OSM   H11G10741   2.499   0.111   9.283 -1.4861  0.4475  1.4393
  105OSM   C12F10742   2.490   0.334   9.311  0.3333 -0.0755 -0.1500
  105OSM   H12F10743   2.553   0.418   9.347 -0.4038  0.8704 -0.9890
  105OSM   H12G10744   2.386   0.336   9.350  0.2735 -3.5960  0.1796
  105OSM   C13F10745   2.484   0.369   9.158 -0.0749 -0.4016  0.1886
  105OSM   H13F10746   2.417   0.291   9.116 -0.6268 -0.6890  1.5332
  105OSM   H13G10747   2.587   0.361   9.117 -0.6768  0.7659 -1.6428
  105OSM   C14F10748   2.423   0.510   9.140 -0.2405  0.2589  0.5779
  105OSM   H14F10749   2.480   0.585   9.198  0.4080  1.2963 -1.3302
  105OSM   H14G10750   2.322   0.499   9.186 -0.7055 -0.5442 -0.5829
  105OSM   C15F10751   2.400   0.545   8.997  0.3968 -0.2269  0.2325
  105OSM   H15F10752   2.346   0.642   9.004 -0.1175 -0.6143  2.6415
  105OSM   H15G10753   2.329   0.471   8.953 -2.0858  0.7619  2.3258
  105OSM   C16F10754   2.523   0.571   8.912  0.9171 -0.0682  0.1582
  105OSM   H16F10755   2.576   0.473   8.916  0.5699 -0.2480  0.4275
  105OSM   H16G10756   2.591   0.643   8.963  0.1470  0.2166  0.7988
  105OSM   C17F10757   2.495   0.612   8.764  0.2611 -0.8956  0.0725
  105OSM   H17F10758   2.438   0.708   8.769  2.7710  0.7182 -0.5105
  105OSM   H17G10759   2.443   0.523   8.722  1.9670 -2.6561  1.5273
  105OSM   C18F10760   2.627   0.630   8.697 -1.3895  0.1382  0.0559
  105OSM   H18F10761   2.605   0.652   8.590 -1.1846  2.3939  0.4209
  105OSM   H18G10762   2.692   0.540   8.712 -3.9331 -2.0409 -1.1784
  105OSM   H18H10763   2.685   0.715   8.738 -0.6041 -0.9696  1.3241
  106OSM      N10764   1.273   6.784  11.038 -0.0020  0.3588 -0.0446
  106OSM    C1510765   1.315   6.767  11.180  0.3784 -0.2910 -0.0058
  106OSM   H15A10766   1.405   6.708  11.191  0.9257  0.7121  1.0539
  106OSM   H15B10767   1.236   6.720  11.236  0.5571 -0.6151 -0.0238
  106OSM   H15C10768   1.330   6.864  11.224 -0.8486 -0.6865  1.3460
  106OSM    C1410769   1.176   6.895  11.031 -0.1583  0.6071 -0.2089
  106OSM   H14A10770   1.091   6.873  11.093 -0.4693 -0.3792 -0.9511
  106OSM   H14B10771   1.142   6.929  10.934 -1.8603 -2.0584 -0.6409
  106OSM   H14C10772   1.225   6.982  11.072 -1.0045  1.5067 -1.0372
  106OSM    C1310773   1.401   6.821  10.969  0.5490 -0.1848  0.5071
  106OSM   H13A10774   1.427   6.915  11.016  1.0908 -0.8859  1.6681
  106OSM   H13B10775   1.390   6.832  10.862 -1.4531  1.1817  0.7937
  106OSM   H13C10776   1.477   6.746  10.977 -0.8481 -2.0861 -2.5002
  106OSM    C1210777   1.216   6.654  10.976  0.4249  0.6251 -1.1566
  106OSM   H12A10778   1.283   6.574  11.004  0.2694  0.4105 -1.3915
  106OSM   H12B10779   1.217   6.656  10.868 -0.8822 -2.0186 -1.3132
  106OSM    C1110780   1.079   6.606  11.036  0.2773 -0.4215 -0.2857
  106OSM   H11A10781   1.083   6.608  11.147 -2.6555 -0.6700 -0.0955
  106OSM   H11B10782   1.051   6.502  11.010  0.1095 -0.1904 -1.0684
  106OSM      P10783   0.918   6.677  10.838 -0.1628 -0.3487 -0.2047
  106OSM    O1310784   0.787   6.612  10.831  0.1006  0.2028 -0.2863
  106OSM    O1410785   0.936   6.814  10.779 -0.3829  0.5318  0.0149
  106OSM    O1110786   1.026   6.584  10.782 -0.0523 -0.0517  0.2744
  106OSM    O1210787   0.965   6.690  10.990  0.6415  1.0567 -0.1437
  106OSM    C1S10788   1.007   6.472  10.688 -1.1614 -0.1412  0.1953
  106OSM    H1S10789   0.906   6.466  10.644 -0.3634 -2.9387 -1.4722
  106OSM    H1T10790   1.029   6.378  10.743 -1.0300 -0.7076 -0.8020
  106OSM     NF10791   1.127   6.368  10.490 -0.5048 -0.3229  0.5078
  106OSM    HNF10792   1.223   6.349  10.473 -0.5752 -0.3145  0.0897
  106OSM    C2S10793   1.103   6.492  10.566 -0.6117  0.8642  0.4162
  106OSM    H2S10794   1.047   6.553  10.493 -1.0253  0.0023 -0.0045
  106OSM    C3S10795   1.235   6.567  10.593  0.0278  0.0142 -0.2007
  106OSM    H3S10796   1.293   6.509  10.668  0.6603  0.8621 -0.0081
  106OSM     O310797   1.223   6.698  10.645  0.9656 -0.0006  0.0473
  106OSM    HO310798   1.141   6.685  10.692  1.6659 -0.2187  1.2479
  106OSM    C4S10799   1.316   6.576  10.460  0.4153  1.0101  0.4056
  106OSM    H4S10800   1.410   6.521  10.470 -0.4896 -0.2679  2.7668
  106OSM    C5S10801   1.278   6.647  10.346  0.0289  0.1748  0.2051
  106OSM    H5S10802   1.181   6.698  10.346 -0.1061 -0.0765  0.6957
  106OSM    C6S10803   1.364   6.645  10.224  0.4679 -0.2358 -0.0777
  106OSM    H6S10804   1.470   6.627  10.253 -0.1510 -2.1043  1.2047
  106OSM    H6T10805   1.357   6.748  10.182 -1.4077  0.3870  1.5749
  106OSM    C7S10806   1.303   6.537  10.131  0.6361  0.5454  0.8198
  106OSM    H7S10807   1.205   6.568  10.089  1.7294  0.5156 -1.9801
  106OSM    H7T10808   1.299   6.439  10.183  1.0635 -0.2845 -0.6576
  106OSM    C8S10809   1.403   6.521  10.008 -0.2868 -0.1473  0.0632
  106OSM    H8S10810   1.506   6.507  10.047  0.5739  1.0536 -1.6312
  106OSM    H8T10811   1.412   6.619   9.956 -1.3644 -0.6063 -1.0365
  106OSM    C9S10812   1.351   6.427   9.904  0.4338  0.5206 -0.2887
  106OSM    H9S10813   1.246   6.459   9.885  0.2344 -0.0204 -0.1129
  106OSM    H9T10814   1.339   6.327   9.950  0.2094  0.5648 -0.2507
  106OSM   C10S10815   1.429   6.421   9.768  0.1680 -0.4241  0.6256
  106OSM   H10S10816   1.532   6.382   9.779  0.2093 -0.9947 -1.4665
  106OSM   H10T10817   1.430   6.524   9.727 -0.7732 -1.0779 -1.1099
  106OSM   C11S10818   1.348   6.330   9.670 -0.1091 -0.1332  0.0434
  106OSM   H11S10819   1.251   6.381   9.653 -0.3433  0.0140  1.6423
  106OSM   H11T10820   1.339   6.229   9.717 -0.4835 -0.2018 -0.1680
  106OSM   C12S10821   1.422   6.316   9.537 -0.2501 -0.3660  0.6247
  106OSM   H12S10822   1.516   6.262   9.559  0.2554  0.0101 -0.5242
  106OSM   H12T10823   1.462   6.414   9.504 -3.0846  0.8742  0.5591
  106OSM   C13S10824   1.343   6.236   9.435  0.2416 -0.0669  0.0890
  106OSM   H13S10825   1.242   6.281   9.428  1.3949  2.6143 -0.3039
  106OSM   H13T10826   1.338   6.131   9.471 -1.5986  0.4581  1.5541
  106OSM   C14S10827   1.401   6.247   9.291 -0.7499  0.9616 -0.2313
  106OSM   H14S10828   1.508   6.222   9.277 -0.6894  0.6395  0.6935
  106OSM   H14T10829   1.395   6.351   9.255  1.1590  1.4283  0.6488
  106OSM   C15S10830   1.327   6.149   9.192  0.5225 -0.3694 -0.0402
  106OSM   H15S10831   1.218   6.162   9.202  0.5399 -0.8840  1.0782
  106OSM   H15T10832   1.338   6.041   9.217 -1.3975 -0.6672 -0.3472
  106OSM   C16S10833   1.367   6.179   9.048 -0.6540  1.0222 -0.4462
  106OSM   H16S10834   1.333   6.088   8.995 -0.6460  0.6098  0.2441
  106OSM   H16T10835   1.478   6.175   9.035 -0.8843  0.3217 -2.6734
  106OSM   C17S10836   1.328   6.314   8.998  0.9237 -0.0865  0.8988
  106OSM   H17S10837   1.387   6.401   9.033 -0.9057  1.2966  0.6767
  106OSM   H17T10838   1.228   6.331   9.045 -0.0062 -0.8812 -0.6869
  106OSM   C18S10839   1.301   6.324   8.847  0.1162  0.3224 -0.6693
  106OSM   H18S10840   1.399   6.331   8.796  0.4323  2.4800  0.1586
  106OSM   H18T10841   1.254   6.423   8.833 -1.0851 -0.0862  0.2997
  106OSM   H18U10842   1.233   6.240   8.820 -1.2731  1.5131 -0.9679
  106OSM    C1F10843   1.022   6.301  10.435 -0.5204  0.0096 -0.3659
  106OSM     OF10844   0.903   6.333  10.456 -0.0324  0.0640 -0.0789
  106OSM    C2F10845   1.061   6.172  10.367  0.0244  0.0214  0.1277
  106OSM    H2F10846   1.062   6.083  10.433  0.4118  0.8474  1.2723
  106OSM    H2G10847   1.168   6.177  10.339 -0.1686  0.1553 -0.6063
  106OSM    C3F10848   0.976   6.150  10.239 -0.1529  0.1874 -0.5928
  106OSM    H3F10849   0.869   6.138  10.266  0.2972 -2.3505  0.2733
  106OSM    H3G10850   1.005   6.055  10.190 -0.3710 -0.5494  0.6761
  106OSM    C4F10851   0.994   6.265  10.135  0.2019 -0.0999 -0.4667
  106OSM    H4F10852   1.101   6.291  10.118 -0.3462  1.4593 -1.7829
  106OSM    H4G10853   0.950   6.357  10.180  0.8196  0.0258 -0.1076
  106OSM    C5F10854   0.930   6.236   9.997 -0.6801  0.3471 -0.0758
  106OSM    H5F10855   0.821   6.248  10.012 -0.3378  3.1412  0.9252
  106OSM    H5G10856   0.934   6.128   9.972 -2.4856  0.3815 -0.6061
  106OSM    C6F10857   0.980   6.316   9.879 -0.0521 -0.8767 -0.1873
  106OSM    H6F10858   1.087   6.292   9.862  0.2924  0.5523 -0.1999
  106OSM    H6G10859   0.966   6.426   9.887  0.5661 -0.5749 -2.4921
  106OSM    C7F10860   0.902   6.288   9.743 -0.1875  0.0303 -0.0483
  106OSM    H7F10861   0.792   6.287   9.754 -0.1030  1.4050  1.1638
  106OSM    H7G10862   0.935   6.186   9.713 -0.8934 -0.7956  1.8482
  106OSM    C8F10863   0.941   6.384   9.627 -0.1610  0.1858  0.3170
  106OSM    H8F10864   1.040   6.362   9.581  0.4837  2.8953  0.2194
  106OSM    H8G10865   0.941   6.486   9.671  2.9018  0.4520 -0.0761
  106OSM    C9F10866   0.834   6.387   9.527  0.0921 -0.9586  0.8111
  106OSM    H9F10867   0.738   6.431   9.557  0.5704 -0.0476  1.0438
  106OSM   C10F10868   0.843   6.327   9.407  0.0297  0.0679  0.0310
  106OSM   H10F10869   0.756   6.328   9.340  0.0861  0.6125 -0.0327
  106OSM   C11F10870   0.952   6.245   9.337 -0.1623  1.0817 -0.2779
  106OSM   H11F10871   0.983   6.145   9.373  2.5848  1.5586 -1.0733
  106OSM   H11G10872   1.049   6.299   9.340  1.5238 -1.7110 -0.5182
  106OSM   C12F10873   0.930   6.231   9.181  0.1235 -0.8553  0.7250
  106OSM   H12F10874   0.825   6.195   9.170 -0.2871  0.7652 -1.3163
  106OSM   H12G10875   1.007   6.172   9.126 -0.1140  1.2953 -2.1574
  106OSM   C13F10876   0.935   6.366   9.105 -0.1337  0.0450 -0.5776
  106OSM   H13F10877   1.038   6.406   9.119 -0.1480 -0.1434  0.1196
  106OSM   H13G10878   0.868   6.443   9.149  1.0981  0.6013  0.3964
  106OSM   C14F10879   0.907   6.355   8.952 -0.1939 -0.1285 -0.7167
  106OSM   H14F10880   0.802   6.319   8.940  0.0721 -1.3916  0.5012
  106OSM   H14G10881   0.980   6.286   8.905  2.4326  2.8956 -1.4654
  106OSM   C15F10882   0.927   6.490   8.882 -0.1801  0.0996 -0.5809
  106OSM   H15F10883   1.022   6.539   8.913 -0.7378  2.0468 -1.7650
  106OSM   H15G10884   0.855   6.568   8.914  0.4279  0.8543 -1.0014
  106OSM   C16F10885   0.946   6.469   8.728  0.2586  0.1101 -0.2998
  106OSM   H16F10886   0.999   6.376   8.699 -0.2710  0.8048 -4.0052
  106OSM   H16G10887   0.998   6.557   8.685 -0.3477  0.6240 -0.0079
  106OSM   C17F10888   0.816   6.467   8.645  0.3267  0.5664 -0.4281
  106OSM   H17F10889   0.754   6.559   8.640 -0.9970 -0.3156 -0.7243
  106OSM   H17G10890   0.744   6.389   8.679  1.4156  0.1722  1.0483
  106OSM   C18F10891   0.826   6.437   8.500  0.3055  0.1188  0.3885
  106OSM   H18F10892   0.896   6.498   8.439  0.4814  0.5178  0.9849
  106OSM   H18G10893   0.728   6.430   8.448  0.5555 -1.9595  0.1075
  106OSM   H18H10894   0.864   6.333   8.498 -1.5719 -0.7093  3.2861
  107OSM      N10895   4.776   4.704  11.103  0.5055 -0.9119  0.1642
  107OSM    C1510896   4.902   4.697  11.192 -0.0680 -0.0595 -0.6381
  107OSM   H15A10897   4.967   4.622  11.148  0.4581  0.3734 -0.6052
  107OSM   H15B10898   4.876   4.661  11.290 -0.1471 -0.1275 -0.6830
  107OSM   H15C10899   4.952   4.793  11.190  1.3465 -0.7523  0.0424
  107OSM    C1410900   4.682   4.589  11.114  0.8213 -0.2496  0.0308
  107OSM   H14A10901   4.596   4.604  11.051 -0.1300  0.2530  1.3884
  107OSM   H14B10902   4.642   4.576  11.214  1.4865 -0.4661  0.2770
  107OSM   H14C10903   4.739   4.501  11.090 -1.4519 -1.6720 -0.4343
  107OSM    C1310904   4.699   4.831  11.155  0.3072  0.4588 -0.2587
  107OSM   H13A10905   4.768   4.914  11.146 -0.2643  0.8471 -1.2267
  107OSM   H13B10906   4.665   4.825  11.257  1.1610  0.8966  0.0610
  107OSM   H13C10907   4.615   4.856  11.093  1.2112 -0.2765 -1.8388
  107OSM    C1210908   4.814   4.719  10.958 -0.1348 -0.0903 -0.1857
  107OSM   H12A10909   4.724   4.710  10.899 -2.0822 -2.5564  2.8381
  107OSM   H12B10910   4.883   4.640  10.933 -1.6825 -1.1809 -1.2149
  107OSM    C1110911   4.888   4.849  10.917 -0.3359 -0.3285 -0.4692
  107OSM   H11A10912   4.815   4.930  10.938 -0.4540 -0.2655 -1.0899
  107OSM   H11B10913   4.911   4.859  10.808 -0.7615  0.6326 -0.4835
  107OSM      P10914   5.072   5.005  11.022  0.1442  0.1995 -0.1284
  107OSM    O1310915   5.004   5.075  11.132  0.5174  0.3078 -0.0887
  107OSM    O1410916   5.217   4.985  11.049  0.4231 -0.4120 -0.2553
  107OSM    O1110917   5.057   5.086  10.881 -0.1584 -0.3305  0.5184
  107OSM    O1210918   5.011   4.867  10.991 -0.0514  0.2097 -0.1828
  107OSM    C1S10919   5.130   5.056  10.763  0.4322 -0.0057 -0.8964
  107OSM    H1S10920   5.066   4.993  10.697 -1.3467 -0.0111  0.7548
  107OSM    H1T10921   5.207   4.983  10.794 -1.0534 -0.5536  1.8129
  107OSM     NF10922   5.217   5.142  10.560 -0.4238 -0.1879 -0.3272
  107OSM    HNF10923   5.315   5.134  10.540 -0.4241  0.1369 -0.4618
  107OSM    C2S10924   5.190   5.178  10.696  0.0474  0.1340  0.5584
  107OSM    H2S10925   5.114   5.260  10.701  0.5937  0.6315  0.9046
  107OSM    C3S10926   5.306   5.237  10.779 -0.6368  0.1852  0.3913
  107OSM    H3S10927   5.383   5.157  10.783 -1.6567 -1.1683 -3.2035
  107OSM     O310928   5.274   5.264  10.913  0.1270 -0.6292 -0.3688
  107OSM    HO310929   5.188   5.223  10.917  0.1057 -0.6264 -0.7704
  107OSM    C4S10930   5.350   5.363  10.710 -0.2039  0.2035 -0.0328
  107OSM    H4S10931   5.419   5.344  10.627 -0.5747  1.5413 -0.6726
  107OSM    C5S10932   5.307   5.488  10.721 -0.8244 -0.0031  0.5731
  107OSM    H5S10933   5.235   5.500  10.803 -1.3702 -2.6348  0.5735
  107OSM    C6S10934   5.364   5.605  10.636 -0.2413  0.2914 -0.1464
  107OSM    H6S10935   5.442   5.576  10.562 -0.2315 -0.5947  0.2039
  107OSM    H6T10936   5.422   5.670  10.705 -1.6599 -0.0774  1.4474
  107OSM    C7S10937   5.245   5.685  10.566  0.6750 -0.5201  0.3442
  107OSM    H7S10938   5.174   5.718  10.644  1.3936 -0.3415  0.9345
  107OSM    H7T10939   5.182   5.619  10.502 -1.1598  0.4335  1.1062
  107OSM    C8S10940   5.301   5.811  10.499 -0.5415 -0.2285 -0.0101
  107OSM    H8S10941   5.367   5.783  10.414 -1.0352  0.9158 -0.7823
  107OSM    H8T10942   5.369   5.854  10.576 -1.5160 -0.7024  1.1323
  107OSM    C9S10943   5.192   5.904  10.446 -0.3712 -0.3990  0.2945
  107OSM    H9S10944   5.151   5.958  10.534  1.5264  0.4221  0.7162
  107OSM    H9T10945   5.116   5.835  10.402 -0.1568  0.4547 -1.4921
  107OSM   C10S10946   5.246   6.004  10.335  0.3052  0.1052  0.0928
  107OSM   H10S10947   5.297   5.949  10.253 -2.3373 -0.2936 -1.4147
  107OSM   H10T10948   5.327   6.066  10.377  1.2370  1.6380 -3.5748
  107OSM   C11S10949   5.133   6.081  10.279 -0.1006 -0.3285  0.0391
  107OSM   H11S10950   5.101   6.165  10.344 -1.4670  0.3129 -1.4111
  107OSM   H11T10951   5.040   6.025  10.254 -0.0372 -0.3535 -0.1411
  107OSM   C12S10952   5.183   6.158  10.151 -0.2136  0.7546 -0.6529
  107OSM   H12S10953   5.211   6.082  10.075 -1.0440 -1.4249  1.1041
  107OSM   H12T10954   5.270   6.219  10.181  0.0209  0.5681 -0.9434
  107OSM   C13S10955   5.081   6.247  10.077  0.7546  0.2576 -0.8709
  107OSM   H13S10956   5.051   6.334  10.139 -0.3114 -0.9829  0.4272
  107OSM   H13T10957   4.991   6.182  10.073 -0.4515  1.3558  3.0545
  107OSM   C14S10958   5.124   6.293   9.938  0.3136 -0.3610 -0.2056
  107OSM   H14S10959   5.213   6.353   9.965 -1.4032  1.3349  2.0072
  107OSM   H14T10960   5.057   6.365   9.887  0.1759 -1.9415 -2.4131
  107OSM   C15S10961   5.143   6.180   9.837 -0.4991 -0.7800 -0.4778
  107OSM   H15S10962   5.067   6.099   9.844 -0.5606 -0.6181  1.3266
  107OSM   H15T10963   5.232   6.121   9.867  0.0461  0.3742  0.2517
  107OSM   C16S10964   5.150   6.218   9.689 -0.2597  0.2055 -0.3440
  107OSM   H16S10965   5.248   6.263   9.662  0.2182 -1.1678 -1.0210
  107OSM   H16T10966   5.076   6.295   9.661 -1.5730  0.5965  3.6196
  107OSM   C17S10967   5.132   6.099   9.595  0.0248  0.1002 -0.3989
  107OSM   H17S10968   5.095   6.146   9.502  0.6031  0.8514 -0.2527
  107OSM   H17T10969   5.051   6.034   9.637  0.4288  0.5039  1.0580
  107OSM   C18S10970   5.258   6.017   9.574 -1.0344  0.1390 -0.2914
  107OSM   H18S10971   5.343   6.087   9.559 -1.9219  1.1810 -0.5583
  107OSM   H18T10972   5.255   5.947   9.487 -0.4740 -0.7692  0.3983
  107OSM   H18U10973   5.273   5.950   9.661 -0.8729 -4.1258 -3.2829
  107OSM    C1F10974   5.124   5.111  10.469  0.1466  0.1611 -0.4981
  107OSM     OF10975   5.006   5.142  10.479 -0.3162 -0.6214 -0.1156
  107OSM    C2F10976   5.172   5.036  10.352 -0.1255 -0.3196 -0.0926
  107OSM    H2F10977   5.256   4.968  10.381  0.1219  1.0064  2.5720
  107OSM    H2G10978   5.211   5.113  10.282  0.3459  0.2172  0.7471
  107OSM    C3F10979   5.051   4.967  10.283  1.1610  0.0954 -0.1553
  107OSM    H3F10980   4.984   5.046  10.243  2.2034  1.1857  0.1643
  107OSM    H3G10981   4.993   4.905  10.355 -0.1892 -1.0186 -2.1031
  107OSM    C4F10982   5.094   4.869  10.169  0.1327  0.1539  0.1300
  107OSM    H4F10983   5.142   4.777  10.208  0.2864  0.5527  0.9012
  107OSM    H4G10984   5.155   4.927  10.097 -0.8800 -0.2735 -1.1110
  107OSM    C5F10985   4.974   4.825  10.083 -0.0119 -0.8345  0.6194
  107OSM    H5F10986   4.890   4.787  10.144  0.9367 -0.7882  2.0132
  107OSM    H5G10987   5.017   4.744  10.021 -0.2984 -0.1724 -0.4771
  107OSM    C6F10988   4.930   4.931   9.990  0.3311 -0.0171  0.4990
  107OSM    H6F10989   4.978   5.030  10.003 -1.7456  0.9589  1.1921
  107OSM    H6G10990   4.819   4.939   9.993  0.1422 -1.7025 -0.8206
  107OSM    C7F10991   4.956   4.892   9.834  0.6439 -0.2688  0.6238
  107OSM    H7F10992   4.921   4.788   9.820  1.1833 -0.5172  1.1243
  107OSM    H7G10993   5.063   4.903   9.805  0.0272  3.7207 -0.8005
  107OSM    C8F10994   4.867   4.967   9.737 -0.1059  0.5581 -0.4330
  107OSM    H8F10995   4.770   4.991   9.786  1.0549 -1.8221  3.4752
  107OSM    H8G10996   4.833   4.904   9.652  0.2797  1.7184 -1.4739
  107OSM    C9F10997   4.944   5.089   9.681 -0.2235  0.2492 -1.3175
  107OSM    H9F10998   4.997   5.142   9.762 -0.0197 -1.4352 -0.3158
  107OSM   C10F10999   4.966   5.118   9.551 -0.3143  0.3703 -0.9655
  107OSM   H10F11000   5.014   5.213   9.521  2.2017 -0.8410 -1.0382
  107OSM   C11F11001   4.914   5.041   9.434 -0.6026 -0.5756 -0.4074
  107OSM   H11F11002   4.824   4.980   9.459 -0.5158  0.0448  1.5868
  107OSM   H11G11003   4.979   4.961   9.391 -2.2993 -0.8042 -2.7453
  107OSM   C12F11004   4.866   5.129   9.323  0.3701 -0.3103 -0.3083
  107OSM   H12F11005   4.948   5.182   9.269  0.0642 -0.1701 -0.6365
  107OSM   H12G11006   4.797   5.202   9.370 -1.1952 -0.4883 -2.2231
  107OSM   C13F11007   4.791   5.044   9.217 -0.0372  0.5481  0.1065
  107OSM   H13F11008   4.705   5.001   9.272  0.3641  0.0626  0.3569
  107OSM   H13G11009   4.855   4.959   9.187 -0.5117  0.5034 -0.7856
  107OSM   C14F11010   4.747   5.115   9.102  0.5760  0.2434  0.8211
  107OSM   H14F11011   4.679   5.201   9.123  0.8621  0.2654  1.6978
  107OSM   H14G11012   4.687   5.039   9.048 -0.4461 -0.3350  2.6934
  107OSM   C15F11013   4.854   5.172   9.018  0.3826  0.7027  0.4240
  107OSM   H15F11014   4.906   5.082   8.979 -2.2802  0.0163 -1.8456
  107OSM   H15G11015   4.932   5.231   9.071 -1.3120  3.2510  0.2494
  107OSM   C16F11016   4.796   5.265   8.903  0.5395 -0.5217 -0.4994
  107OSM   H16F11017   4.708   5.220   8.852 -0.2436 -0.1787  0.4877
  107OSM   H16G11018   4.875   5.285   8.829  1.0973  0.1340  0.2542
  107OSM   C17F11019   4.752   5.407   8.959 -0.0313  0.1077  0.0687
  107OSM   H17F11020   4.832   5.455   9.020 -0.5523  0.8050  0.2121
  107OSM   H17G11021   4.663   5.397   9.024 -0.7974  0.3192 -0.9219
  107OSM   C18F11022   4.719   5.510   8.850  0.2386  0.3984 -0.4265
  107OSM   H18F11023   4.646   5.587   8.882  2.0348  2.3744 -0.8297
  107OSM   H18G11024   4.673   5.471   8.756  2.6711 -0.0516 -1.5059
  107OSM   H18H11025   4.811   5.562   8.816  0.2616  0.4988 -0.2139
  108OSM      N11026   1.434   6.102  10.817  0.4935 -0.8141 -0.3029
  108OSM    C1511027   1.555   6.148  10.896  0.9539  0.0255 -0.1401
  108OSM   H15A11028   1.515   6.204  10.979  2.7226  0.9817  0.1075
  108OSM   H15B11029   1.606   6.216  10.829 -1.6045  1.2334 -0.9996
  108OSM   H15C11030   1.624   6.071  10.926  0.2657  0.3226  2.4631
  108OSM    C1411031   1.346   6.033  10.916  0.4502  0.1403  0.0053
  108OSM   H14A11032   1.249   5.999  10.881  0.7837 -0.2139 -0.5929
  108OSM   H14B11033   1.314   6.102  10.992 -0.0160 -0.1816  0.1074
  108OSM   H14C11034   1.396   5.945  10.954 -1.9535 -0.7108  1.4163
  108OSM    C1311035   1.354   6.214  10.762  0.3103  0.9331  0.0104
  108OSM   H13A11036   1.403   6.270  10.684  2.7494  0.1271  0.8593
  108OSM   H13B11037   1.318   6.282  10.838 -1.9530  0.3681 -0.4876
  108OSM   H13C11038   1.267   6.179  10.709  0.8696 -0.5022 -0.0283
  108OSM    C1211039   1.463   6.009  10.699 -0.0164  0.7634 -0.1217
  108OSM   H12A11040   1.511   5.917  10.730  0.3254  0.0781 -2.4857
  108OSM   H12B11041   1.536   6.065  10.642 -1.6846  0.6486 -2.5007
  108OSM    C1111042   1.346   5.985  10.605  0.1365 -0.6984 -0.4347
  108OSM   H11A11043   1.390   5.938  10.515 -0.5195  1.3842 -1.9426
  108OSM   H11B11044   1.308   6.082  10.565  1.4074  0.3030  0.6951
  108OSM      P11045   1.265   5.752  10.693  0.1882  0.3986 -0.8105
  108OSM    O1311046   1.397   5.730  10.754  0.5312  0.0313  0.5114
  108OSM    O1411047   1.143   5.707  10.766  0.1189 -0.2539 -0.2686
  108OSM    O1111048   1.258   5.697  10.533  0.2879  0.2995 -0.8611
  108OSM    O1211049   1.249   5.908  10.669 -0.2074  0.4235 -0.4355
  108OSM    C1S11050   1.125   5.682  10.485  0.2487 -0.6507  0.4229
  108OSM    H1S11051   1.042   5.708  10.555 -0.4644  0.0871 -0.6560
  108OSM    H1T11052   1.107   5.577  10.454  1.0876 -0.0528 -2.4419
  108OSM     NF11053   0.956   5.758  10.325 -0.0010  0.3213  0.1878
  108OSM    HNF11054   0.927   5.697  10.252  0.4617  0.8723 -0.4626
  108OSM    C2S11055   1.100   5.768  10.351 -0.7173  0.5630 -0.2630
  108OSM    H2S11056   1.127   5.873  10.374  1.7744  0.1052 -0.7988
  108OSM    C3S11057   1.185   5.718  10.233  0.2930  1.1395  0.0324
  108OSM    H3S11058   1.173   5.610  10.209 -0.5643  1.4133 -0.8467
  108OSM     O311059   1.330   5.731  10.256 -0.1589  0.0034  0.3293
  108OSM    HO311060   1.354   5.708  10.346 -0.5695  1.0270  0.7116
  108OSM    C4S11061   1.156   5.794  10.109 -0.1162 -0.6268 -0.0335
  108OSM    H4S11062   1.164   5.903  10.126  1.7957 -0.3713 -2.1181
  108OSM    C5S11063   1.105   5.756   9.993 -0.0153 -0.0974  0.2093
  108OSM    H5S11064   1.082   5.652   9.967 -1.2794  0.5001 -1.1649
  108OSM    C6S11065   1.081   5.854   9.885  0.0232 -0.1734  0.0540
  108OSM    H6S11066   1.145   5.943   9.870 -1.1890  0.5297 -1.1626
  108OSM    H6T11067   0.983   5.907   9.891  0.2813  0.3709 -0.5068
  108OSM    C7S11068   1.098   5.780   9.754  0.2227 -0.0474  0.9072
  108OSM    H7S11069   1.033   5.690   9.754  1.0446 -0.6577  0.8638
  108OSM    H7T11070   1.202   5.741   9.750 -0.4333 -1.7791 -0.4894
  108OSM    C8S11071   1.044   5.855   9.637 -0.1831  0.4660  0.5642
  108OSM    H8S11072   1.063   5.965   9.645  1.0454  0.2692  0.6497
  108OSM    H8T11073   0.933   5.858   9.634 -0.1603  1.5130 -0.3306
  108OSM    C9S11074   1.113   5.800   9.508 -0.3719 -0.3772  0.0372
  108OSM    H9S11075   1.116   5.689   9.513  3.7145 -0.4583 -0.8048
  108OSM    H9T11076   1.220   5.829   9.502  0.0188 -1.3258  1.7461
  108OSM   C10S11077   1.042   5.852   9.384  0.0708  0.3534  0.3070
  108OSM   H10S11078   1.031   5.963   9.390  1.2943  0.4636  0.7903
  108OSM   H10T11079   0.942   5.804   9.379  0.1977  0.1942 -0.9517
  108OSM   C11S11080   1.106   5.815   9.246 -0.1388  0.0478  0.0475
  108OSM   H11S11081   1.136   5.708   9.247  2.9135  0.8096  1.0544
  108OSM   H11T11082   1.199   5.875   9.239  0.2391 -0.4503  0.6596
  108OSM   C12S11083   1.024   5.854   9.123 -0.5485  0.1520 -0.6212
  108OSM   H12S11084   0.992   5.960   9.119  0.0762  0.3191 -1.5341
  108OSM   H12T11085   0.936   5.786   9.125 -0.3781 -0.0724 -0.6344
  108OSM   C13S11086   1.098   5.831   8.996 -0.0320  0.4798  0.2116
  108OSM   H13S11087   1.099   5.722   8.975  1.6633  0.8588 -2.0220
  108OSM   H13T11088   1.196   5.879   9.013  0.7022 -1.0057  0.4013
  108OSM   C14S11089   1.046   5.906   8.877  0.3478 -0.2023  0.4608
  108OSM   H14S11090   1.045   6.014   8.902  0.4249 -0.4013  1.3568
  108OSM   H14T11091   0.943   5.868   8.859  0.8020 -0.3483 -2.3382
  108OSM   C15S11092   1.128   5.884   8.748 -0.2080  0.3954  0.3958
  108OSM   H15S11093   1.142   5.775   8.734 -0.6842  0.6311 -2.3142
  108OSM   H15T11094   1.232   5.919   8.762  0.9386 -2.0424 -1.2777
  108OSM   C16S11095   1.076   5.953   8.624  0.2848 -0.1530  0.3755
  108OSM   H16S11096   1.041   6.057   8.642 -1.2786 -0.8666  1.7601
  108OSM   H16T11097   0.983   5.902   8.591  1.0308 -1.4617  0.2255
  108OSM   C17S11098   1.172   5.949   8.503  0.5560 -0.3038  0.8462
  108OSM   H17S11099   1.267   6.004   8.516 -0.3310  1.7809 -0.7993
  108OSM   H17T11100   1.119   6.009   8.425  0.0642 -0.5294  0.9995
  108OSM   C18S11101   1.192   5.809   8.452 -0.0726  0.5007  0.5219
  108OSM   H18S11102   1.225   5.816   8.347  1.0455  0.7485  0.8842
  108OSM   H18T11103   1.098   5.749   8.456  0.6891 -0.9011 -1.2812
  108OSM   H18U11104   1.267   5.758   8.516 -0.4429 -0.3882  0.2739
  108OSM    C1F11105   0.868   5.814  10.405 -0.5431 -0.6196  0.4353
  108OSM     OF11106   0.904   5.878  10.500  0.1026 -0.1482  0.5142
  108OSM    C2F11107   0.724   5.786  10.379  0.0029  0.5929  0.0492
  108OSM    H2F11108   0.672   5.788  10.477 -2.1188  0.2182 -1.0160
  108OSM    H2G11109   0.710   5.693  10.321 -1.1060 -0.0114  1.2361
  108OSM    C3F11110   0.652   5.905  10.311 -0.0262  0.0724 -0.4563
  108OSM    H3F11111   0.695   6.002  10.344 -0.2896 -0.5636  1.9105
  108OSM    H3G11112   0.543   5.908  10.328  0.1323  0.9543  0.5388
  108OSM    C4F11113   0.655   5.897  10.158  0.1722  0.8221 -0.7841
  108OSM    H4F11114   0.608   5.799  10.134 -1.7997  1.2149  1.0899
  108OSM    H4G11115   0.760   5.902  10.123  0.2493  2.4670 -0.3854
  108OSM    C5F11116   0.583   6.006  10.084  0.7908  0.3629  0.3604
  108OSM    H5F11117   0.612   6.096  10.141  0.9206 -0.1931  1.1868
  108OSM    H5G11118   0.473   5.999  10.102  0.6245  0.0943 -0.6565
  108OSM    C6F11119   0.616   6.021   9.935 -0.6116 -0.1342  0.0217
  108OSM    H6F11120   0.721   5.996   9.910  0.2100  3.3506 -0.5138
  108OSM    H6G11121   0.579   6.119   9.897  0.6331  0.2827 -0.1588
  108OSM    C7F11122   0.522   5.928   9.840  0.6987 -0.1396  0.3165
  108OSM    H7F11123   0.421   5.967   9.862  0.9541  1.7614 -1.5364
  108OSM    H7G11124   0.533   5.822   9.872  1.7897  0.6163  2.6542
  108OSM    C8F11125   0.541   5.970   9.697 -0.2551  0.2696  1.0257
  108OSM    H8F11126   0.645   5.941   9.671 -0.2991  1.4887 -0.6326
  108OSM    H8G11127   0.527   6.080   9.695 -2.7757  0.0462  1.9010
  108OSM    C9F11128   0.436   5.921   9.601 -0.0359  0.0229  0.3412
  108OSM    H9F11129   0.336   5.942   9.641  1.5741  4.6462  2.6855
  108OSM   C10F11130   0.451   5.849   9.492 -0.3243  1.2356 -0.8947
  108OSM   H10F11131   0.364   5.809   9.437 -0.1483  0.1164 -0.3944
  108OSM   C11F11132   0.584   5.803   9.444  0.0821  0.7698 -0.3564
  108OSM   H11F11133   0.584   5.691   9.444  2.3592  0.6939 -2.5360
  108OSM   H11G11134   0.656   5.810   9.529  0.2786 -1.6936 -0.2302
  108OSM   C12F11135   0.626   5.855   9.309 -0.2783 -0.1795  0.6849
  108OSM   H12F11136   0.730   5.819   9.300 -0.5170 -1.1981  1.6858
  108OSM   H12G11137   0.636   5.965   9.304  0.7821 -0.2671  0.5979
  108OSM   C13F11138   0.531   5.811   9.193 -0.7428  0.2616  0.4664
  108OSM   H13F11139   0.432   5.854   9.218 -1.4036  0.3717 -2.1092
  108OSM   H13G11140   0.532   5.703   9.218 -1.4346  0.9830  4.3725
  108OSM   C14F11141   0.586   5.845   9.053  0.3690 -0.6190 -1.2658
  108OSM   H14F11142   0.594   5.742   9.011 -3.4816 -1.7015  0.1162
  108OSM   H14G11143   0.688   5.886   9.062  0.3692 -0.1395 -3.0801
  108OSM   C15F11144   0.494   5.931   8.974 -0.1790  0.4117 -0.2063
  108OSM   H15F11145   0.476   6.023   9.033 -1.9702 -1.3859  2.2674
  108OSM   H15G11146   0.396   5.878   8.971  0.5340 -0.9114 -1.7094
  108OSM   C16F11147   0.547   5.952   8.837  0.1657  0.2255  0.2146
  108OSM   H16F11148   0.658   5.953   8.843  0.2219 -0.5977 -0.5415
  108OSM   H16G11149   0.519   6.045   8.783  2.0176 -0.9560 -3.0503
  108OSM   C17F11150   0.508   5.840   8.743 -0.3075  0.7275  1.0921
  108OSM   H17F11151   0.401   5.816   8.762  0.3344 -1.0088  2.9200
  108OSM   H17G11152   0.548   5.741   8.774 -4.5771 -1.0039  1.7891
  108OSM   C18F11153   0.541   5.872   8.597 -0.2800 -0.0150 -0.5826
  108OSM   H18F11154   0.469   5.943   8.551 -0.5714  0.1327  0.0899
  108OSM   H18G11155   0.567   5.778   8.544  0.5073  0.8293 -1.7350
  108OSM   H18H11156   0.637   5.927   8.598  0.5319 -1.2563 -3.0124
  109OSM      N11157   5.923   3.810  10.551  0.9283  0.1478  0.4594
  109OSM    C1511158   6.005   3.760  10.437 -0.6353  0.5763 -0.3020
  109OSM   H15A11159   5.982   3.805  10.341  3.2064  1.4637 -0.9867
  109OSM   H15B11160   5.988   3.655  10.417 -0.2615  0.6133 -0.8612
  109OSM   H15C11161   6.109   3.781  10.456 -0.5363 -0.6023  0.5683
  109OSM    C1411162   5.781   3.761  10.541 -0.6038  0.5688 -0.4769
  109OSM   H14A11163   5.716   3.827  10.597 -0.1888  0.3838  0.2304
  109OSM   H14B11164   5.763   3.664  10.583  0.5826  0.7197  0.4217
  109OSM   H14C11165   5.748   3.778  10.439 -0.4397 -0.9010 -0.7861
  109OSM    C1311166   5.974   3.743  10.678  0.3409  0.2578 -0.9961
  109OSM   H13A11167   5.906   3.750  10.762  3.3812  0.5227  1.6180
  109OSM   H13B11168   6.066   3.785  10.716 -1.7047  5.2512 -0.8077
  109OSM   H13C11169   5.983   3.637  10.659  0.4449  0.4497 -2.1132
  109OSM    C1211170   5.922   3.960  10.572 -0.2634  0.1603 -0.3683
  109OSM   H12A11171   5.893   3.984  10.673  0.5086 -1.0222  0.1559
  109OSM   H12B11172   5.848   4.002  10.506  0.8449 -0.9961 -2.4216
  109OSM    C1111173   6.060   4.032  10.561  0.2682 -0.1887 -0.3177
  109OSM   H11A11174   6.047   4.142  10.574 -1.7598 -0.6651  2.3840
  109OSM   H11B11175   6.099   4.013  10.459  1.1535 -0.2617  0.0231
  109OSM      P11176   6.306   4.007  10.640  0.3865 -0.5802 -0.4769
  109OSM    O1311177   6.336   4.147  10.701 -0.2804  0.3152 -0.3909
  109OSM    O1411178   6.375   3.888  10.684 -0.5714  0.0914  0.2953
  109OSM    O1111179   6.319   4.029  10.486  0.1998 -0.1634  0.7444
  109OSM    O1211180   6.148   3.981  10.660 -0.4973 -0.5082 -1.0275
  109OSM    C1S11181   6.431   4.103  10.430  0.4346  0.5269  0.2888
  109OSM    H1S11182   6.528   4.077  10.476  0.5241  1.0857  0.4235
  109OSM    H1T11183   6.406   4.208  10.456 -0.5433  0.6120 -0.8848
  109OSM     NF11184   6.570   4.145  10.225  0.0771  0.2443  0.7623
  109OSM    HNF11185   6.558   4.239  10.195 -1.1905  0.6283  2.3545
  109OSM    C2S11186   6.450   4.078  10.281 -0.1404 -0.3869  0.4843
  109OSM    H2S11187   6.461   3.968  10.269 -1.2917 -0.4214 -0.4593
  109OSM    C3S11188   6.324   4.129  10.204  0.0261  0.2159  0.1652
  109OSM    H3S11189   6.306   4.235  10.233 -0.0408 -0.2610  2.0591
  109OSM     O311190   6.210   4.065  10.257 -0.0822  0.0926  0.0654
  109OSM    HO311191   6.246   4.038  10.342  1.5818  2.1802  0.1207
  109OSM    C4S11192   6.335   4.114  10.058 -0.5634  0.0510 -0.9356
  109OSM    H4S11193   6.383   4.209  10.029  1.4377 -0.0922  1.6213
  109OSM    C5S11194   6.304   4.008   9.978  0.5353 -0.6070  0.6372
  109OSM    H5S11195   6.268   3.914  10.024 -1.4374 -0.7722 -1.0893
  109OSM    C6S11196   6.313   4.009   9.827  0.4224 -0.2206 -0.3515
  109OSM    H6S11197   6.229   4.059   9.774  1.0044  1.1926  0.0225
  109OSM    H6T11198   6.296   3.904   9.794 -3.1939  0.0389  0.2137
  109OSM    C7S11199   6.449   4.054   9.779 -0.5835  0.0982 -1.3223
  109OSM    H7S11200   6.528   4.001   9.837 -0.0414  0.8673 -1.3378
  109OSM    H7T11201   6.461   4.160   9.808  1.7100 -0.1159 -1.2647
  109OSM    C8S11202   6.475   4.027   9.628 -0.0289 -0.3829 -0.3254
  109OSM    H8S11203   6.507   3.924   9.601 -0.0358 -0.2103 -1.0086
  109OSM    H8T11204   6.558   4.096   9.600  0.8211 -0.9610  0.6817
  109OSM    C9S11205   6.347   4.064   9.544 -0.4816  0.5136  0.2671
  109OSM    H9S11206   6.312   4.158   9.593  1.4950  0.5727  1.6851
  109OSM    H9T11207   6.275   3.981   9.561  2.4949 -2.3717 -0.1972
  109OSM   C10S11208   6.380   4.062   9.400 -0.6082 -0.1640  0.3440
  109OSM   H10S11209   6.411   3.959   9.373  0.4396  0.4585 -1.0066
  109OSM   H10T11210   6.468   4.129   9.384 -0.0430 -0.9729 -0.0099
  109OSM   C11S11211   6.275   4.118   9.304 -0.1429 -0.8479 -1.0154
  109OSM   H11S11212   6.253   4.224   9.329  2.6659 -0.4953  0.4000
  109OSM   H11T11213   6.182   4.061   9.322  0.6951 -1.9068  0.1100
  109OSM   C12S11214   6.320   4.115   9.157  0.2068  0.3471  0.1696
  109OSM   H12S11215   6.380   4.025   9.135 -1.6614 -1.1991  1.0874
  109OSM   H12T11216   6.393   4.195   9.131  1.4762 -0.3259  1.5105
  109OSM   C13S11217   6.195   4.131   9.066 -0.0950 -0.4924 -0.1058
  109OSM   H13S11218   6.138   4.223   9.088  2.0061  0.5119  1.5760
  109OSM   H13T11219   6.131   4.040   9.074 -1.5974  0.4134 -1.3240
  109OSM   C14S11220   6.229   4.148   8.921 -0.5323 -0.1326 -0.0383
  109OSM   H14S11221   6.300   4.230   8.900 -0.3287 -0.7494 -1.9703
  109OSM   H14T11222   6.136   4.178   8.867  0.1417  0.3463 -0.9630
  109OSM   C15S11223   6.276   4.023   8.846  0.0140  0.8432 -0.1414
  109OSM   H15S11224   6.193   3.957   8.813  0.3607  0.6542 -0.6334
  109OSM   H15T11225   6.334   3.970   8.924 -1.2525  1.2013  1.0980
  109OSM   C16S11226   6.366   4.038   8.719 -0.2850  0.1397 -0.1333
  109OSM   H16S11227   6.438   4.101   8.775  0.5162 -0.1957 -0.7682
  109OSM   H16T11228   6.319   4.097   8.638  0.9950  0.8292 -0.3969
  109OSM   C17S11229   6.436   3.913   8.676 -0.0556  0.6667 -0.2615
  109OSM   H17S11230   6.351   3.862   8.627  0.6801 -0.8273 -0.0342
  109OSM   H17T11231   6.472   3.848   8.758  2.5290  1.7953 -0.3898
  109OSM   C18S11232   6.553   3.931   8.573  0.6887 -0.4676 -0.8277
  109OSM   H18S11233   6.613   3.840   8.556 -0.2408 -1.0638 -0.9787
  109OSM   H18T11234   6.620   4.013   8.607  1.3717 -0.9914 -0.9008
  109OSM   H18U11235   6.509   3.970   8.478 -2.0290 -1.2578  0.0255
  109OSM    C1F11236   6.688   4.109  10.261 -1.0018  0.4711  0.1632
  109OSM     OF11237   6.713   4.012  10.336 -0.3636 -0.0198 -0.2824
  109OSM    C2F11238   6.796   4.200  10.217 -0.1158 -0.0491  0.3030
  109OSM    H2F11239   6.888   4.163  10.266  0.2330 -3.4512 -2.4627
  109OSM    H2G11240   6.781   4.305  10.251 -1.8212 -0.5745  1.2510
  109OSM    C3F11241   6.804   4.193  10.060 -0.5385 -0.7374 -0.7629
  109OSM    H3F11242   6.878   4.265  10.018 -0.5679 -0.1873  0.1149
  109OSM    H3G11243   6.709   4.230  10.015 -0.7494 -1.7507 -1.1819
  109OSM    C4F11244   6.833   4.060  10.000  0.5316  0.0205  0.0129
  109OSM    H4F11245   6.751   3.988  10.023  1.1927 -0.1990  1.8680
  109OSM    H4G11246   6.936   4.032  10.032  1.8645  3.8256 -0.5117
  109OSM    C5F11247   6.838   4.074   9.845 -0.1818 -0.0656 -0.4991
  109OSM    H5F11248   6.913   4.145   9.803  2.6896 -1.5853  1.6667
  109OSM    H5G11249   6.737   4.106   9.814 -0.2649 -1.7382 -2.1495
  109OSM    C6F11250   6.863   3.941   9.773 -0.1294  0.2355  0.6483
  109OSM    H6F11251   6.803   3.852   9.798 -0.9009  0.3226 -0.7597
  109OSM    H6G11252   6.970   3.918   9.790  0.0574 -0.8034 -1.5461
  109OSM    C7F11253   6.853   3.968   9.616 -0.9635  1.0243 -0.0103
  109OSM    H7F11254   6.918   4.054   9.589 -1.8979  1.3388 -1.3347
  109OSM    H7G11255   6.750   3.993   9.584 -1.3610  0.5240  0.8202
  109OSM    C8F11256   6.900   3.836   9.532  0.4344 -0.9877 -0.1519
  109OSM    H8F11257   6.995   3.801   9.577  0.1470 -0.3611  0.9751
  109OSM    H8G11258   6.908   3.883   9.432 -3.3080 -1.5429 -0.8582
  109OSM    C9F11259   6.800   3.729   9.532  0.7071  0.6170  0.2839
  109OSM    H9F11260   6.791   3.676   9.628  1.1535  0.1581  0.0721
  109OSM   C10F11261   6.727   3.691   9.423 -0.6943  0.1115 -0.4789
  109OSM   H10F11262   6.655   3.608   9.428  0.0841 -0.5457  0.1423
  109OSM   C11F11263   6.741   3.746   9.285  0.1862 -0.3347 -0.4106
  109OSM   H11F11264   6.748   3.664   9.210  2.5337  0.1423 -0.7866
  109OSM   H11G11265   6.836   3.801   9.272  0.7250 -1.5052 -1.6453
  109OSM   C12F11266   6.631   3.845   9.233  0.0041 -0.1574  0.4077
  109OSM   H12F11267   6.642   3.943   9.284  0.6716 -0.1212  0.2056
  109OSM   H12G11268   6.537   3.790   9.258  0.4343 -1.2073 -0.2018
  109OSM   C13F11269   6.636   3.872   9.082  0.2952 -0.1410  0.9821
  109OSM   H13F11270   6.546   3.910   9.030  0.2885 -1.1847  0.1985
  109OSM   H13G11271   6.647   3.777   9.027  1.2391  0.5294 -0.0421
  109OSM   C14F11272   6.754   3.957   9.043 -0.3691 -0.0588 -0.4292
  109OSM   H14F11273   6.839   3.937   9.111 -1.9562 -1.1372  1.3677
  109OSM   H14G11274   6.736   4.064   9.067  0.2200  0.3545 -1.7025
  109OSM   C15F11275   6.787   3.944   8.895  0.1440  0.0953 -0.0926
  109OSM   H15F11276   6.700   3.980   8.836 -0.2179 -1.3758 -0.5041
  109OSM   H15G11277   6.794   3.838   8.863  0.1064  0.1627 -0.3234
  109OSM   C16F11278   6.905   4.024   8.839  0.2728 -0.8513 -0.1667
  109OSM   H16F11279   6.909   4.006   8.729 -2.8525 -1.1427 -0.3213
  109OSM   H16G11280   7.000   3.989   8.883 -1.2306 -1.1789  3.0582
  109OSM   C17F11281   6.891   4.174   8.870 -0.3547  0.0445  0.2453
  109OSM   H17F11282   6.980   4.237   8.848  0.3055 -0.5343  1.2034
  109OSM   H17G11283   6.882   4.178   8.981 -1.3297 -1.2851  0.2325
  109OSM   C18F11284   6.762   4.239   8.811 -0.7908 -0.9029 -1.0180
  109OSM   H18F11285   6.755   4.344   8.848 -0.1525 -0.5226 -1.9498
  109OSM   H18G11286   6.679   4.179   8.854 -0.7837 -1.1463 -1.3431
  109OSM   H18H11287   6.770   4.240   8.700 -1.3366  2.1246 -1.1311
  110OSM      N11288   2.636   2.707  10.510 -0.4880  0.1414  0.2503
  110OSM    C1511289   2.650   2.622  10.393 -0.1220 -0.7541  0.3905
  110OSM   H15A11290   2.681   2.522  10.420  0.1806 -1.2651 -1.6804
  110OSM   H15B11291   2.732   2.653  10.328  0.4435 -0.8142  1.0635
  110OSM   H15C11292   2.562   2.623  10.330 -0.0241  1.7039  0.1623
  110OSM    C1411293   2.574   2.838  10.464 -0.3136 -0.0848 -0.2980
  110OSM   H14A11294   2.557   2.908  10.545 -1.1295  1.0881 -1.4498
  110OSM   H14B11295   2.475   2.804  10.435  0.8213 -0.4052 -4.3297
  110OSM   H14C11296   2.623   2.880  10.378  0.9546  4.2511  2.2631
  110OSM    C1311297   2.540   2.651  10.610 -0.4345 -0.0838  0.1665
  110OSM   H13A11298   2.584   2.566  10.660  0.9723 -0.9946 -2.4182
  110OSM   H13B11299   2.453   2.609  10.562 -1.8000  0.1194  2.3049
  110OSM   H13C11300   2.512   2.728  10.680 -0.3442  1.2695 -1.2367
  110OSM    C1211301   2.771   2.726  10.582 -0.2906 -0.6146  0.9202
  110OSM   H12A11302   2.765   2.778  10.676  1.1565  3.2766 -0.9337
  110OSM   H12B11303   2.829   2.791  10.518 -2.1436  0.2165  0.0040
  110OSM    C1111304   2.851   2.600  10.630  0.0091  0.0714  0.2152
  110OSM   H11A11305   2.942   2.641  10.679 -0.6985 -0.8280  2.4017
  110OSM   H11B11306   2.885   2.537  10.545 -2.5511 -0.1663 -0.7462
  110OSM      P11307   2.841   2.371  10.764  0.5251 -0.3078  0.4567
  110OSM    O1311308   2.962   2.388  10.845  0.1475 -0.1421  0.0395
  110OSM    O1411309   2.737   2.286  10.830  0.1488  0.1308 -0.4805
  110OSM    O1111310   2.884   2.305  10.629  0.7912 -0.2394  0.5720
  110OSM    O1211311   2.781   2.517  10.727 -0.2931 -0.4324  0.3774
  110OSM    C1S11312   2.783   2.257  10.548  0.0770 -0.3805  0.5460
  110OSM    H1S11313   2.711   2.341  10.539  0.9863  0.2568 -1.2812
  110OSM    H1T11314   2.728   2.174  10.596 -0.6160  0.0568  0.5216
  110OSM     NF11315   2.740   2.167  10.320 -0.4842  0.6783  0.6059
  110OSM    HNF11316   2.730   2.068  10.315 -0.6595  0.7616 -1.6631
  110OSM    C2S11317   2.839   2.213  10.412 -0.0037  0.6912  0.2839
  110OSM    H2S11318   2.893   2.296  10.361  1.6128  0.2264  1.1460
  110OSM    C3S11319   2.944   2.097  10.436 -0.1649  0.0340  0.3219
  110OSM    H3S11320   2.898   2.008  10.484 -1.0434 -0.2993 -1.0852
  110OSM     O311321   3.054   2.136  10.520 -0.0881 -0.7538 -0.3720
  110OSM    HO311322   3.012   2.209  10.566 -1.5464 -0.8422 -1.4868
  110OSM    C4S11323   3.010   2.047  10.306 -0.8399 -0.7884  0.3431
  110OSM    H4S11324   3.001   2.126  10.230 -2.2266  0.1984  1.4714
  110OSM    C5S11325   3.056   1.922  10.282 -0.4970  0.4166  0.6586
  110OSM    H5S11326   3.075   1.840  10.353 -0.6405 -1.9032 -1.7905
  110OSM    C6S11327   3.115   1.893  10.141  0.4681 -0.4842 -0.6873
  110OSM    H6S11328   3.096   1.790  10.104  2.2097 -0.4004 -1.9160
  110OSM    H6T11329   3.226   1.889  10.147  0.3508 -2.5651  2.0528
  110OSM    C7S11330   3.087   1.996  10.026  0.3686 -0.2747 -0.3723
  110OSM    H7S11331   3.115   2.099  10.055  0.6213 -0.3297 -0.4154
  110OSM    H7T11332   2.979   1.985  10.005  0.1139  0.0544  0.6662
  110OSM    C8S11333   3.153   1.952   9.898  0.0637  0.2138  0.3991
  110OSM    H8S11334   3.123   1.845   9.885 -1.9514  0.4116  2.8316
  110OSM    H8T11335   3.264   1.947   9.902  0.3589 -0.7195 -3.6693
  110OSM    C9S11336   3.096   2.030   9.772 -0.3909  0.3369  0.5743
  110OSM    H9S11337   3.134   2.130   9.800  1.4224 -1.3196  4.9049
  110OSM    H9T11338   2.986   2.033   9.759 -0.2990 -1.4560 -1.1864
  110OSM   C10S11339   3.165   1.977   9.642  0.0380 -0.2352  0.5786
  110OSM   H10S11340   3.144   1.868   9.637 -0.6560 -0.0476 -1.6819
  110OSM   H10T11341   3.274   1.996   9.640  0.0676 -0.3918 -1.3089
  110OSM   C11S11342   3.122   2.040   9.505  0.1273 -0.1397  0.0237
  110OSM   H11S11343   3.149   2.148   9.509 -0.3646  0.0298 -0.8490
  110OSM   H11T11344   3.011   2.032   9.498  0.1748 -0.6457 -0.2681
  110OSM   C12S11345   3.199   1.971   9.391  0.0544 -0.2232 -0.1420
  110OSM   H12S11346   3.166   1.865   9.386 -1.6958  0.2338  0.7963
  110OSM   H12T11347   3.308   1.971   9.410  0.3789 -1.4094 -1.7313
  110OSM   C13S11348   3.151   2.021   9.255  0.3182 -0.6091 -0.6565
  110OSM   H13S11349   3.170   2.130   9.249 -1.1790 -0.2593  0.2432
  110OSM   H13T11350   3.040   2.009   9.249  0.2154 -0.0303 -0.0283
  110OSM   C14S11351   3.212   1.940   9.143  0.4590 -0.3755 -0.3795
  110OSM   H14S11352   3.183   1.833   9.159  1.7170 -0.5392  1.0724
  110OSM   H14T11353   3.322   1.950   9.142  0.8054 -3.3289 -0.3713
  110OSM   C15S11354   3.167   1.990   9.011  0.1862  0.3593  0.4427
  110OSM   H15S11355   3.199   2.096   8.999  0.5011  0.3006  0.7375
  110OSM   H15T11356   3.056   1.991   9.013  0.1690  0.0052 -0.0076
  110OSM   C16S11357   3.221   1.899   8.894  0.4828  0.0432 -0.1021
  110OSM   H16S11358   3.164   1.804   8.897  0.8825 -0.1766  1.1837
  110OSM   H16T11359   3.326   1.873   8.916 -0.1262 -0.6700  2.3443
  110OSM   C17S11360   3.220   1.976   8.766 -0.1155 -0.4274  0.2426
  110OSM   H17S11361   3.309   2.043   8.770 -0.2613 -0.2795  2.0081
  110OSM   H17T11362   3.125   2.033   8.754  0.1612 -0.2015 -1.0233
  110OSM   C18S11363   3.246   1.901   8.633 -0.9420 -0.3157  0.5384
  110OSM   H18S11364   3.155   1.846   8.600 -1.9354  1.6246 -0.0953
  110OSM   H18T11365   3.327   1.825   8.634  0.4857  1.1607  0.3537
  110OSM   H18U11366   3.272   1.971   8.551 -1.3582 -0.2513  0.4580
  110OSM    C1F11367   2.660   2.245  10.256  0.1763  0.1112  0.5619
  110OSM     OF11368   2.685   2.367  10.265 -0.3863  0.8737 -0.3057
  110OSM    C2F11369   2.545   2.192  10.180  0.5324 -0.2176 -0.2476
  110OSM    H2F11370   2.465   2.244  10.237  1.7517  0.5072  0.8575
  110OSM    H2G11371   2.532   2.082  10.191 -2.4763 -0.0793 -1.3663
  110OSM    C3F11372   2.545   2.237  10.032  0.0455 -0.0017  0.3912
  110OSM    H3F11373   2.575   2.343  10.028  2.4948 -0.6600 -1.3254
  110OSM    H3G11374   2.447   2.207   9.988 -0.7730 -0.3218  2.3266
  110OSM    C4F11375   2.662   2.162   9.953 -0.4563 -0.5296 -0.1063
  110OSM    H4F11376   2.640   2.055   9.971 -0.1853 -0.3393  1.5079
  110OSM    H4G11377   2.761   2.171  10.002 -0.5995 -1.1475  0.3059
  110OSM    C5F11378   2.691   2.184   9.804 -0.6779 -0.4369 -0.4107
  110OSM    H5F11379   2.796   2.153   9.781 -0.2971 -1.1289  2.0584
  110OSM    H5G11380   2.688   2.293   9.783 -2.2493 -0.6350 -1.3151
  110OSM    C6F11381   2.586   2.122   9.717  1.3337  0.5204  0.0537
  110OSM    H6F11382   2.501   2.190   9.741  0.2834 -0.9757  0.7305
  110OSM    H6G11383   2.551   2.024   9.755  0.2009  1.1001  0.5838
  110OSM    C7F11384   2.598   2.134   9.565 -0.1465 -0.2677  0.1783
  110OSM    H7F11385   2.638   2.232   9.531  0.3503 -0.5099  0.0548
  110OSM    H7G11386   2.502   2.117   9.512  1.1549 -2.1094 -1.7472
  110OSM    C8F11387   2.687   2.021   9.515 -0.0691  0.0456  0.2423
  110OSM    H8F11388   2.629   1.926   9.518  0.2586 -0.1571  3.2761
  110OSM    H8G11389   2.770   2.008   9.587 -0.4431  0.7324  0.8074
  110OSM    C9F11390   2.746   2.058   9.382  0.2702  0.4999 -0.3040
  110OSM    H9F11391   2.832   2.124   9.398  0.4376  0.0746  0.6228
  110OSM   C10F11392   2.734   1.997   9.262  0.3364  0.0319  0.0492
  110OSM   H10F11393   2.809   2.021   9.185 -0.9442  1.2079 -0.8916
  110OSM   C11F11394   2.646   1.879   9.235 -0.8221  0.6936 -0.2965
  110OSM   H11F11395   2.581   1.864   9.324 -1.9357 -1.5815 -1.3810
  110OSM   H11G11396   2.709   1.787   9.235 -0.8513  0.6659  0.4645
  110OSM   C12F11397   2.553   1.887   9.113 -0.0923 -0.6860  0.3681
  110OSM   H12F11398   2.475   1.961   9.142  1.1349  0.3269  1.1958
  110OSM   H12G11399   2.506   1.789   9.090 -0.8056  0.0814 -1.7146
  110OSM   C13F11400   2.624   1.930   8.975  0.2456 -0.1383 -0.1835
  110OSM   H13F11401   2.682   2.022   9.000  2.9949 -2.2214  1.6130
  110OSM   H13G11402   2.539   1.963   8.911 -1.4683  0.1235  2.1314
  110OSM   C14F11403   2.709   1.826   8.915 -0.5596  0.1309  0.1650
  110OSM   H14F11404   2.641   1.755   8.863 -0.1735 -0.9948  1.1773
  110OSM   H14G11405   2.769   1.781   8.996 -0.9114  0.4451  0.6028
  110OSM   C15F11406   2.825   1.893   8.834 -0.1452 -0.1387  0.1903
  110OSM   H15F11407   2.912   1.825   8.845 -0.4304 -0.2495  1.9724
  110OSM   H15G11408   2.839   1.994   8.878 -0.4006  0.3056 -0.7240
  110OSM   C16F11409   2.800   1.892   8.682  0.1263  0.1663  0.0708
  110OSM   H16F11410   2.765   1.789   8.660 -0.4100  0.6158 -1.3087
  110OSM   H16G11411   2.895   1.916   8.629  1.5435 -0.3466  2.2822
  110OSM   C17F11412   2.703   2.014   8.656 -0.6924  0.4113  0.0355
  110OSM   H17F11413   2.761   2.100   8.696  1.6244 -0.3653 -1.4318
  110OSM   H17G11414   2.611   2.001   8.717 -0.5683  2.4360  0.7222
  110OSM   C18F11415   2.678   2.045   8.504 -0.4039  0.4069 -0.4503
  110OSM   H18F11416   2.658   1.945   8.459 -0.5632 -1.0320  2.5503
  110OSM   H18G11417   2.776   2.075   8.461  0.5469 -3.8731 -1.8016
  110OSM   H18H11418   2.593   2.116   8.492  0.6267  1.6348 -0.6755
  111OSM      N11419   2.148   6.639  10.987  0.3562  0.7383  0.7624
  111OSM    C1511420   2.038   6.708  11.061 -0.1910 -0.3405  0.1208
  111OSM   H15A11421   1.947   6.711  11.004 -0.3819 -0.8362  0.3970
  111OSM   H15B11422   2.066   6.810  11.083 -0.5245 -0.5603  1.6782
  111OSM   H15C11423   2.006   6.656  11.151  0.8134  0.2813  0.8575
  111OSM    C1411424   2.283   6.664  11.057  0.1338  0.4489  0.0464
  111OSM   H14A11425   2.370   6.626  11.004  0.6737  3.6011 -1.5203
  111OSM   H14B11426   2.298   6.612  11.151  0.8194  0.7222  0.0938
  111OSM   H14C11427   2.294   6.771  11.060  1.1629  0.3582  0.0267
  111OSM    C1311428   2.121   6.488  10.989 -0.3455 -0.2563 -0.8815
  111OSM   H13A11429   2.028   6.454  10.946 -1.0424 -1.8122  1.6157
  111OSM   H13B11430   2.122   6.464  11.094  0.6284  3.2814  0.0779
  111OSM   H13C11431   2.200   6.438  10.935 -0.5845  0.7522 -2.2314
  111OSM    C1211432   2.154   6.684  10.840 -0.2563 -0.3278 -0.3541
  111OSM   H12A11433   2.053   6.690  10.803  0.0496 -1.7438 -1.5160
  111OSM   H12B11434   2.213   6.610  10.787  0.7813 -1.2272  1.8735
  111OSM    C1111435   2.207   6.825  10.818  0.0314  0.0269  0.2066
  111OSM   H11A11436   2.227   6.843  10.711  2.8312 -1.6701  0.3564
  111OSM   H11B11437   2.304   6.855  10.863  0.5601  1.4451 -1.7674
  111OSM      P11438   1.970   6.940  10.774  0.1039  0.2267 -0.2345
  111OSM    O1311439   1.899   6.811  10.750 -0.8069 -0.3518  0.5145
  111OSM    O1411440   1.901   7.041  10.852  0.8361 -0.8028 -0.6307
  111OSM    O1111441   2.021   7.000  10.629 -0.5869 -0.1697  0.0538
  111OSM    O1211442   2.103   6.916  10.857 -0.1606 -0.0317  0.0692
  111OSM    C1S11443   1.928   6.972  10.525  1.1509 -0.6509 -0.7317
  111OSM    H1S11444   1.825   7.007  10.547  0.8667 -2.5108  1.1989
  111OSM    H1T11445   1.918   6.866  10.493 -1.3257 -0.2034 -1.6131
  111OSM     NF11446   1.872   7.079  10.307 -0.1401 -0.8654  0.2311
  111OSM    HNF11447   1.857   7.008  10.238  0.6391 -0.7907 -0.0344
  111OSM    C2S11448   1.983   7.053  10.403 -0.0453 -0.0211  0.3720
  111OSM    H2S11449   2.008   7.151  10.447 -1.1621 -0.4061  1.9534
  111OSM    C3S11450   2.106   6.981  10.348 -0.1000 -0.0161  0.0687
  111OSM    H3S11451   2.070   6.904  10.277  0.6576 -1.8255  1.5716
  111OSM     O311452   2.198   6.923  10.441 -0.1537 -0.1420 -0.0731
  111OSM    HO311453   2.156   6.935  10.527  1.4399  2.1442  0.4710
  111OSM    C4S11454   2.185   7.081  10.267  0.9731  0.1410  0.6672
  111OSM    H4S11455   2.213   7.175  10.316 -0.3615  0.4455  0.8849
  111OSM    C5S11456   2.225   7.070  10.141  0.5932 -0.5480  0.8611
  111OSM    H5S11457   2.198   6.981  10.083  0.6194 -0.6469  1.0017
  111OSM    C6S11458   2.303   7.174  10.051  0.2550 -0.0050  0.0825
  111OSM    H6S11459   2.401   7.132  10.022  0.3616 -1.1342  1.9428
  111OSM    H6T11460   2.326   7.262  10.115  0.8250  1.1631 -1.6659
  111OSM    C7S11461   2.229   7.225   9.925  0.2585  0.6676  0.1480
  111OSM    H7S11462   2.141   7.279   9.967  1.4127  2.5500  0.2779
  111OSM    H7T11463   2.200   7.140   9.861 -0.6252 -0.6275  2.1560
  111OSM    C8S11464   2.314   7.347   9.864 -0.4305  0.5854  0.5949
  111OSM    H8S11465   2.307   7.432   9.934  1.7742  1.2245  0.1247
  111OSM    H8T11466   2.264   7.380   9.771 -2.4990 -0.3665  1.3034
  111OSM    C9S11467   2.462   7.314   9.830 -0.5479 -0.6703  0.4795
  111OSM    H9S11468   2.463   7.223   9.766 -1.9950 -1.3040  1.3100
  111OSM    H9T11469   2.524   7.316   9.922 -0.5972  3.0833  0.5629
  111OSM   C10S11470   2.518   7.428   9.747 -0.9445 -0.2587 -0.0216
  111OSM   H10S11471   2.524   7.517   9.814  0.9226 -0.3016 -0.0843
  111OSM   H10T11472   2.461   7.469   9.661  1.4384  3.2695 -0.1443
  111OSM   C11S11473   2.668   7.389   9.706  0.3461  0.2192  0.3648
  111OSM   H11S11474   2.658   7.311   9.627  0.0212  1.5087 -0.9113
  111OSM   H11T11475   2.728   7.346   9.788 -0.4504 -1.6827  0.0037
  111OSM   C12S11476   2.736   7.494   9.622  0.4664  0.4371 -0.4529
  111OSM   H12S11477   2.762   7.576   9.692 -2.7711  0.0242  1.4519
  111OSM   H12T11478   2.660   7.529   9.549 -1.4636  0.7409  1.6033
  111OSM   C13S11479   2.861   7.447   9.558 -0.2170  0.1532  0.0961
  111OSM   H13S11480   2.902   7.355   9.604 -0.3433  1.3091  2.6580
  111OSM   H13T11481   2.947   7.512   9.585 -0.2119 -0.5907  1.9676
  111OSM   C14S11482   2.836   7.432   9.405  0.1037 -0.0327 -0.5583
  111OSM   H14S11483   2.823   7.536   9.371  0.3797  0.5993  1.1754
  111OSM   H14T11484   2.742   7.375   9.389  0.8028 -1.5667  0.5150
  111OSM   C15S11485   2.954   7.368   9.338  0.5909  0.1138 -0.3913
  111OSM   H15S11486   2.921   7.352   9.233 -1.3340  1.0994  0.0140
  111OSM   H15T11487   2.967   7.265   9.377 -0.4152  0.3935  0.7430
  111OSM   C16S11488   3.079   7.446   9.356  0.4334 -0.3213 -0.1472
  111OSM   H16S11489   3.107   7.426   9.461  0.4947 -1.5307 -0.3840
  111OSM   H16T11490   3.075   7.551   9.319  4.6044 -0.8542 -2.7630
  111OSM   C17S11491   3.199   7.392   9.266 -0.9882 -1.1830 -0.0035
  111OSM   H17S11492   3.173   7.386   9.158  0.8370 -2.6954 -0.4049
  111OSM   H17T11493   3.231   7.287   9.282  1.3527 -0.3090  1.5665
  111OSM   C18S11494   3.321   7.481   9.288 -0.0528 -0.4051 -0.1380
  111OSM   H18S11495   3.377   7.457   9.381 -0.1554  1.3198  0.4095
  111OSM   H18T11496   3.303   7.590   9.276 -1.0319 -0.2376  2.2411
  111OSM   H18U11497   3.395   7.452   9.211 -0.7200 -2.2037 -0.1580
  111OSM    C1F11498   1.784   7.171  10.320  0.3680 -0.4943 -0.4959
  111OSM     OF11499   1.797   7.268  10.400 -0.1264  0.5659 -0.0094
  111OSM    C2F11500   1.652   7.157  10.253 -0.4218  0.6786  0.4053
  111OSM    H2F11501   1.585   7.102  10.322 -1.0093  0.7897 -0.0649
  111OSM    H2G11502   1.665   7.098  10.160 -1.5065 -0.2129  0.8084
  111OSM    C3F11503   1.590   7.285  10.204 -0.0451 -1.2880  0.1401
  111OSM    H3F11504   1.586   7.349  10.294  1.8517  0.1513 -0.7324
  111OSM    H3G11505   1.495   7.267  10.150 -0.0318 -0.0478 -0.3113
  111OSM    C4F11506   1.680   7.354  10.101  0.1663 -0.0158  0.1264
  111OSM    H4F11507   1.766   7.410  10.142 -0.4300 -0.3900  1.9756
  111OSM    H4G11508   1.608   7.436  10.082  0.0742  0.3553  1.9079
  111OSM    C5F11509   1.707   7.272   9.974 -0.4238  0.3299 -0.5537
  111OSM    H5F11510   1.612   7.263   9.916 -0.5735 -0.4020 -0.1980
  111OSM    H5G11511   1.746   7.171   9.999  1.6561  1.0056 -0.8564
  111OSM    C6F11512   1.818   7.340   9.884 -0.0268 -0.2676  0.0104
  111OSM    H6F11513   1.910   7.328   9.944  0.2478  0.6676 -0.2026
  111OSM    H6G11514   1.798   7.448   9.864 -0.8722 -0.6043 -1.0435
  111OSM    C7F11515   1.831   7.263   9.754 -0.5197 -0.0598  0.2450
  111OSM    H7F11516   1.744   7.266   9.685 -0.0612 -0.1080 -0.3539
  111OSM    H7G11517   1.847   7.154   9.769 -0.6756 -0.2862 -1.0979
  111OSM    C8F11518   1.939   7.329   9.660 -0.4739 -0.7403  0.0531
  111OSM    H8F11519   2.041   7.317   9.702 -0.4641 -0.1699  0.2030
  111OSM    H8G11520   1.923   7.439   9.659  1.4397 -0.4109 -1.2201
  111OSM    C9F11521   1.935   7.266   9.524  1.0691  0.0275 -0.1183
  111OSM    H9F11522   1.876   7.175   9.512  0.9669  0.1720 -0.7589
  111OSM   C10F11523   2.007   7.303   9.415 -0.3298  0.3648  0.1081
  111OSM   H10F11524   1.997   7.245   9.322  0.1379 -1.9376  1.4265
  111OSM   C11F11525   2.107   7.419   9.402  0.3085 -0.0228  0.5281
  111OSM   H11F11526   2.197   7.389   9.345 -0.4450 -1.5661  0.1223
  111OSM   H11G11527   2.139   7.459   9.501  2.3154  0.9077 -0.4380
  111OSM   C12F11528   2.046   7.538   9.330 -0.2018  0.1511  0.5141
  111OSM   H12F11529   2.132   7.608   9.325 -0.4665  0.4768  0.4795
  111OSM   H12G11530   1.963   7.574   9.394 -2.3962 -1.8796 -1.0137
  111OSM   C13F11531   1.989   7.510   9.196  0.3785  0.1983  0.0879
  111OSM   H13F11532   1.907   7.437   9.209  0.2434  0.4516  0.6963
  111OSM   H13G11533   2.057   7.461   9.123 -1.8815 -1.9234 -0.7059
  111OSM   C14F11534   1.946   7.648   9.140 -0.1362  0.3825 -0.3600
  111OSM   H14F11535   2.035   7.714   9.138  0.0110  0.2457  0.9140
  111OSM   H14G11536   1.867   7.689   9.205  1.7821  1.3404  1.5011
  111OSM   C15F11537   1.900   7.641   8.986 -0.0578 -0.3655 -0.5041
  111OSM   H15F11538   1.806   7.584   8.991 -0.9397  1.1207  1.0538
  111OSM   H15G11539   1.983   7.586   8.937  1.4769  1.2960  0.0974
  111OSM   C16F11540   1.886   7.780   8.918  0.0916  0.3302 -0.5752
  111OSM   H16F11541   1.987   7.825   8.929  0.2975 -0.4795  1.4668
  111OSM   H16G11542   1.824   7.839   8.989 -1.3911  0.1771 -1.7141
  111OSM   C17F11543   1.849   7.781   8.773 -0.1389 -0.0084 -0.1677
  111OSM   H17F11544   1.756   7.725   8.749  0.4844 -0.4445 -1.6720
  111OSM   H17G11545   1.926   7.719   8.722 -2.2211 -1.1401 -2.1153
  111OSM   C18F11546   1.859   7.923   8.711  1.0033  0.0355  0.1355
  111OSM   H18F11547   1.795   7.994   8.768 -1.4543 -2.8323  1.2020
  111OSM   H18G11548   1.829   7.921   8.604 -1.1248  1.2660  0.6313
  111OSM   H18H11549   1.960   7.969   8.707  0.6485  1.0968  2.0285
  112OSM      N11550   0.628   5.552  10.940 -0.0734  0.3046 -0.4629
  112OSM    C1511551   0.608   5.598  11.086  0.8402 -0.1227  0.2634
  112OSM   H15A11552   0.515   5.548  11.107  0.0647  1.1778  0.0088
  112OSM   H15B11553   0.597   5.705  11.092  2.0456 -0.0401  3.6646
  112OSM   H15C11554   0.692   5.568  11.148  0.5229  1.2333  1.4043
  112OSM    C1411555   0.621   5.402  10.937  0.3150 -0.4089 -0.1801
  112OSM   H14A11556   0.617   5.360  10.838 -0.6433 -1.9413  0.4515
  112OSM   H14B11557   0.531   5.368  10.987  1.4038 -0.5341  1.7908
  112OSM   H14C11558   0.714   5.376  10.985  0.4070  0.1942 -0.0235
  112OSM    C1311559   0.512   5.605  10.866 -0.2505  0.4508 -0.5161
  112OSM   H13A11560   0.515   5.564  10.766  1.8221 -1.8681  0.3866
  112OSM   H13B11561   0.522   5.713  10.862 -2.9578  0.8155  0.8596
  112OSM   H13C11562   0.417   5.579  10.910 -0.4889 -0.7855 -1.7003
  112OSM    C1211563   0.756   5.601  10.874 -0.8087  0.1377 -0.5040
  112OSM   H12A11564   0.832   5.568  10.944 -3.3429 -1.3640  1.7693
  112OSM   H12B11565   0.759   5.705  10.900 -0.3858 -0.4233  1.9599
  112OSM    C1111566   0.780   5.581  10.724  1.1776  0.7801  0.2200
  112OSM   H11A11567   0.883   5.613  10.695  1.6699  0.6063  1.6897
  112OSM   H11B11568   0.712   5.647  10.666 -0.6652  0.6981  2.1779
  112OSM      P11569   0.880   5.334  10.673  0.1055  0.1493 -0.1977
  112OSM    O1311570   1.001   5.372  10.750  0.2262 -0.0497  0.0970
  112OSM    O1411571   0.810   5.204  10.701  0.2879 -0.2528  0.1854
  112OSM    O1111572   0.918   5.328  10.517 -0.4217  0.0136  0.4126
  112OSM    O1211573   0.771   5.444  10.681  0.0564  0.4472  0.0767
  112OSM    C1S11574   0.824   5.345  10.414  0.3491 -0.7721  1.1814
  112OSM    H1S11575   0.803   5.450  10.385  1.8679 -1.2783 -2.2767
  112OSM    H1T11576   0.727   5.298  10.438  0.3898 -1.0137  0.8685
  112OSM     NF11577   0.767   5.318  10.173  0.0745 -0.5281 -0.2031
  112OSM    HNF11578   0.699   5.249  10.149 -0.2556 -0.9209  1.6761
  112OSM    C2S11579   0.859   5.269  10.280  0.7651 -0.6454 -0.1250
  112OSM    H2S11580   0.961   5.284  10.240  0.7027 -3.3335 -1.5512
  112OSM    C3S11581   0.849   5.116  10.310 -0.8217 -0.9282 -0.4220
  112OSM    H3S11582   0.753   5.078  10.350  0.0038 -0.8284  1.7837
  112OSM     O311583   0.934   5.079  10.416  0.0265  0.0552  0.5061
  112OSM    HO311584   0.939   5.158  10.469 -2.9097  2.2747 -2.1663
  112OSM    C4S11585   0.873   5.039  10.188  0.1074 -0.1874  0.6092
  112OSM    H4S11586   0.779   5.017  10.136 -0.3464 -0.6928  1.6146
  112OSM    C5S11587   0.987   4.985  10.143  0.5215  0.0861 -0.6401
  112OSM    H5S11588   1.081   5.000  10.198 -1.2517  1.2453  2.2886
  112OSM    C6S11589   1.002   4.904  10.016 -0.2239 -0.7270 -0.0481
  112OSM    H6S11590   0.956   4.807  10.044 -0.9942 -0.3038  0.1611
  112OSM    H6T11591   1.111   4.883  10.002 -0.4335 -0.5749 -2.2739
  112OSM    C7S11592   0.954   4.978   9.898  1.2706 -0.0395 -0.5622
  112OSM    H7S11593   0.976   5.085   9.915 -2.5301  0.8618 -0.3280
  112OSM    H7T11594   0.844   4.962   9.900  1.4388 -1.2462  0.2532
  112OSM    C8S11595   1.006   4.928   9.755  0.3894 -0.6501  0.0437
  112OSM    H8S11596   0.974   4.822   9.749 -1.6772 -0.0938  0.4548
  112OSM    H8T11597   1.117   4.936   9.767  0.2300  1.4752  0.5934
  112OSM    C9S11598   0.968   5.000   9.629 -0.2055 -0.2009  0.4468
  112OSM    H9S11599   1.018   5.100   9.625  0.3193 -0.4321  1.0086
  112OSM    H9T11600   0.857   4.997   9.627 -0.1897 -3.4194 -0.4260
  112OSM   C10S11601   1.008   4.918   9.507  0.9271  0.3027 -0.7221
  112OSM   H10S11602   0.976   4.814   9.530  2.7201 -0.0358  0.4492
  112OSM   H10T11603   1.118   4.915   9.492  1.1428 -0.3352  0.8222
  112OSM   C11S11604   0.928   4.974   9.385  0.1413  0.3409  0.2912
  112OSM   H11S11605   0.928   5.084   9.371 -0.1532  0.5205  1.6180
  112OSM   H11T11606   0.822   4.947   9.406  0.2156  2.2115  3.8357
  112OSM   C12S11607   0.981   4.907   9.259  0.2994  0.0379  0.0283
  112OSM   H12S11608   0.933   4.807   9.250 -0.6194  0.5106 -0.4844
  112OSM   H12T11609   1.092   4.908   9.260  0.3448 -1.1230 -1.0380
  112OSM   C13S11610   0.942   4.977   9.131  1.0425 -0.4609  0.0296
  112OSM   H13S11611   0.993   5.076   9.136  1.3427 -0.5049 -1.4797
  112OSM   H13T11612   0.837   5.012   9.114  0.0748 -2.9561  0.4568
  112OSM   C14S11613   0.985   4.898   9.016  0.3402  0.3544 -0.0993
  112OSM   H14S11614   0.939   4.796   9.014 -1.6183  1.1670 -2.5592
  112OSM   H14T11615   1.094   4.881   9.024  0.3419 -0.5200 -1.5428
  112OSM   C15S11616   0.955   4.965   8.881  0.2870  0.0676  0.4450
  112OSM   H15S11617   1.014   5.059   8.878  1.8835 -0.6847  3.4004
  112OSM   H15T11618   0.849   4.998   8.877  0.4088  0.7471  1.9633
  112OSM   C16S11619   0.982   4.871   8.764 -0.2066  0.5814  0.5642
  112OSM   H16S11620   1.075   4.811   8.775  0.1192  0.8703 -0.5091
  112OSM   H16T11621   1.001   4.938   8.677 -2.4871  0.4061 -0.1193
  112OSM   C17S11622   0.871   4.771   8.723  0.2072 -0.9851  0.1832
  112OSM   H17S11623   0.775   4.825   8.709 -0.0392 -1.0003  1.6383
  112OSM   H17T11624   0.841   4.703   8.806 -2.0062 -0.6632 -0.3059
  112OSM   C18S11625   0.911   4.681   8.610 -0.5364  0.8613 -0.3897
  112OSM   H18S11626   0.834   4.601   8.606 -0.2242  0.2625  2.7291
  112OSM   H18T11627   1.011   4.634   8.616 -1.0905 -0.2416  0.7603
  112OSM   H18U11628   0.911   4.737   8.514  0.0629  0.5332 -0.5809
  112OSM    C1F11629   0.783   5.443  10.130 -0.3554  0.4834  0.5203
  112OSM     OF11630   0.876   5.514  10.165 -0.3503 -0.1296 -0.3062
  112OSM    C2F11631   0.676   5.489  10.025  0.4380 -0.6501 -0.0076
  112OSM    H2F11632   0.586   5.531  10.074 -0.6595  3.8438 -4.8895
  112OSM    H2G11633   0.643   5.389   9.989 -0.6515 -0.6644  0.9636
  112OSM    C3F11634   0.718   5.577   9.904  0.1687 -0.5376  0.1389
  112OSM    H3F11635   0.780   5.657   9.951  1.8342 -2.2520  0.9819
  112OSM    H3G11636   0.629   5.619   9.852 -1.5979 -0.4822  3.0176
  112OSM    C4F11637   0.799   5.508   9.794  0.4107  0.8767 -0.8487
  112OSM    H4F11638   0.885   5.454   9.838 -0.7488 -1.2227 -0.9822
  112OSM    H4G11639   0.822   5.600   9.738 -0.3813  0.5949 -1.6623
  112OSM    C5F11640   0.720   5.413   9.706  0.2112 -0.6439  0.3967
  112OSM    H5F11641   0.635   5.473   9.666  0.9690 -0.7193 -1.4688
  112OSM    H5G11642   0.690   5.324   9.765  0.4449 -0.5836  0.6067
  112OSM    C6F11643   0.795   5.361   9.580 -0.2151  1.0746  0.2863
  112OSM    H6F11644   0.740   5.267   9.558 -1.0784  1.9734 -1.6112
  112OSM    H6G11645   0.903   5.338   9.594 -0.7930 -1.3680  1.2304
  112OSM    C7F11646   0.794   5.457   9.463 -0.6200  0.8593  0.7227
  112OSM    H7F11647   0.858   5.544   9.489 -0.2081  0.7563  0.0751
  112OSM    H7G11648   0.693   5.488   9.430 -0.3031 -0.4798 -1.8108
  112OSM    C8F11649   0.857   5.388   9.339 -0.1737 -0.2655 -0.1390
  112OSM    H8F11650   0.805   5.292   9.316 -0.5279 -0.0370 -0.2988
  112OSM    H8G11651   0.961   5.365   9.369  0.4855  1.4163 -1.0341
  112OSM    C9F11652   0.857   5.488   9.219  0.1942  0.5475 -0.2479
  112OSM    H9F11653   0.901   5.588   9.236  3.0652 -0.3205 -1.7785
  112OSM   C10F11654   0.806   5.471   9.098 -0.1648  0.1113  0.1349
  112OSM   H10F11655   0.809   5.552   9.023  0.8486 -0.8636 -0.9011
  112OSM   C11F11656   0.743   5.349   9.031  0.0864  0.4850 -0.6359
  112OSM   H11F11657   0.746   5.258   9.095  0.6557 -0.4187 -1.9077
  112OSM   H11G11658   0.803   5.309   8.947  0.9890  2.7436 -1.1508
  112OSM   C12F11659   0.596   5.366   8.984  0.6341 -0.4956 -0.6785
  112OSM   H12F11660   0.585   5.464   8.933  3.4139 -0.0779 -0.6285
  112OSM   H12G11661   0.530   5.359   9.074  0.3757  2.0278 -0.5955
  112OSM   C13F11662   0.551   5.256   8.887 -0.1335  0.2737 -0.2874
  112OSM   H13F11663   0.562   5.154   8.930 -0.4922  0.7348  0.9527
  112OSM   H13G11664   0.639   5.262   8.819  0.0834  1.6341  0.0733
  112OSM   C14F11665   0.422   5.271   8.800  0.6182  0.3653 -0.1109
  112OSM   H14F11666   0.416   5.191   8.723 -0.5426  1.4886 -1.2270
  112OSM   H14G11667   0.423   5.362   8.737  0.1837 -1.0643 -2.3144
  112OSM   C15F11668   0.292   5.251   8.882  0.0383  0.4509 -0.1986
  112OSM   H15F11669   0.268   5.351   8.925  1.4860  1.7561 -2.2193
  112OSM   H15G11670   0.319   5.179   8.962  1.0889 -0.8768 -1.6961
  112OSM   C16F11671   0.177   5.202   8.789  0.5946  0.7809 -0.1810
  112OSM   H16F11672   0.193   5.095   8.762  1.0105  1.3668 -2.4619
  112OSM   H16G11673   0.186   5.257   8.693  0.4888 -0.0652 -0.6839
  112OSM   C17F11674   0.032   5.210   8.845  0.0458 -0.6145 -0.6787
  112OSM   H17F11675   0.038   5.172   8.950 -0.9048 -0.1406 -0.4390
  112OSM   H17G11676  -0.012   5.129   8.782  1.9086 -3.5777  1.5381
  112OSM   C18F11677  -0.036   5.348   8.831 -1.0196 -0.9743 -0.1512
  112OSM   H18F11678  -0.147   5.350   8.838 -0.9546 -0.2021  0.9021
  112OSM   H18G11679  -0.017   5.377   8.725 -2.9602  0.8959 -0.0576
  112OSM   H18H11680   0.008   5.432   8.889  1.4187 -1.3599 -1.2895
  113OSM      N11681   1.037   4.257  10.789  0.6810  0.0812  0.1593
  113OSM    C1511682   0.959   4.155  10.865 -0.2037  0.2081 -0.1913
  113OSM   H15A11683   0.914   4.087  10.794 -2.5372  2.6490 -1.2302
  113OSM   H15B11684   0.887   4.201  10.930 -0.4792  0.6812 -0.8228
  113OSM   H15C11685   1.008   4.099  10.943 -2.3054 -1.7658 -0.1626
  113OSM    C1411686   0.936   4.322  10.695 -0.4573  0.0972  0.3263
  113OSM   H14A11687   0.888   4.253  10.627 -0.0812  0.1224  0.0374
  113OSM   H14B11688   0.982   4.391  10.626  0.7791 -0.7927  0.2221
  113OSM   H14C11689   0.863   4.380  10.749 -0.1813 -0.1817  1.0187
  113OSM    C1311690   1.088   4.373  10.876 -0.4394 -0.4738 -0.0029
  113OSM   H13A11691   1.150   4.345  10.959 -1.3343  0.7199  1.1010
  113OSM   H13B11692   0.999   4.416  10.919 -1.3917 -1.1299 -1.2470
  113OSM   H13C11693   1.134   4.455  10.823 -1.8637  1.4184  1.5430
  113OSM    C1211694   1.151   4.195  10.706 -0.3754 -0.3308 -0.2575
  113OSM   H12A11695   1.194   4.274  10.645  1.3144  0.6229  2.0168
  113OSM   H12B11696   1.113   4.120  10.638 -1.9263  2.2906 -2.4860
  113OSM    C1111697   1.275   4.128  10.778  0.5466  0.0145  0.3755
  113OSM   H11A11698   1.327   4.210  10.831 -1.9890  0.5452  2.2590
  113OSM   H11B11699   1.344   4.086  10.701  1.4025 -1.7403  2.0151
  113OSM      P11700   1.303   3.898  10.887 -0.1841  0.1481  0.3114
  113OSM    O1311701   1.441   3.926  10.923  0.9525 -0.4453 -0.4009
  113OSM    O1411702   1.220   3.809  10.963  0.0594 -0.4922  0.1506
  113OSM    O1111703   1.303   3.841  10.739  0.3801 -0.1559  0.5447
  113OSM    O1211704   1.232   4.028  10.873 -0.0591  0.3083  0.2570
  113OSM    C1S11705   1.181   3.793  10.679  0.2585  0.0453  0.6585
  113OSM    H1S11706   1.089   3.842  10.715  0.3262  0.0496  0.8254
  113OSM    H1T11707   1.168   3.683  10.689 -0.2536 -0.1561 -1.6616
  113OSM     NF11708   1.023   3.782  10.489  0.1550  0.0512  0.9124
  113OSM    HNF11709   1.020   3.685  10.466 -0.4674  0.1235  0.6839
  113OSM    C2S11710   1.164   3.818  10.525 -0.2537 -1.1023 -0.3701
  113OSM    H2S11711   1.193   3.923  10.506 -0.3458 -0.2538  3.4441
  113OSM    C3S11712   1.266   3.731  10.452  0.2045  0.5722 -0.0044
  113OSM    H3S11713   1.233   3.628  10.475 -1.4696  0.6802 -1.6111
  113OSM     O311714   1.403   3.740  10.497  0.2210  0.9158 -0.2943
  113OSM    HO311715   1.385   3.774  10.585 -0.1202 -1.2837  0.5276
  113OSM    C4S11716   1.253   3.743  10.298 -0.5883 -0.3599  0.7846
  113OSM    H4S11717   1.168   3.683  10.263 -0.6548 -0.3732  0.9686
  113OSM    C5S11718   1.328   3.807  10.215  0.1217 -0.0861 -0.5043
  113OSM    H5S11719   1.419   3.860  10.247 -0.5708  1.2829 -0.7138
  113OSM    C6S11720   1.313   3.795  10.063 -0.6924 -0.5400 -0.5396
  113OSM    H6S11721   1.410   3.762  10.021  0.7265  2.1562  0.3659
  113OSM    H6T11722   1.310   3.896  10.018  0.1344 -0.4911 -0.4941
  113OSM    C7S11723   1.188   3.718  10.015  0.0092  0.9667 -0.4216
  113OSM    H7S11724   1.104   3.752  10.080 -0.7579 -1.9753  0.2826
  113OSM    H7T11725   1.217   3.612  10.032 -1.7147  0.4958 -0.1773
  113OSM    C8S11726   1.163   3.750   9.867 -0.2061  0.5163 -0.0873
  113OSM    H8S11727   1.191   3.856   9.848  0.1690  0.5219  0.4786
  113OSM    H8T11728   1.055   3.751   9.842 -0.1113  2.2701 -0.5523
  113OSM    C9S11729   1.241   3.654   9.775  0.3347  0.7077 -0.0763
  113OSM    H9S11730   1.227   3.549   9.809  1.5900  0.3434 -0.6117
  113OSM    H9T11731   1.350   3.676   9.783  0.4828  0.4229 -1.1579
  113OSM   C10S11732   1.183   3.674   9.640  0.2611 -0.2056  0.1832
  113OSM   H10S11733   1.190   3.782   9.618  0.3262  0.1603  1.9067
  113OSM   H10T11734   1.074   3.651   9.631  0.6606 -1.8296 -1.1209
  113OSM   C11S11735   1.255   3.589   9.538 -0.2877  0.2436  0.5992
  113OSM   H11S11736   1.251   3.479   9.556  2.2958 -0.5828 -2.8359
  113OSM   H11T11737   1.362   3.612   9.550  0.3168 -1.9127 -0.1335
  113OSM   C12S11738   1.209   3.621   9.393 -0.5075 -0.1054  0.7776
  113OSM   H12S11739   1.207   3.732   9.386 -0.2642 -0.1783 -0.8365
  113OSM   H12T11740   1.107   3.588   9.367 -0.0005 -1.5332  0.5079
  113OSM   C13S11741   1.291   3.565   9.277  0.7196  0.0386 -0.2997
  113OSM   H13S11742   1.270   3.456   9.269  1.5340 -0.2905  1.5531
  113OSM   H13T11743   1.400   3.581   9.286  0.6984  0.9927 -1.4852
  113OSM   C14S11744   1.248   3.629   9.142  1.0146  0.0552 -0.0965
  113OSM   H14S11745   1.279   3.735   9.148 -0.4042  0.4342  1.1221
  113OSM   H14T11746   1.137   3.636   9.131  1.1415  1.2783 -0.8303
  113OSM   C15S11747   1.306   3.581   9.014 -0.6568  0.2668  0.7770
  113OSM   H15S11748   1.290   3.471   9.009  0.5550  0.0803  0.8471
  113OSM   H15T11749   1.416   3.594   9.011 -0.7676  1.2039 -1.5481
  113OSM   C16S11750   1.239   3.642   8.892 -0.6119  0.3678 -0.1327
  113OSM   H16S11751   1.233   3.750   8.916 -0.4139  0.0482  1.5119
  113OSM   H16T11752   1.131   3.616   8.894 -0.9489  1.6797 -0.2358
  113OSM   C17S11753   1.295   3.624   8.752  0.6477 -0.0674  0.2114
  113OSM   H17S11754   1.295   3.515   8.731  2.2831 -0.2313  0.9522
  113OSM   H17T11755   1.401   3.654   8.741  0.9325  0.6724  3.8063
  113OSM   C18S11756   1.218   3.704   8.645  0.0723  0.3716  0.2342
  113OSM   H18S11757   1.111   3.675   8.652  0.6845 -1.8213  1.4384
  113OSM   H18T11758   1.267   3.688   8.547  2.7008  2.3448  1.1057
  113OSM   H18U11759   1.232   3.812   8.668 -1.6905  0.3156  1.7746
  113OSM    C1F11760   0.921   3.864  10.504  0.6180 -0.5354 -0.4458
  113OSM     OF11761   0.929   3.966  10.567  0.0434  0.2662  0.1984
  113OSM    C2F11762   0.797   3.825  10.436 -0.0135 -0.8162 -0.0352
  113OSM    H2F11763   0.721   3.844  10.515 -1.1006 -3.3417 -0.3636
  113OSM    H2G11764   0.788   3.718  10.406 -0.0441 -0.2342 -2.2105
  113OSM    C3F11765   0.760   3.926  10.327  0.2209 -0.0276 -0.0332
  113OSM    H3F11766   0.745   4.026  10.372  0.4103  0.3358 -0.7575
  113OSM    H3G11767   0.662   3.897  10.282 -0.1192  0.6863  0.2365
  113OSM    C4F11768   0.866   3.943  10.217 -0.2379 -0.2804 -0.4232
  113OSM    H4F11769   0.899   3.842  10.186 -2.5848 -1.1172 -0.3835
  113OSM    H4G11770   0.953   4.005  10.248  0.2213 -2.1753  2.4668
  113OSM    C5F11771   0.802   4.013  10.096  0.3030  0.1329  0.0844
  113OSM    H5F11772   0.774   4.116  10.124  1.4634  0.9575 -1.5981
  113OSM    H5G11773   0.708   3.964  10.062  0.2930 -0.0313  0.3439
  113OSM    C6F11774   0.901   4.026   9.975  0.8333  0.5195 -0.4181
  113OSM    H6F11775   0.911   3.921   9.938  2.2462 -0.2405  1.8402
  113OSM    H6G11776   0.999   4.053  10.019  2.3489 -1.7011 -2.1569
  113OSM    C7F11777   0.837   4.115   9.861  0.2951 -0.0228  0.1447
  113OSM    H7F11778   0.815   4.215   9.905  0.7921 -0.4431  1.3919
  113OSM    H7G11779   0.740   4.070   9.832  0.8500 -1.3535  0.3188
  113OSM    C8F11780   0.914   4.148   9.737 -0.0164  0.0527  0.2454
  113OSM    H8F11781   0.998   4.222   9.741  0.2405 -0.0937 -1.4746
  113OSM    H8G11782   0.837   4.189   9.668  0.5510 -1.2991 -1.2629
  113OSM    C9F11783   0.974   4.025   9.674 -1.0366  0.6188 -0.0922
  113OSM    H9F11784   1.042   3.963   9.735  0.2561 -0.8628 -2.8429
  113OSM   C10F11785   0.966   3.990   9.549 -0.5880 -0.1808 -0.1643
  113OSM   H10F11786   1.009   3.891   9.526  0.9570  0.2555  0.7009
  113OSM   C11F11787   0.899   4.077   9.436  0.0651  0.7389 -0.7993
  113OSM   H11F11788   0.934   4.182   9.447 -0.7798  0.7798  2.7526
  113OSM   H11G11789   0.789   4.083   9.449  0.0794  1.8794 -1.1139
  113OSM   C12F11790   0.930   4.033   9.294  0.6910 -0.1888  0.0991
  113OSM   H12F11791   1.037   4.040   9.266  0.5139 -0.6351 -0.7085
  113OSM   H12G11792   0.864   4.093   9.227 -0.5321  0.1815  1.5611
  113OSM   C13F11793   0.895   3.883   9.264  0.5327 -0.5063 -0.4239
  113OSM   H13F11794   0.799   3.859   9.314 -0.1298 -0.0029 -1.4103
  113OSM   H13G11795   0.977   3.830   9.318 -2.0071 -1.5876  2.7132
  113OSM   C14F11796   0.891   3.849   9.108 -0.3116  0.2873  0.2438
  113OSM   H14F11797   0.997   3.835   9.079 -0.6218 -1.1886 -0.2651
  113OSM   H14G11798   0.855   3.938   9.052  1.6271  0.2065 -1.2443
  113OSM   C15F11799   0.804   3.728   9.088  0.9986  0.4148  0.2653
  113OSM   H15F11800   0.711   3.754   9.143  0.3373  1.3282 -1.2326
  113OSM   H15G11801   0.855   3.642   9.137 -1.1248 -2.2182 -1.8520
  113OSM   C16F11802   0.777   3.682   8.951 -0.3669  0.3670 -0.4419
  113OSM   H16F11803   0.875   3.645   8.915  0.3617  1.7646  0.0617
  113OSM   H16G11804   0.733   3.755   8.881 -2.3033  2.3888  2.6225
  113OSM   C17F11805   0.673   3.559   8.947 -0.4670 -0.5450  0.1411
  113OSM   H17F11806   0.586   3.582   9.012  0.3192  0.3702  0.9075
  113OSM   H17G11807   0.725   3.482   9.007 -0.7011  0.0920  1.1993
  113OSM   C18F11808   0.633   3.498   8.809 -0.4253  0.5975 -0.1031
  113OSM   H18F11809   0.714   3.463   8.741  0.4851  0.7201  0.8838
  113OSM   H18G11810   0.576   3.574   8.751 -1.8343 -0.8814 -0.7374
  113OSM   H18H11811   0.563   3.414   8.824  1.5673 -0.8389  1.6569
  114OSM      N11812   2.290   4.173  11.676 -0.1079  0.1797  0.3815
  114OSM    C1511813   2.148   4.205  11.720  0.4287 -0.5830 -0.2362
  114OSM   H15A11814   2.136   4.294  11.779 -2.2681 -1.5479  0.8026
  114OSM   H15B11815   2.100   4.122  11.769 -2.7342  1.7512  0.9432
  114OSM   H15C11816   2.092   4.219  11.628 -1.1350  0.9565  0.8914
  114OSM    C1411817   2.362   4.295  11.623  0.1693 -0.1890  0.5269
  114OSM   H14A11818   2.470   4.284  11.623  0.1822 -0.0763  0.6093
  114OSM   H14B11819   2.328   4.374  11.689 -1.4831  1.8037 -2.4421
  114OSM   H14C11820   2.321   4.338  11.533 -1.3175  2.8373  2.4586
  114OSM    C1311821   2.363   4.104  11.782 -0.0523  0.9042  0.1199
  114OSM   H13A11822   2.463   4.073  11.754 -0.5774 -0.7972  0.0076
  114OSM   H13B11823   2.313   4.011  11.806  0.5336 -0.2730 -2.8277
  114OSM   H13C11824   2.366   4.157  11.876 -0.2970 -2.7353  2.3931
  114OSM    C1211825   2.284   4.072  11.559  0.1801 -1.1889 -0.5286
  114OSM   H12A11826   2.240   3.978  11.586 -2.6776  0.0809 -0.4642
  114OSM   H12B11827   2.387   4.053  11.532  0.8869 -0.8429  1.7178
  114OSM    C1111828   2.219   4.123  11.425  0.0962  1.0334  0.4298
  114OSM   H11A11829   2.127   4.183  11.442 -0.7919 -0.1413 -0.0802
  114OSM   H11B11830   2.188   4.029  11.375  2.5168  1.2086 -1.5600
  114OSM      P11831   2.425   4.130  11.264 -0.4832 -0.1697  0.1495
  114OSM    O1311832   2.523   4.235  11.220 -0.3244 -0.2587 -0.1707
  114OSM    O1411833   2.477   4.021  11.336  0.2958  0.6219 -0.2775
  114OSM    O1111834   2.354   4.071  11.139 -0.2253  0.1997  0.5743
  114OSM    O1211835   2.307   4.193  11.345  0.1750  0.0400 -0.4787
  114OSM    C1S11836   2.348   4.131  11.010  0.3735 -0.8088 -0.4673
  114OSM    H1S11837   2.447   4.175  10.983 -0.0227 -0.6940 -1.7813
  114OSM    H1T11838   2.285   4.222  11.004  5.0816  2.9254  0.6080
  114OSM     NF11839   2.327   4.088  10.767  0.1792 -0.0613 -0.0710
  114OSM    HNF11840   2.242   4.130  10.736 -0.2427  0.3619  1.5452
  114OSM    C2S11841   2.313   4.029  10.898  0.7892  0.4280 -0.5525
  114OSM    H2S11842   2.381   3.941  10.898 -0.2097 -0.3772 -1.7195
  114OSM    C3S11843   2.165   3.979  10.927  0.5841  0.3474  0.1584
  114OSM    H3S11844   2.098   4.068  10.930  0.1653 -0.0015  1.5553
  114OSM     O311845   2.146   3.918  11.054  0.2826  0.1787 -0.1372
  114OSM    HO311846   2.208   3.958  11.116  0.2945 -1.0260  0.6565
  114OSM    C4S11847   2.103   3.902  10.809  0.3975  0.4449 -0.4805
  114OSM    H4S11848   2.030   3.963  10.755 -0.7004  0.8253  1.3552
  114OSM    C5S11849   2.121   3.768  10.778 -0.0300 -0.0474  0.1845
  114OSM    H5S11850   2.180   3.707  10.848  1.7297  0.8537 -0.4542
  114OSM    C6S11851   2.059   3.696  10.666  0.2299 -0.4350  0.5254
  114OSM    H6S11852   1.986   3.621  10.703  0.6563 -0.9229  0.3978
  114OSM    H6T11853   2.136   3.635  10.614 -0.6162 -0.3596 -0.8867
  114OSM    C7S11854   2.002   3.780  10.554  0.2352  0.1612  0.8378
  114OSM    H7S11855   1.933   3.851  10.606  2.1814  0.1110  3.6813
  114OSM    H7T11856   1.947   3.719  10.479  0.3858  0.5967  0.3684
  114OSM    C8S11857   2.111   3.864  10.478  0.0999  0.0195 -0.1795
  114OSM    H8S11858   2.199   3.891  10.540  1.6266 -0.1177 -2.1801
  114OSM    H8T11859   2.048   3.948  10.440  0.5702  0.1441 -0.6840
  114OSM    C9S11860   2.155   3.782  10.365  0.4893  0.6707 -0.2599
  114OSM    H9S11861   2.066   3.759  10.301 -1.7952 -0.7320  3.1219
  114OSM    H9T11862   2.191   3.681  10.393 -0.5176  0.1781 -0.6599
  114OSM   C10S11863   2.248   3.862  10.276  0.1277  0.3620 -0.2614
  114OSM   H10S11864   2.314   3.917  10.346  0.0793  1.9201 -1.3922
  114OSM   H10T11865   2.184   3.944  10.237  1.0978  2.1214  1.6219
  114OSM   C11S11866   2.324   3.781  10.178 -1.3845  0.3154 -0.0932
  114OSM   H11S11867   2.387   3.712  10.239 -1.6389  0.0440 -0.1328
  114OSM   H11T11868   2.387   3.852  10.121  1.6691 -1.4386  0.8612
  114OSM   C12S11869   2.237   3.692  10.088  0.9749 -0.5840 -0.1745
  114OSM   H12S11870   2.166   3.760  10.036 -1.2452 -0.5368  2.6935
  114OSM   H12T11871   2.174   3.622  10.145 -2.0777  1.0012 -1.3516
  114OSM   C13S11872   2.319   3.614   9.987 -0.1643 -0.7278 -0.8712
  114OSM   H13S11873   2.243   3.550   9.938 -2.7241  0.6914  0.9549
  114OSM   H13T11874   2.388   3.544  10.039 -1.2122  0.5184  2.5296
  114OSM   C14S11875   2.395   3.697   9.885  0.2948 -0.4553 -0.1681
  114OSM   H14S11876   2.470   3.758   9.940 -0.1244  0.2484 -0.3706
  114OSM   H14T11877   2.326   3.768   9.835  1.1782 -0.4011 -1.3525
  114OSM   C15S11878   2.470   3.605   9.786 -0.1253  0.3955  0.6616
  114OSM   H15S11879   2.400   3.538   9.732  0.3500 -0.6180  1.2695
  114OSM   H15T11880   2.531   3.535   9.847 -2.4966 -0.4941  2.1184
  114OSM   C16S11881   2.552   3.665   9.676 -0.3140 -0.0978  1.0876
  114OSM   H16S11882   2.607   3.587   9.619 -1.7772 -1.0161  0.8582
  114OSM   H16T11883   2.627   3.735   9.719 -0.3604  0.6991 -0.0922
  114OSM   C17S11884   2.466   3.738   9.575  0.0024  0.0172  0.1738
  114OSM   H17S11885   2.400   3.817   9.617 -0.8818  0.4809 -1.9535
  114OSM   H17T11886   2.394   3.657   9.546  1.5572 -1.2268 -0.3541
  114OSM   C18S11887   2.543   3.796   9.455  0.0945 -0.0195 -0.7122
  114OSM   H18S11888   2.606   3.878   9.494 -1.1040 -0.2805  2.0001
  114OSM   H18T11889   2.480   3.832   9.370 -0.7099  1.5479  0.5014
  114OSM   H18U11890   2.610   3.720   9.409  2.8209  0.9499  1.4321
  114OSM    C1F11891   2.448   4.093  10.696  0.9583  0.6582 -0.5654
  114OSM     OF11892   2.551   4.041  10.735  0.4089  0.4683 -0.7767
  114OSM    C2F11893   2.440   4.159  10.566  0.2215  0.3651 -0.0690
  114OSM    H2F11894   2.414   4.265  10.590  0.7607  0.3685  0.5501
  114OSM    H2G11895   2.359   4.113  10.506  0.5599 -1.0949  0.5555
  114OSM    C3F11896   2.576   4.160  10.484  0.3667 -0.0262  0.3341
  114OSM    H3F11897   2.620   4.058  10.478  0.2545 -0.0934  0.6327
  114OSM    H3G11898   2.642   4.232  10.537  2.7645  0.6241 -3.2107
  114OSM    C4F11899   2.541   4.212  10.350 -0.0826 -0.5414  0.5144
  114OSM    H4F11900   2.591   4.312  10.345 -0.1258 -0.4093  2.0530
  114OSM    H4G11901   2.434   4.221  10.323 -0.1097  0.4563  0.9091
  114OSM    C5F11902   2.606   4.148  10.231  0.8055 -0.6318 -0.1296
  114OSM    H5F11903   2.567   4.044  10.240 -3.1422  0.8337  2.1299
  114OSM    H5G11904   2.715   4.133  10.242  0.5623 -1.9996  0.6002
  114OSM    C6F11905   2.572   4.215  10.098  0.3499 -0.2771  0.2976
  114OSM    H6F11906   2.612   4.319  10.102  0.9018 -0.3901 -1.5453
  114OSM    H6G11907   2.464   4.228  10.079  0.5431 -0.3127 -0.8673
  114OSM    C7F11908   2.631   4.129   9.991 -1.0072 -0.3056 -0.6149
  114OSM    H7F11909   2.639   4.027  10.033  0.8669  0.5584  1.3060
  114OSM    H7G11910   2.735   4.161   9.970 -0.7293  1.0160  2.2641
  114OSM    C8F11911   2.546   4.112   9.859 -0.7396 -0.1633 -0.3410
  114OSM    H8F11912   2.453   4.053   9.876 -0.2485 -1.3951 -1.7180
  114OSM    H8G11913   2.614   4.051   9.795  1.9344 -0.7185  2.7442
  114OSM    C9F11914   2.520   4.248   9.794 -0.5792 -0.3607  0.3791
  114OSM    H9F11915   2.504   4.321   9.875 -2.5267 -1.7174  1.3044
  114OSM   C10F11916   2.509   4.278   9.665  0.3868  0.7947 -0.0622
  114OSM   H10F11917   2.490   4.380   9.627 -1.3253  0.0350 -1.4087
  114OSM   C11F11918   2.529   4.174   9.555 -0.4506  0.5189 -0.2025
  114OSM   H11F11919   2.440   4.110   9.541  0.1584 -0.2698 -0.5386
  114OSM   H11G11920   2.607   4.100   9.583 -0.0642  1.9212  2.8868
  114OSM   C12F11921   2.547   4.235   9.418  0.5369 -0.4819  0.5236
  114OSM   H12F11922   2.644   4.287   9.432  0.9368 -1.3237  0.9547
  114OSM   H12G11923   2.468   4.312   9.402 -1.2455 -2.4187 -0.4041
  114OSM   C13F11924   2.542   4.137   9.305  0.0754 -0.1431  0.1568
  114OSM   H13F11925   2.437   4.112   9.277  0.0559 -0.3990  0.4595
  114OSM   H13G11926   2.589   4.043   9.339  0.2841 -0.3074 -0.5572
  114OSM   C14F11927   2.614   4.185   9.180  0.4992  0.2064  0.0192
  114OSM   H14F11928   2.723   4.188   9.201  0.1958 -0.5965  1.8694
  114OSM   H14G11929   2.573   4.288   9.176 -0.5635 -0.0943  1.9505
  114OSM   C15F11930   2.587   4.104   9.049 -0.1212  0.1890 -0.4412
  114OSM   H15F11931   2.584   3.995   9.072 -0.4401  0.1949 -0.4502
  114OSM   H15G11932   2.675   4.121   8.983  0.8839  2.6148  1.3505
  114OSM   C16F11933   2.456   4.146   8.987  0.6294  0.1242  0.2748
  114OSM   H16F11934   2.475   4.242   8.935  1.3357  0.7677  1.6573
  114OSM   H16G11935   2.382   4.176   9.065  2.8660  2.5759  1.6324
  114OSM   C17F11936   2.394   4.031   8.904  0.0386  0.2940  1.0670
  114OSM   H17F11937   2.384   3.936   8.961  0.2949 -0.5265 -0.2287
  114OSM   H17G11938   2.458   4.014   8.816  0.6062 -0.6196  1.6464
  114OSM   C18F11939   2.249   4.058   8.860  0.0888  0.2030 -0.3047
  114OSM   H18F11940   2.175   4.048   8.942 -1.1413  2.9560 -0.9702
  114OSM   H18G11941   2.221   3.989   8.777  1.4950  1.1019 -1.5807
  114OSM   H18H11942   2.227   4.159   8.819 -0.8080  1.0689  2.1355
  115OSM      N11943   3.526   6.486   6.252  0.1940 -0.6218 -0.0220
  115OSM    C1511944   3.382   6.503   6.224 -0.2738 -1.0142  0.1357
  115OSM   H15A11945   3.355   6.431   6.148  0.2722  0.6257 -1.7050
  115OSM   H15B11946   3.355   6.606   6.204 -1.0439 -1.4142 -0.9801
  115OSM   H15C11947   3.334   6.475   6.317 -1.6693 -0.0329 -0.2546
  115OSM    C1411948   3.584   6.495   6.112  1.1014 -0.7524 -0.3787
  115OSM   H14A11949   3.595   6.600   6.088 -0.3324 -0.6365 -0.6215
  115OSM   H14B11950   3.519   6.458   6.034  3.0420  0.6397 -2.8239
  115OSM   H14C11951   3.683   6.451   6.112  0.3297 -2.5953  0.3031
  115OSM    C1311952   3.592   6.593   6.328  0.5409 -0.2014 -0.2494
  115OSM   H13A11953   3.694   6.568   6.354  0.3799  0.6787  1.4077
  115OSM   H13B11954   3.550   6.613   6.426  0.9799  0.9687 -0.2827
  115OSM   H13C11955   3.577   6.689   6.281  0.9405  0.0544  0.1374
  115OSM    C1211956   3.556   6.345   6.311  0.3136  0.2586 -0.3079
  115OSM   H12A11957   3.507   6.269   6.252 -2.4470 -0.1644  2.2640
  115OSM   H12B11958   3.513   6.358   6.409  3.5494 -1.0043  1.4390
  115OSM    C1111959   3.699   6.293   6.342  0.2625 -0.2203  0.4976
  115OSM   H11A11960   3.693   6.190   6.384 -0.3889 -1.1569 -1.7586
  115OSM   H11B11961   3.733   6.371   6.412  0.1053  1.3082 -1.0748
  115OSM      P11962   3.755   6.179   6.111 -0.0223 -0.0390  0.2058
  115OSM    O1311963   3.612   6.132   6.120 -0.1662 -0.3756 -0.2150
  115OSM    O1411964   3.805   6.237   5.985  0.1890 -0.2978  0.2661
  115OSM    O1111965   3.856   6.064   6.159 -0.1010  0.0700 -0.2459
  115OSM    O1211966   3.777   6.287   6.224 -0.3740 -0.5173  0.4297
  115OSM    C1S11967   3.998   6.086   6.158  0.5750 -0.4594 -0.3129
  115OSM    H1S11968   4.028   6.188   6.126  1.9142 -0.2056  1.5530
  115OSM    H1T11969   4.065   6.016   6.104  0.0556 -1.0825 -0.1536
  115OSM     NF11970   4.209   6.094   6.286 -0.4776 -0.0282  0.0338
  115OSM    HNF11971   4.270   6.015   6.297  0.7477  1.1580  2.3691
  115OSM    C2S11972   4.062   6.082   6.300 -0.2782  0.2641  0.6238
  115OSM    H2S11973   4.025   6.169   6.358  0.1298 -0.0683  1.3872
  115OSM    C3S11974   4.030   5.947   6.370  1.1326  0.1215 -0.0400
  115OSM    H3S11975   4.064   5.856   6.316 -0.3923 -0.5204  0.0361
  115OSM     O311976   3.890   5.916   6.381 -0.5818 -0.2961 -0.2382
  115OSM    HO311977   3.851   5.970   6.312  0.0528 -0.6365 -0.8743
  115OSM    C4S11978   4.094   5.947   6.511  0.0992 -0.6510 -0.6760
  115OSM    H4S11979   4.199   5.913   6.502  0.7375  0.8713  0.5864
  115OSM    C5S11980   4.036   5.969   6.632 -1.0848  0.1618  0.0344
  115OSM    H5S11981   3.928   5.969   6.653 -1.2594  1.8678 -0.7444
  115OSM    C6S11982   4.118   5.950   6.759  0.3911 -0.3207 -0.5936
  115OSM    H6S11983   4.228   5.964   6.751  0.7116 -0.6000  2.3831
  115OSM    H6T11984   4.106   5.846   6.796 -2.9313  0.3504  0.5595
  115OSM    C7S11985   4.061   6.030   6.889 -0.0081 -0.0054  0.6885
  115OSM    H7S11986   4.148   6.032   6.958  0.5609  0.4290 -0.0228
  115OSM    H7T11987   3.982   5.970   6.939 -0.7834  0.0978 -0.3817
  115OSM    C8S11988   3.996   6.169   6.863  0.0703  0.0779 -0.7462
  115OSM    H8S11989   3.916   6.152   6.788  0.5980  0.3311 -1.3867
  115OSM    H8T11990   4.071   6.244   6.829  0.6606  0.3074  0.9637
  115OSM    C9S11991   3.933   6.231   6.983  0.7899 -0.5837 -0.1246
  115OSM    H9S11992   3.847   6.170   7.017 -0.2220  1.4055  1.0495
  115OSM    H9T11993   3.886   6.326   6.951 -0.5016 -1.9590 -2.6551
  115OSM   C10S11994   4.032   6.260   7.092 -0.1540 -0.3418  0.6249
  115OSM   H10S11995   4.124   6.310   7.053 -0.6981  1.0112  1.0309
  115OSM   H10T11996   4.057   6.165   7.142 -0.0604  0.5442  2.3321
  115OSM   C11S11997   3.979   6.370   7.198 -0.6720  0.8784  0.1346
  115OSM   H11S11998   3.868   6.372   7.206 -0.7984 -2.4581  0.6072
  115OSM   H11T11999   4.017   6.465   7.154  4.2788 -0.8528  0.0164
  115OSM   C12S12000   4.042   6.359   7.346  0.0099 -0.0121  0.3306
  115OSM   H12S12001   4.065   6.459   7.387  0.4148 -0.5724  1.4885
  115OSM   H12T12002   4.145   6.316   7.346 -1.1612 -3.0893  1.1779
  115OSM   C13S12003   3.947   6.272   7.435  0.4642  0.0124 -0.1435
  115OSM   H13S12004   3.929   6.184   7.369  1.0245  1.2134 -1.9923
  115OSM   H13T12005   3.851   6.327   7.441  0.3844 -0.2819  2.3722
  115OSM   C14S12006   4.015   6.232   7.566  0.8072 -0.1887 -1.3771
  115OSM   H14S12007   3.925   6.211   7.627  1.5903 -1.1457 -0.4962
  115OSM   H14T12008   4.063   6.320   7.614  1.7192 -1.3685 -0.0303
  115OSM   C15S12009   4.120   6.131   7.544 -0.5037  0.4025  0.0078
  115OSM   H15S12010   4.204   6.187   7.499 -0.3498  2.7035  2.8597
  115OSM   H15T12011   4.087   6.047   7.479 -0.6998 -2.3943  3.3884
  115OSM   C16S12012   4.191   6.081   7.671 -0.5921 -0.2570  0.3920
  115OSM   H16S12013   4.263   6.156   7.712  0.7123 -0.9561 -0.5412
  115OSM   H16T12014   4.262   6.001   7.642 -1.7653 -2.0658  2.2572
  115OSM   C17S12015   4.099   6.030   7.781  0.1989  0.1466 -0.2868
  115OSM   H17S12016   4.027   5.957   7.739  1.6857 -0.6158 -1.6226
  115OSM   H17T12017   4.048   6.118   7.824  0.1406  0.4092 -0.8742
  115OSM   C18S12018   4.178   5.958   7.888  0.5836 -0.9922  0.1579
  115OSM   H18S12019   4.235   5.872   7.848 -1.5078 -2.7269  0.7107
  115OSM   H18T12020   4.109   5.920   7.967 -3.1310 -1.6475 -3.0697
  115OSM   H18U12021   4.251   6.033   7.925 -0.6620  0.2958  0.0819
  115OSM    C1F12022   4.255   6.212   6.253  0.2487 -0.4577 -0.1514
  115OSM     OF12023   4.186   6.315   6.252 -0.7442 -0.2162  0.6505
  115OSM    C2F12024   4.393   6.204   6.188  0.0653  0.5213 -0.2598
  115OSM    H2F12025   4.401   6.267   6.097  1.5791 -0.1123 -0.5892
  115OSM    H2G12026   4.406   6.099   6.156  0.3979  0.5681 -0.2853
  115OSM    C3F12027   4.504   6.256   6.274  0.4257  0.5305  0.0973
  115OSM    H3F12028   4.480   6.364   6.289 -3.3904 -0.4980  3.2322
  115OSM    H3G12029   4.600   6.251   6.218 -0.7662  0.4708 -2.0329
  115OSM    C4F12030   4.524   6.185   6.412  0.2405 -0.3488  0.2685
  115OSM    H4F12031   4.623   6.213   6.455  0.1047  0.7455 -0.1064
  115OSM    H4G12032   4.517   6.077   6.389  1.4887 -0.1138 -1.3889
  115OSM    C5F12033   4.423   6.227   6.518  0.4281 -0.3879 -0.0242
  115OSM    H5F12034   4.321   6.201   6.481  0.5035  0.3268 -0.7729
  115OSM    H5G12035   4.415   6.336   6.538  2.0341 -0.3667  0.5975
  115OSM    C6F12036   4.435   6.148   6.651 -0.8738  0.1172  0.0520
  115OSM    H6F12037   4.416   6.039   6.635 -2.4508  0.6338 -1.9660
  115OSM    H6G12038   4.355   6.186   6.718  0.0428 -2.0272  2.5816
  115OSM    C7F12039   4.566   6.162   6.729 -0.4185 -0.6798 -0.0896
  115OSM    H7F12040   4.613   6.262   6.713  0.1345 -0.2135  3.6530
  115OSM    H7G12041   4.653   6.096   6.710  0.4479  0.7697 -1.4983
  115OSM    C8F12042   4.540   6.158   6.884  0.2063 -0.4153  0.0545
  115OSM    H8F12043   4.468   6.076   6.907  0.9189 -0.7695  1.0550
  115OSM    H8G12044   4.491   6.257   6.892  0.8896 -0.0066 -0.6927
  115OSM    C9F12045   4.661   6.148   6.960 -0.4730  0.9325  0.4187
  115OSM    H9F12046   4.742   6.104   6.900 -1.9128 -0.2903 -0.7328
  115OSM   C10F12047   4.677   6.189   7.089  0.0594 -0.2685  0.3954
  115OSM   H10F12048   4.778   6.182   7.132  0.0724 -1.1295  0.2562
  115OSM   C11F12049   4.562   6.244   7.171  0.6549 -0.7421  0.3009
  115OSM   H11F12050   4.461   6.213   7.138 -0.2927  0.2540  2.0795
  115OSM   H11G12051   4.555   6.355   7.168 -0.0963 -0.7089  1.9355
  115OSM   C12F12052   4.573   6.210   7.317 -0.0753 -0.4013  0.3538
  115OSM   H12F12053   4.563   6.102   7.342 -1.5901  0.2944  3.1245
  115OSM   H12G12054   4.486   6.246   7.375  0.5797  0.0018  1.1075
  115OSM   C13F12055   4.698   6.267   7.374 -0.0379 -0.4833 -0.3915
  115OSM   H13F12056   4.709   6.361   7.317 -1.9874  0.0215 -0.0026
  115OSM   H13G12057   4.792   6.209   7.356  0.9310  1.5044 -2.1664
  115OSM   C14F12058   4.693   6.298   7.523  0.6500 -0.2025  0.5568
  115OSM   H14F12059   4.622   6.380   7.547  1.1683  0.0089  1.4176
  115OSM   H14G12060   4.785   6.341   7.567 -0.0256  1.3528  0.5299
  115OSM   C15F12061   4.652   6.174   7.608 -0.0627  0.1129  0.2903
  115OSM   H15F12062   4.710   6.091   7.564  0.0531  0.9297 -1.1573
  115OSM   H15G12063   4.546   6.143   7.596 -0.1413  0.0098  1.1729
  115OSM   C16F12064   4.691   6.192   7.753 -0.4901  0.3672  0.1211
  115OSM   H16F12065   4.801   6.197   7.762 -0.5267  0.8024  0.3508
  115OSM   H16G12066   4.656   6.102   7.809  1.4582 -0.1206  0.6061
  115OSM   C17F12067   4.632   6.310   7.827 -0.4068 -0.3409  0.0602
  115OSM   H17F12068   4.522   6.320   7.816 -0.4026 -0.1113  0.2121
  115OSM   H17G12069   4.672   6.404   7.782 -1.1843  0.2108  0.4869
  115OSM   C18F12070   4.674   6.302   7.973  0.8011  0.5095 -0.3882
  115OSM   H18F12071   4.779   6.266   7.982  1.2296  1.6232 -0.7400
  115OSM   H18G12072   4.601   6.237   8.026  0.9422 -0.5072 -1.3987
  115OSM   H18H12073   4.674   6.402   8.021  1.9387  1.8230 -2.9438
  116OSM      N12074   4.511   3.925   5.733  0.3465  0.3963 -0.4650
  116OSM    C1512075   4.504   3.945   5.589 -0.5031  0.1724  0.4437
  116OSM   H15A12076   4.403   3.966   5.557 -0.1850 -1.5762 -2.0418
  116OSM   H15B12077   4.534   3.859   5.531 -0.8799 -0.0427  0.5625
  116OSM   H15C12078   4.549   4.040   5.566 -1.2130  0.9969  2.2841
  116OSM    C1412079   4.465   4.050   5.799 -0.1444  0.3200 -0.0250
  116OSM   H14A12080   4.521   4.139   5.771  0.5186 -0.7307 -2.2730
  116OSM   H14B12081   4.477   4.050   5.907 -2.4878  0.8847  0.3018
  116OSM   H14C12082   4.361   4.061   5.775 -0.3205  0.8285  0.8893
  116OSM    C1312083   4.431   3.799   5.765 -0.9775  0.0729  0.5425
  116OSM   H13A12084   4.324   3.801   5.750 -1.5131 -2.0159  3.3335
  116OSM   H13B12085   4.442   3.776   5.870  0.3089  0.5901  0.5315
  116OSM   H13C12086   4.457   3.721   5.694 -0.3370  1.3033 -0.6082
  116OSM    C1212087   4.656   3.898   5.771 -0.0745  0.3593 -0.1962
  116OSM   H12A12088   4.720   3.984   5.757 -0.0650  0.1138 -1.9370
  116OSM   H12B12089   4.693   3.828   5.697  1.5703  1.4920 -0.4950
  116OSM    C1112090   4.674   3.844   5.915 -0.3043  0.3139 -0.1339
  116OSM   H11A12091   4.785   3.852   5.927 -0.1579 -1.6665  0.1420
  116OSM   H11B12092   4.655   3.735   5.926  0.4831  0.1496 -0.2867
  116OSM      P12093   4.539   3.866   6.139  0.1482 -0.0302  0.1219
  116OSM    O1312094   4.563   3.971   6.245  0.2658 -0.1845 -0.3041
  116OSM    O1412095   4.404   3.839   6.089  0.0546 -0.5752  0.7301
  116OSM    O1112096   4.617   3.735   6.179  0.2369  0.2010 -0.2099
  116OSM    O1212097   4.624   3.932   6.020 -0.5877 -0.7477  0.1752
  116OSM    C1S12098   4.747   3.731   6.228 -0.1033 -1.0170 -0.8866
  116OSM    H1S12099   4.803   3.823   6.198 -0.2937 -0.5918  0.0184
  116OSM    H1T12100   4.788   3.640   6.179 -2.1667 -1.7704 -1.2947
  116OSM     NF12101   4.881   3.709   6.442  0.3250  0.2378 -0.0441
  116OSM    HNF12102   4.921   3.635   6.495  1.0426  1.2088  0.8008
  116OSM    C2S12103   4.750   3.704   6.377  0.4295 -0.3097  0.1795
  116OSM    H2S12104   4.688   3.782   6.428  1.2712  0.5646 -0.0967
  116OSM    C3S12105   4.682   3.567   6.401  0.1366 -0.4634  0.4606
  116OSM    H3S12106   4.729   3.495   6.331  1.7597  1.2673 -0.3197
  116OSM     O312107   4.543   3.559   6.366  0.4862  0.1149 -0.3430
  116OSM    HO312108   4.535   3.627   6.299  1.3835  0.3175 -0.2661
  116OSM    C4S12109   4.694   3.517   6.541  0.1876 -0.0850 -0.0549
  116OSM    H4S12110   4.636   3.576   6.614 -2.2653 -1.8428 -0.4315
  116OSM    C5S12111   4.749   3.406   6.585 -0.4381 -0.1748  0.2793
  116OSM    H5S12112   4.777   3.331   6.509  0.5044 -0.8713  1.2931
  116OSM    C6S12113   4.778   3.365   6.728  0.3296 -0.4561  0.2292
  116OSM    H6S12114   4.888   3.366   6.741  0.4332 -0.4560 -0.6120
  116OSM    H6T12115   4.756   3.257   6.744 -0.4908 -0.2816  0.3686
  116OSM    C7S12116   4.717   3.442   6.845 -0.8774  0.0317 -0.3378
  116OSM    H7S12117   4.607   3.457   6.837 -0.8335  1.7994  1.4180
  116OSM    H7T12118   4.756   3.546   6.851 -2.6028  0.6639  1.1011
  116OSM    C8S12119   4.732   3.368   6.980  0.1203 -0.5011  0.0309
  116OSM    H8S12120   4.839   3.340   6.990  1.0511  1.9845 -1.8790
  116OSM    H8T12121   4.675   3.273   6.968 -2.5622  1.0918 -0.6892
  116OSM    C9S12122   4.690   3.452   7.100  0.7026  0.2338  0.2618
  116OSM    H9S12123   4.580   3.467   7.102  0.5198 -0.9108 -0.2622
  116OSM    H9T12124   4.726   3.557   7.095 -0.1223  0.4727 -1.3888
  116OSM   C10S12125   4.741   3.389   7.231 -0.0012  0.1289  0.4528
  116OSM   H10S12126   4.850   3.391   7.209 -0.2755 -0.4200 -1.0162
  116OSM   H10T12127   4.697   3.287   7.227 -0.9887  0.5735 -0.4984
  116OSM   C11S12128   4.688   3.455   7.354  0.1351 -0.7568 -0.9486
  116OSM   H11S12129   4.581   3.481   7.347  0.0833  0.3283  2.0693
  116OSM   H11T12130   4.737   3.553   7.371  1.7017 -1.8670  1.7135
  116OSM   C12S12131   4.702   3.372   7.481 -0.2321 -0.0357  0.2585
  116OSM   H12S12132   4.807   3.342   7.496 -0.8815 -1.5458  2.1397
  116OSM   H12T12133   4.645   3.277   7.467  0.4832 -0.6083  1.1932
  116OSM   C13S12134   4.657   3.448   7.605 -0.7174  0.0606  0.4370
  116OSM   H13S12135   4.558   3.490   7.576 -0.3338 -0.3595 -1.6593
  116OSM   H13T12136   4.735   3.523   7.628  0.2352 -0.9136  0.4361
  116OSM   C14S12137   4.654   3.358   7.726  0.1916 -0.1139 -0.5521
  116OSM   H14S12138   4.758   3.322   7.737  0.2217 -0.2128 -1.1435
  116OSM   H14T12139   4.584   3.273   7.711 -2.3995  1.8837 -0.5749
  116OSM   C15S12140   4.608   3.430   7.853 -0.4745 -0.2054 -0.2909
  116OSM   H15S12141   4.503   3.465   7.839 -1.1556 -2.0393 -0.0406
  116OSM   H15T12142   4.674   3.518   7.870 -0.0234 -0.8649  1.5883
  116OSM   C16S12143   4.620   3.336   7.976  0.2337 -0.8032  0.0653
  116OSM   H16S12144   4.726   3.301   7.978  0.1243 -1.1066  0.9982
  116OSM   H16T12145   4.547   3.254   7.963 -0.6083 -0.5461  2.6639
  116OSM   C17S12146   4.586   3.385   8.117 -0.7936  0.7068 -0.3385
  116OSM   H17S12147   4.656   3.462   8.157  1.9430 -3.0819  3.0141
  116OSM   H17T12148   4.600   3.299   8.185 -0.9855  0.2978 -0.8165
  116OSM   C18S12149   4.445   3.427   8.140  0.2653 -0.3055  0.3762
  116OSM   H18S12150   4.408   3.425   8.245  0.4546  1.0598  0.4851
  116OSM   H18T12151   4.381   3.354   8.087  0.4064 -0.6180  0.6343
  116OSM   H18U12152   4.431   3.531   8.102 -2.2154  0.3977  2.8932
  116OSM    C1F12153   4.945   3.822   6.449 -0.6530 -0.0014  0.7834
  116OSM     OF12154   4.919   3.912   6.372  0.1223  0.0521 -0.0711
  116OSM    C2F12155   5.049   3.852   6.553 -0.3985 -0.5529  0.0857
  116OSM    H2F12156   5.144   3.816   6.508 -1.1983 -2.7544 -0.0072
  116OSM    H2G12157   5.022   3.786   6.638 -0.9252  1.5731  1.6367
  116OSM    C3F12158   5.070   4.002   6.591 -0.6227  0.4718 -0.1009
  116OSM    H3F12159   4.977   4.040   6.638 -1.1885 -1.0048  0.0395
  116OSM    H3G12160   5.096   4.072   6.508  2.6315 -0.4501  0.0026
  116OSM    C4F12161   5.193   4.025   6.687  0.1158 -0.1362  0.3546
  116OSM    H4F12162   5.167   4.128   6.720  0.6531 -0.8233  3.1595
  116OSM    H4G12163   5.287   4.015   6.630  1.2941  0.5614  2.0638
  116OSM    C5F12164   5.202   3.943   6.806 -0.0779 -0.6503 -0.3444
  116OSM    H5F12165   5.220   3.840   6.768  0.3325 -0.1102 -1.6674
  116OSM    H5G12166   5.103   3.946   6.857 -0.1588  2.0022 -0.5435
  116OSM    C6F12167   5.302   3.994   6.917 -0.2149 -0.2049  0.2721
  116OSM    H6F12168   5.287   4.098   6.951  3.7482  0.6778 -0.1678
  116OSM    H6G12169   5.406   3.993   6.876  0.2382 -1.8385  1.3576
  116OSM    C7F12170   5.294   3.900   7.036  0.1826  0.0850 -0.7961
  116OSM    H7F12171   5.286   3.794   7.003  0.7999 -0.8849  1.9377
  116OSM    H7G12172   5.198   3.921   7.088  0.4118 -1.2317  0.2207
  116OSM    C8F12173   5.396   3.933   7.138 -0.1037  0.6413 -0.6159
  116OSM    H8F12174   5.395   4.042   7.161 -0.5654  0.1907  1.7336
  116OSM    H8G12175   5.491   3.916   7.082 -0.6636  1.0807 -1.7199
  116OSM    C9F12176   5.383   3.845   7.259 -0.2094  0.2380  0.5935
  116OSM    H9F12177   5.312   3.763   7.244 -1.2556  0.9812  1.3296
  116OSM   C10F12178   5.435   3.876   7.380  0.1109 -0.2009 -0.1823
  116OSM   H10F12179   5.410   3.807   7.462 -1.0763  0.0793 -0.2851
  116OSM   C11F12180   5.522   3.992   7.415 -0.7164  0.0498 -1.0214
  116OSM   H11F12181   5.480   4.089   7.382  0.1356  0.5845 -0.5708
  116OSM   H11G12182   5.627   3.975   7.385  0.4887  2.3762  1.4711
  116OSM   C12F12183   5.518   3.998   7.571  0.2481 -0.4749  0.5000
  116OSM   H12F12184   5.580   4.083   7.607  0.4239 -0.5923  0.4713
  116OSM   H12G12185   5.547   3.906   7.626  1.8652 -0.1779  0.1814
  116OSM   C13F12186   5.380   4.042   7.635 -0.3884 -0.3744 -0.0770
  116OSM   H13F12187   5.310   3.961   7.604 -0.8490  0.3664 -1.0328
  116OSM   H13G12188   5.351   4.138   7.588  3.3285  1.4309  1.0029
  116OSM   C14F12189   5.394   4.064   7.784 -0.0167 -0.8906  0.1455
  116OSM   H14F12190   5.312   4.123   7.830  2.0396  2.4267 -0.1482
  116OSM   H14G12191   5.488   4.114   7.816 -0.3169 -0.1038 -0.1721
  116OSM   C15F12192   5.415   3.933   7.861  0.3109  0.2447  0.0529
  116OSM   H15F12193   5.516   3.901   7.829 -0.6297 -1.6123 -1.2406
  116OSM   H15G12194   5.348   3.861   7.810  0.8061  2.9131 -4.9112
  116OSM   C16F12195   5.388   3.945   8.011  0.1032 -0.0173 -0.6045
  116OSM   H16F12196   5.416   3.844   8.049  0.6314 -0.6248 -2.5071
  116OSM   H16G12197   5.280   3.970   8.023 -0.0825 -0.5612 -1.1009
  116OSM   C17F12198   5.496   4.026   8.085 -0.7784 -0.5346 -0.4810
  116OSM   H17F12199   5.463   4.026   8.191 -2.6512 -1.1857 -1.0273
  116OSM   H17G12200   5.484   4.131   8.050  0.4219  0.8184  2.7963
  116OSM   C18F12201   5.637   3.968   8.067 -0.5556  0.2147  0.6565
  116OSM   H18F12202   5.713   4.004   8.139  1.2152  0.3703 -1.2153
  116OSM   H18G12203   5.678   4.003   7.970 -1.7918 -3.1691 -1.2520
  116OSM   H18H12204   5.629   3.858   8.054 -0.2943  0.0885  1.4875
  117OSM      N12205   1.510   4.541   5.883 -0.2307 -0.1534  0.5053
  117OSM    C1512206   1.495   4.396   5.918  0.8139 -0.1709  0.1384
  117OSM   H15A12207   1.440   4.379   6.009  1.7776  0.9515  0.9663
  117OSM   H15B12208   1.586   4.338   5.922  0.0955 -1.4179 -0.8362
  117OSM   H15C12209   1.439   4.353   5.836  0.4554  0.0262  0.2790
  117OSM    C1412210   1.603   4.545   5.771 -0.7417 -0.5620  0.9585
  117OSM   H14A12211   1.704   4.515   5.797 -0.8416 -2.0758 -0.2708
  117OSM   H14B12212   1.609   4.639   5.718 -1.4350  0.7359  3.0716
  117OSM   H14C12213   1.571   4.475   5.695 -0.9318  0.0343  0.4743
  117OSM    C1312214   1.383   4.586   5.825 -0.3291  0.2938  0.2619
  117OSM   H13A12215   1.407   4.664   5.754 -0.3427 -0.0629 -0.1377
  117OSM   H13B12216   1.316   4.626   5.900 -1.0700  1.0160 -0.7615
  117OSM   H13C12217   1.331   4.511   5.768  0.7288  0.7695 -1.3935
  117OSM    C1212218   1.552   4.630   5.998  0.1516 -0.1009 -0.4451
  117OSM   H12A12219   1.566   4.728   5.956 -1.1228 -0.1895 -1.1316
  117OSM   H12B12220   1.644   4.585   6.032  0.7596  1.7800  0.4821
  117OSM    C1112221   1.457   4.649   6.124  0.5807 -0.3003 -0.4096
  117OSM   H11A12222   1.376   4.724   6.110 -0.9201 -1.6690  0.5412
  117OSM   H11B12223   1.530   4.698   6.192 -1.9205  1.5871  1.0973
  117OSM      P12224   1.466   4.426   6.265 -0.0891 -0.1209 -0.2056
  117OSM    O1312225   1.399   4.292   6.281 -0.4065  0.0312 -0.1476
  117OSM    O1412226   1.612   4.419   6.230  0.2992  0.2165  0.1855
  117OSM    O1112227   1.445   4.498   6.403  0.1740 -0.3678 -0.4249
  117OSM    O1212228   1.383   4.530   6.168 -0.7682  0.4989  0.0101
  117OSM    C1S12229   1.554   4.574   6.459  0.6351 -0.6271  0.5843
  117OSM    H1S12230   1.540   4.680   6.429 -4.0400 -0.8054  1.3271
  117OSM    H1T12231   1.650   4.529   6.426  0.9354  0.3210  0.1275
  117OSM     NF12232   1.633   4.693   6.659 -0.2479 -0.6613 -0.7360
  117OSM    HNF12233   1.723   4.671   6.698 -0.4384  0.8931  0.7032
  117OSM    C2S12234   1.560   4.574   6.616  0.3665  0.1588  0.5265
  117OSM    H2S12235   1.453   4.578   6.647 -0.8382 -2.5943 -2.5820
  117OSM    C3S12236   1.626   4.437   6.665 -0.5860 -0.5865  0.5838
  117OSM    H3S12237   1.726   4.437   6.617  0.1710  2.5324  1.9125
  117OSM     O312238   1.558   4.316   6.617  0.3231 -0.2975 -0.0302
  117OSM    HO312239   1.480   4.345   6.570  1.8358  1.0264 -1.8687
  117OSM    C4S12240   1.657   4.423   6.817  0.4755 -0.6139 -0.6273
  117OSM    H4S12241   1.572   4.396   6.882  0.7249 -0.7196 -0.3425
  117OSM    C5S12242   1.783   4.414   6.869  0.6612 -0.0461  0.0229
  117OSM    H5S12243   1.874   4.422   6.807  0.9722 -0.2192  0.4469
  117OSM    C6S12244   1.807   4.411   7.015 -0.4000 -0.4001 -0.9621
  117OSM    H6S12245   1.773   4.504   7.067 -0.7226 -1.3191  0.5499
  117OSM    H6T12246   1.917   4.403   7.028 -0.5435 -2.1257 -0.4696
  117OSM    C7S12247   1.747   4.292   7.099 -0.5564 -0.2098 -0.2978
  117OSM    H7S12248   1.809   4.206   7.068 -0.0698 -0.3110  0.8991
  117OSM    H7T12249   1.641   4.281   7.067 -1.5636  0.3934  2.5206
  117OSM    C8S12250   1.763   4.312   7.250  0.3684 -1.0647 -0.1079
  117OSM    H8S12251   1.716   4.409   7.277 -0.5906 -1.6618  0.4307
  117OSM    H8T12252   1.873   4.317   7.261  0.5623 -2.2632 -1.2211
  117OSM    C9S12253   1.710   4.191   7.337  0.8466  0.4843  0.1219
  117OSM    H9S12254   1.744   4.095   7.291 -2.5174 -0.1598 -1.3688
  117OSM    H9T12255   1.600   4.185   7.326  0.8513  1.1432 -0.3341
  117OSM   C10S12256   1.747   4.195   7.484 -0.2699  0.1003  0.2598
  117OSM   H10S12257   1.857   4.185   7.468 -0.1111  0.3697  1.0933
  117OSM   H10T12258   1.699   4.106   7.531 -0.8569 -0.3605 -1.1737
  117OSM   C11S12259   1.711   4.327   7.555  0.0670  0.4516  0.4667
  117OSM   H11S12260   1.611   4.367   7.529  0.1807  2.0106  2.2303
  117OSM   H11T12261   1.780   4.404   7.513  0.4805 -1.5199 -2.8437
  117OSM   C12S12262   1.708   4.314   7.708  0.4062 -0.2425 -0.1998
  117OSM   H12S12263   1.798   4.265   7.751  1.8097  2.1976 -0.1851
  117OSM   H12T12264   1.626   4.246   7.738  1.0589 -1.4789 -1.1415
  117OSM   C13S12265   1.699   4.454   7.766  0.0439 -0.2530  0.6185
  117OSM   H13S12266   1.622   4.521   7.720 -0.7253  1.4439  3.9931
  117OSM   H13T12267   1.792   4.511   7.744 -0.6133  0.8617  0.6116
  117OSM   C14S12268   1.668   4.456   7.920  0.3793  0.1775  0.0584
  117OSM   H14S12269   1.566   4.415   7.930 -0.6945  1.9055 -2.6496
  117OSM   H14T12270   1.672   4.563   7.951 -0.9458  0.3281 -0.2382
  117OSM   C15S12271   1.762   4.376   8.012 -0.5856 -0.1917  0.1858
  117OSM   H15S12272   1.856   4.437   8.013 -0.7079  0.0780 -1.5047
  117OSM   H15T12273   1.793   4.277   7.973 -0.7586 -0.1035 -0.1859
  117OSM   C16S12274   1.715   4.371   8.160  0.4422  0.0205 -0.0245
  117OSM   H16S12275   1.642   4.288   8.174 -0.2160  0.4596 -0.7384
  117OSM   H16T12276   1.663   4.465   8.188 -0.7161 -0.6355  0.0998
  117OSM   C17S12277   1.825   4.340   8.258  0.0656 -0.5795  0.9219
  117OSM   H17S12278   1.902   4.420   8.248 -0.3104 -0.3014  0.1904
  117OSM   H17T12279   1.883   4.249   8.233  0.5841  0.2060 -0.8634
  117OSM   C18S12280   1.778   4.333   8.407 -0.5261  0.1382  0.6902
  117OSM   H18S12281   1.737   4.230   8.417  0.8686 -0.3099  2.1820
  117OSM   H18T12282   1.697   4.405   8.430 -1.3192 -0.2797 -0.6517
  117OSM   H18U12283   1.860   4.365   8.475 -1.2741  1.0565  1.1790
  117OSM    C1F12284   1.600   4.825   6.647 -0.4573  0.2382 -0.1518
  117OSM     OF12285   1.494   4.848   6.590 -0.2681  0.0464 -0.2280
  117OSM    C2F12286   1.688   4.935   6.704 -0.0276  0.3934  0.2179
  117OSM    H2F12287   1.687   5.017   6.628 -1.2021 -0.7409 -1.0512
  117OSM    H2G12288   1.789   4.888   6.712 -0.9698 -2.5036 -2.6162
  117OSM    C3F12289   1.638   4.965   6.847  0.5166 -0.2291 -0.2294
  117OSM    H3F12290   1.527   4.970   6.849  0.5070 -0.4046  2.1153
  117OSM    H3G12291   1.686   5.057   6.887  0.5309 -0.8538  1.2168
  117OSM    C4F12292   1.673   4.850   6.944  0.7637  0.1830  0.1033
  117OSM    H4F12293   1.783   4.832   6.947  0.5103 -1.4227  1.2845
  117OSM    H4G12294   1.623   4.758   6.907 -0.4749  1.2627 -1.0032
  117OSM    C5F12295   1.631   4.880   7.092  0.7703  0.4323  0.2016
  117OSM    H5F12296   1.523   4.907   7.097  0.4316 -0.9556  0.9340
  117OSM    H5G12297   1.683   4.971   7.129  0.1730  0.5371  0.8202
  117OSM    C6F12298   1.626   4.754   7.181  0.1579 -0.2160  0.3162
  117OSM    H6F12299   1.729   4.712   7.181  0.1118 -0.3355  0.0063
  117OSM    H6G12300   1.556   4.679   7.139  2.4340 -0.8513 -2.6691
  117OSM    C7F12301   1.574   4.787   7.319  0.2182 -0.2517  0.1489
  117OSM    H7F12302   1.538   4.697   7.373  0.1663 -0.9402 -0.9919
  117OSM    H7G12303   1.484   4.852   7.309  0.1834 -0.5298 -1.9016
  117OSM    C8F12304   1.672   4.858   7.414 -0.2319 -0.0681 -0.0711
  117OSM    H8F12305   1.617   4.884   7.507 -1.0563  2.0298 -1.0781
  117OSM    H8G12306   1.710   4.951   7.366  1.2398 -1.2683 -1.3510
  117OSM    C9F12307   1.806   4.789   7.433  0.4606 -0.4473  1.1498
  117OSM    H9F12308   1.834   4.725   7.349 -1.0156 -2.0732  1.8386
  117OSM   C10F12309   1.878   4.790   7.546  0.8469  0.5773 -0.1052
  117OSM   H10F12310   1.961   4.718   7.545  0.7262  0.2478 -4.0791
  117OSM   C11F12311   1.848   4.867   7.673 -0.2640  0.7987  0.0581
  117OSM   H11F12312   1.761   4.936   7.671  0.2590  1.5188  0.9971
  117OSM   H11G12313   1.937   4.932   7.686 -0.8387  1.6552 -0.1868
  117OSM   C12F12314   1.851   4.783   7.801 -0.3376  0.9935 -0.4924
  117OSM   H12F12315   1.945   4.726   7.789 -0.8909 -0.0794  0.1798
  117OSM   H12G12316   1.762   4.718   7.808  0.0801  0.3404 -1.1064
  117OSM   C13F12317   1.863   4.873   7.928  0.3146  0.1143 -0.0895
  117OSM   H13F12318   1.770   4.933   7.930 -2.6390 -3.7020 -3.5461
  117OSM   H13G12319   1.950   4.942   7.926 -0.7496  1.5639  1.5903
  117OSM   C14F12320   1.868   4.783   8.053  0.6131 -0.4616  0.2164
  117OSM   H14F12321   1.971   4.741   8.062 -0.2763 -2.8322 -0.1539
  117OSM   H14G12322   1.797   4.698   8.051 -0.5786  0.2905  3.4377
  117OSM   C15F12323   1.831   4.863   8.174  0.1854  0.0912  0.1501
  117OSM   H15F12324   1.728   4.901   8.160  0.8173  0.7354 -3.8304
  117OSM   H15G12325   1.893   4.954   8.186 -0.0137 -0.0135  2.5806
  117OSM   C16F12326   1.843   4.778   8.298 -0.0395  0.1963 -0.8334
  117OSM   H16F12327   1.951   4.763   8.321 -0.7065  0.3892  2.9918
  117OSM   H16G12328   1.793   4.683   8.271 -1.5399  0.6635  0.1977
  117OSM   C17F12329   1.767   4.851   8.410 -0.7721  0.2768  0.3694
  117OSM   H17F12330   1.824   4.942   8.441 -0.0954  0.1427 -0.4611
  117OSM   H17G12331   1.675   4.897   8.367 -1.4754 -3.4357 -2.5590
  117OSM   C18F12332   1.739   4.764   8.535  0.6053 -0.3963  0.1338
  117OSM   H18F12333   1.692   4.824   8.616  1.1449 -0.0118  0.1660
  117OSM   H18G12334   1.830   4.711   8.570  0.8834 -0.5647 -0.8195
  117OSM   H18H12335   1.659   4.691   8.508 -0.2809  1.0545 -1.3100
  118OSM      N12336   4.808   6.751   5.792  0.2153  0.1471 -0.0765
  118OSM    C1512337   4.721   6.743   5.911  0.0408 -0.0797 -0.9399
  118OSM   H15A12338   4.767   6.773   6.004 -0.7177 -2.8701  0.4562
  118OSM   H15B12339   4.677   6.646   5.929  1.0387 -0.0264  2.6859
  118OSM   H15C12340   4.638   6.811   5.896  0.7627  1.6956  2.0491
  118OSM    C1412341   4.927   6.661   5.812  0.1037  0.5504  0.2724
  118OSM   H14A12342   4.992   6.665   5.727  0.1595 -1.0430  0.2204
  118OSM   H14B12343   4.893   6.560   5.830  0.2801  0.0091 -2.1491
  118OSM   H14C12344   4.985   6.680   5.901  0.6444  3.1556 -0.5576
  118OSM    C1312345   4.739   6.696   5.673 -0.3018  0.0515  0.1554
  118OSM   H13A12346   4.707   6.594   5.692 -1.8583 -0.0450 -2.4310
  118OSM   H13B12347   4.798   6.707   5.583 -0.1773 -0.4908  0.1652
  118OSM   H13C12348   4.653   6.756   5.650  0.1100  0.8477  0.6603
  118OSM    C1212349   4.849   6.897   5.764 -0.2863  0.5094 -1.0255
  118OSM   H12A12350   4.759   6.955   5.777  0.0465  0.9121 -0.4290
  118OSM   H12B12351   4.879   6.908   5.661 -1.7683 -1.0723 -1.6688
  118OSM    C1112352   4.964   6.963   5.852 -0.0575 -0.2142 -0.6016
  118OSM   H11A12353   4.979   7.063   5.804 -1.4392  1.0034  1.3693
  118OSM   H11B12354   5.055   6.900   5.843 -0.2141 -0.3802 -1.0335
  118OSM      P12355   4.829   7.097   6.036 -0.2036 -0.2161 -0.3286
  118OSM    O1312356   4.925   7.210   6.031  0.1004 -0.0529  0.2602
  118OSM    O1412357   4.713   7.118   5.945 -0.4548  0.2256 -1.0557
  118OSM    O1112358   4.788   7.064   6.179  0.2568  0.3693 -0.5087
  118OSM    O1212359   4.906   6.969   5.994 -0.9243  0.8388  0.0681
  118OSM    C1S12360   4.771   6.938   6.225  0.2988 -0.8781 -0.4935
  118OSM    H1S12361   4.854   6.873   6.190  2.5828  2.3147 -1.4209
  118OSM    H1T12362   4.671   6.908   6.186 -1.0503 -0.7074  2.4963
  118OSM     NF12363   4.713   6.783   6.410 -0.7532 -0.1552  0.1545
  118OSM    HNF12364   4.617   6.758   6.402 -1.2171  1.1758  1.2919
  118OSM    C2S12365   4.755   6.924   6.383 -0.7688  0.0275 -0.1239
  118OSM    H2S12366   4.853   6.949   6.428 -0.2023 -1.8000 -0.2527
  118OSM    C3S12367   4.656   7.039   6.432 -0.1313  0.4558 -0.1484
  118OSM    H3S12368   4.562   7.026   6.374  1.4010 -0.9943 -2.5037
  118OSM     O312369   4.697   7.175   6.406  0.3016  0.4261  0.3477
  118OSM    HO312370   4.753   7.165   6.329 -2.7928 -3.0169 -1.7801
  118OSM    C4S12371   4.640   7.025   6.576 -0.9836  0.7948 -0.1105
  118OSM    H4S12372   4.735   7.035   6.631 -0.4386  0.7012 -1.0175
  118OSM    C5S12373   4.525   7.002   6.635 -0.2959  1.0834  0.1817
  118OSM    H5S12374   4.438   7.002   6.567  1.8704  3.2098 -2.8228
  118OSM    C6S12375   4.494   6.972   6.781 -0.3597 -0.0845 -0.0344
  118OSM    H6S12376   4.419   6.891   6.784 -1.2628  0.6219 -1.8046
  118OSM    H6T12377   4.437   7.057   6.824 -0.8673 -0.1894 -0.4918
  118OSM    C7S12378   4.608   6.961   6.885  0.4107  0.6856  0.4922
  118OSM    H7S12379   4.681   7.044   6.876 -0.7838  1.9189  1.6868
  118OSM    H7T12380   4.661   6.865   6.868  1.3681  1.4062 -0.8867
  118OSM    C8S12381   4.558   6.953   7.029 -0.3305 -0.2937  0.7551
  118OSM    H8S12382   4.498   6.862   7.046 -2.7354  1.0504 -0.0671
  118OSM    H8T12383   4.489   7.039   7.043 -0.0221  0.4354 -1.6997
  118OSM    C9S12384   4.678   6.968   7.129  0.9557  1.0883  0.4672
  118OSM    H9S12385   4.740   7.057   7.105  2.8269 -0.5094 -0.9184
  118OSM    H9T12386   4.740   6.876   7.119  0.6184  0.7189  1.6374
  118OSM   C10S12387   4.622   6.974   7.270  0.8399  0.4067  0.2759
  118OSM   H10S12388   4.707   6.967   7.341  0.9764 -2.3172 -0.0262
  118OSM   H10T12389   4.549   6.891   7.285  0.8266  0.6818  1.8847
  118OSM   C11S12390   4.563   7.120   7.298 -0.5275 -0.4199  0.0424
  118OSM   H11S12391   4.461   7.128   7.255 -0.2466 -0.5667 -0.6682
  118OSM   H11T12392   4.625   7.192   7.241 -2.0065 -0.0568 -1.1801
  118OSM   C12S12393   4.550   7.153   7.444 -0.7672  0.2990 -0.2699
  118OSM   H12S12394   4.494   7.248   7.455  1.4220  2.0785 -3.0331
  118OSM   H12T12395   4.654   7.186   7.469 -1.3419  1.5206  0.6334
  118OSM   C13S12396   4.517   7.047   7.542 -0.1736 -0.1388  0.1436
  118OSM   H13S12397   4.586   6.959   7.540  0.1986  0.1652 -1.0912
  118OSM   H13T12398   4.414   7.008   7.532  0.2022 -0.8438 -1.1966
  118OSM   C14S12399   4.523   7.112   7.685  0.0746  0.5219  0.4944
  118OSM   H14S12400   4.467   7.209   7.687 -3.0725 -1.0804 -1.6452
  118OSM   H14T12401   4.627   7.138   7.713  0.2967  2.5884 -1.8720
  118OSM   C15S12402   4.456   7.015   7.785 -0.0578 -0.2505 -0.8766
  118OSM   H15S12403   4.498   6.913   7.774 -2.3266 -1.2462 -0.7869
  118OSM   H15T12404   4.346   7.020   7.774 -0.1890 -0.5482  0.2300
  118OSM   C16S12405   4.476   7.063   7.934 -0.6224  0.2014  0.1125
  118OSM   H16S12406   4.388   7.042   7.998 -0.0146  1.1265  1.2868
  118OSM   H16T12407   4.495   7.172   7.932  1.5551 -0.0819  1.3352
  118OSM   C17S12408   4.595   6.998   8.004  0.2948 -0.1567 -0.4959
  118OSM   H17S12409   4.688   7.008   7.944  0.3019  1.3855 -0.2563
  118OSM   H17T12410   4.568   6.890   8.015  0.5404 -0.1675  0.0763
  118OSM   C18S12411   4.618   7.059   8.146  0.1098  0.6964  1.0657
  118OSM   H18S12412   4.623   7.169   8.132  0.3886  0.4486 -1.3027
  118OSM   H18T12413   4.719   7.036   8.186 -0.3078 -1.3336  1.0839
  118OSM   H18U12414   4.542   7.029   8.220 -2.9769  3.3292 -0.7842
  118OSM    C1F12415   4.797   6.681   6.407  0.2733 -0.3114  0.4457
  118OSM     OF12416   4.915   6.700   6.391 -0.2214  0.9431 -0.3070
  118OSM    C2F12417   4.735   6.544   6.417 -0.2840 -0.3603 -0.7585
  118OSM    H2F12418   4.785   6.492   6.333 -1.7417  1.3884 -2.8230
  118OSM    H2G12419   4.625   6.541   6.404 -0.4098  3.1017 -1.3832
  118OSM    C3F12420   4.783   6.471   6.547  0.3852 -0.0939 -0.7969
  118OSM    H3F12421   4.894   6.469   6.552  0.3410 -0.1732  1.2121
  118OSM    H3G12422   4.743   6.368   6.552 -1.8566  0.7367 -0.4422
  118OSM    C4F12423   4.749   6.547   6.673  0.4667 -0.1312 -0.2546
  118OSM    H4F12424   4.641   6.570   6.681  0.8388  1.2283  1.4991
  118OSM    H4G12425   4.797   6.648   6.669 -3.2510  1.7521 -2.2361
  118OSM    C5F12426   4.783   6.481   6.805  1.0211  0.0477 -0.1141
  118OSM    H5F12427   4.760   6.373   6.801 -0.2040  0.3440 -1.8700
  118OSM    H5G12428   4.705   6.521   6.874 -0.9127 -0.4774 -1.8907
  118OSM    C6F12429   4.925   6.500   6.853 -0.3036  0.1476  0.4088
  118OSM    H6F12430   4.941   6.610   6.854  2.6036 -0.2117  1.7070
  118OSM    H6G12431   4.986   6.463   6.767 -0.3069  2.3600 -0.6205
  118OSM    C7F12432   4.950   6.446   6.998 -0.0321  0.3743  0.0553
  118OSM    H7F12433   5.059   6.448   7.021  0.5253 -2.2845 -1.9368
  118OSM    H7G12434   4.933   6.337   6.995  1.2933  0.1612 -0.5184
  118OSM    C8F12435   4.868   6.512   7.114 -0.0322  0.5616 -0.5756
  118OSM    H8F12436   4.883   6.442   7.199  0.5156  0.4221 -0.7794
  118OSM    H8G12437   4.760   6.519   7.091 -0.6888 -1.5908  1.3987
  118OSM    C9F12438   4.916   6.642   7.157  0.0288  0.0963 -0.6058
  118OSM    H9F12439   4.986   6.689   7.086 -0.3141 -2.0838 -2.4962
  118OSM   C10F12440   4.870   6.716   7.268 -0.1424  0.2620 -0.4598
  118OSM   H10F12441   4.925   6.809   7.286 -0.1208  0.0385  0.7227
  118OSM   C11F12442   4.779   6.678   7.386 -0.5898 -0.1842 -0.0025
  118OSM   H11F12443   4.730   6.581   7.362  0.7286 -0.6811 -0.8197
  118OSM   H11G12444   4.702   6.758   7.388  0.9536  1.3792 -0.3902
  118OSM   C12F12445   4.855   6.672   7.517  0.7229  0.2149 -0.0515
  118OSM   H12F12446   4.924   6.758   7.530  0.3295  0.6865 -0.9962
  118OSM   H12G12447   4.912   6.577   7.513 -0.9766 -0.8071 -1.9110
  118OSM   C13F12448   4.773   6.671   7.648  0.2892  0.4523 -0.4581
  118OSM   H13F12449   4.708   6.581   7.651  0.4240  0.3669 -0.0686
  118OSM   H13G12450   4.699   6.754   7.656 -0.0194  0.0093  2.9774
  118OSM   C14F12451   4.847   6.675   7.776 -0.7159 -0.2627 -0.6285
  118OSM   H14F12452   4.915   6.762   7.782 -2.4639  1.0596  1.4943
  118OSM   H14G12453   4.921   6.593   7.785 -0.1168  0.3948  0.6318
  118OSM   C15F12454   4.755   6.683   7.895  0.5399  0.2262 -0.4439
  118OSM   H15F12455   4.690   6.592   7.897  1.3563 -0.4387 -2.0738
  118OSM   H15G12456   4.676   6.762   7.895  0.9389  0.6996 -2.6502
  118OSM   C16F12457   4.835   6.686   8.024 -0.4890  0.5678 -0.2727
  118OSM   H16F12458   4.908   6.604   8.007  0.1864  0.2377  3.3992
  118OSM   H16G12459   4.774   6.650   8.109 -4.6374 -1.2113 -3.6032
  118OSM   C17F12460   4.911   6.817   8.066  0.1742 -0.7062 -0.1794
  118OSM   H17F12461   4.851   6.907   8.092  0.0967 -0.8999  0.3319
  118OSM   H17G12462   4.968   6.850   7.977 -1.7498  3.1156 -0.2057
  118OSM   C18F12463   5.009   6.807   8.183  0.4288 -0.2407 -0.3853
  118OSM   H18F12464   5.082   6.727   8.156 -0.3396 -1.8285  1.9900
  118OSM   H18G12465   4.951   6.766   8.268  1.6705  0.5564  0.8993
  118OSM   H18H12466   5.064   6.899   8.212 -0.4440  0.5929 -1.3073
  119OSM      N12467   0.445   1.519   5.637 -0.5946 -0.1474 -0.2741
  119OSM    C1512468   0.475   1.657   5.686  0.1398  0.5087  0.2856
  119OSM   H15A12469   0.410   1.685   5.768  0.7011  0.6832  0.6730
  119OSM   H15B12470   0.449   1.729   5.610  0.2732  1.0331  0.7348
  119OSM   H15C12471   0.577   1.677   5.715 -0.2462  1.0190  1.3210
  119OSM    C1412472   0.307   1.524   5.581  0.3675  0.5303 -0.4628
  119OSM   H14A12473   0.237   1.559   5.656 -0.0005 -0.9201 -0.0921
  119OSM   H14B12474   0.275   1.428   5.541  0.3486 -0.5839  2.0081
  119OSM   H14C12475   0.297   1.592   5.498 -1.3768  0.8031 -0.0652
  119OSM    C1312476   0.542   1.486   5.530 -0.3523  0.3899  0.1403
  119OSM   H13A12477   0.515   1.387   5.496 -0.3985 -0.2695  1.9870
  119OSM   H13B12478   0.642   1.493   5.571 -1.0929  0.3864  2.0471
  119OSM   H13C12479   0.530   1.549   5.443 -0.5380  1.2486  0.7745
  119OSM    C1212480   0.448   1.415   5.747 -0.9186 -0.1929 -0.6252
  119OSM   H12A12481   0.461   1.315   5.710 -1.7517 -0.3304 -0.5677
  119OSM   H12B12482   0.355   1.417   5.803 -0.7395  0.8126 -0.3431
  119OSM    C1112483   0.543   1.440   5.869 -0.3051  0.1670  0.2634
  119OSM   H11A12484   0.531   1.357   5.942 -1.7461  1.2221  1.2862
  119OSM   H11B12485   0.507   1.538   5.908 -1.4987  0.1196 -0.6411
  119OSM      P12486   0.764   1.325   5.808 -0.4392  0.1393 -0.2051
  119OSM    O1312487   0.703   1.217   5.728 -0.4418  0.6681 -0.0012
  119OSM    O1412488   0.900   1.368   5.765  0.0173 -0.4127 -0.2344
  119OSM    O1112489   0.780   1.276   5.963  0.2067 -0.1389  0.5410
  119OSM    O1212490   0.676   1.451   5.822  0.6570 -0.0165 -0.2998
  119OSM    C1S12491   0.722   1.146   5.996  0.1076  0.4426 -0.1846
  119OSM    H1S12492   0.782   1.066   5.949  1.0783 -1.0864  3.3578
  119OSM    H1T12493   0.614   1.150   5.968  0.5545  0.8230 -1.9922
  119OSM     NF12494   0.689   0.980   6.172 -0.7855  0.2737 -0.1300
  119OSM    HNF12495   0.599   0.963   6.212 -1.0949  0.8172 -0.5907
  119OSM    C2S12496   0.731   1.117   6.149  0.4979  0.0909 -0.0684
  119OSM    H2S12497   0.839   1.123   6.173  1.0484 -0.2395 -2.2615
  119OSM    C3S12498   0.647   1.214   6.234 -0.3121 -0.5885  0.0468
  119OSM    H3S12499   0.539   1.199   6.211  0.3081 -2.3816 -2.0445
  119OSM     O312500   0.667   1.352   6.203 -0.2625 -0.2202 -0.0646
  119OSM    HO312501   0.717   1.347   6.121  0.2754  1.2805  0.1422
  119OSM    C4S12502   0.664   1.184   6.380  0.3285  0.5744 -0.2167
  119OSM    H4S12503   0.589   1.117   6.423 -1.6418  1.8709 -1.4854
  119OSM    C5S12504   0.751   1.237   6.470  0.3729  0.0816  0.9536
  119OSM    H5S12505   0.803   1.330   6.444 -3.1885  2.1156  0.4131
  119OSM    C6S12506   0.759   1.201   6.615  0.0755  0.9135  0.8002
  119OSM    H6S12507   0.856   1.151   6.637 -1.4760 -2.5194  0.5376
  119OSM    H6T12508   0.681   1.126   6.640  0.3722  0.8064  1.4411
  119OSM    C7S12509   0.761   1.318   6.712 -0.2947  0.4811 -0.0835
  119OSM    H7S12510   0.678   1.392   6.702  0.9535  2.3241  2.1730
  119OSM    H7T12511   0.853   1.376   6.690  0.9374 -1.1388  0.6720
  119OSM    C8S12512   0.771   1.265   6.855  0.1191  0.2466 -0.1274
  119OSM    H8S12513   0.815   1.340   6.924 -0.7754  0.9827 -0.3297
  119OSM    H8T12514   0.852   1.190   6.861  0.2514  0.4787  1.1964
  119OSM    C9S12515   0.630   1.227   6.917 -0.6368 -0.1592  0.4388
  119OSM    H9S12516   0.586   1.146   6.856  0.5480 -1.1018  0.7925
  119OSM    H9T12517   0.575   1.322   6.899  0.2016  0.4990  1.2431
  119OSM   C10S12518   0.620   1.190   7.060 -0.5974  0.5154 -0.2246
  119OSM   H10S12519   0.512   1.189   7.086 -0.2628 -0.4207  1.2164
  119OSM   H10T12520   0.672   1.264   7.126 -0.5199  0.8222 -0.6224
  119OSM   C11S12521   0.683   1.049   7.094 -1.3213 -0.4554 -0.1929
  119OSM   H11S12522   0.792   1.060   7.076 -1.2897 -0.7698 -0.1916
  119OSM   H11T12523   0.652   0.969   7.024  0.3293 -1.4180  0.1218
  119OSM   C12S12524   0.661   1.010   7.236 -0.5731 -1.2432  0.5358
  119OSM   H12S12525   0.551   0.991   7.243 -0.9738  0.6828  0.0552
  119OSM   H12T12526   0.705   1.096   7.291  0.0726 -0.5324 -1.0565
  119OSM   C13S12527   0.719   0.867   7.254  0.5984 -0.4067 -0.3557
  119OSM   H13S12528   0.827   0.888   7.269  0.4311 -0.2590  0.7459
  119OSM   H13T12529   0.711   0.790   7.175  1.1268 -2.4340  1.4911
  119OSM   C14S12530   0.684   0.807   7.389  0.2961 -0.2359 -0.0912
  119OSM   H14S12531   0.688   0.890   7.464  1.9533 -1.7691  1.6400
  119OSM   H14T12532   0.765   0.735   7.413  0.2387 -0.3718 -0.3088
  119OSM   C15S12533   0.546   0.737   7.376  0.0847 -0.4458 -0.0055
  119OSM   H15S12534   0.560   0.664   7.294 -0.5454  0.3510 -0.8447
  119OSM   H15T12535   0.467   0.807   7.341  0.4147 -0.7913 -1.5147
  119OSM   C16S12536   0.502   0.662   7.507  0.5872 -0.4493 -0.4624
  119OSM   H16S12537   0.410   0.602   7.489 -0.4582  0.8253  0.4760
  119OSM   H16T12538   0.469   0.745   7.572 -0.4151  1.1747 -2.9063
  119OSM   C17S12539   0.606   0.576   7.576 -0.3514  0.0550  0.4372
  119OSM   H17S12540   0.695   0.629   7.615  0.3358 -0.3514 -0.5399
  119OSM   H17T12541   0.636   0.496   7.505 -0.8624 -0.3847  0.7131
  119OSM   C18S12542   0.543   0.512   7.703  0.0267 -0.4418  0.3422
  119OSM   H18S12543   0.435   0.494   7.690 -0.0676  1.3537 -2.1178
  119OSM   H18T12544   0.564   0.579   7.789 -1.4846 -0.9582  1.1549
  119OSM   H18U12545   0.592   0.414   7.724 -1.5661 -1.5994 -1.0987
  119OSM    C1F12546   0.775   0.880   6.157 -0.4574 -0.3448  0.2331
  119OSM     OF12547   0.886   0.897   6.121 -0.4372 -0.2451  0.3142
  119OSM    C2F12548   0.716   0.744   6.166  0.1469 -0.1780 -0.3986
  119OSM    H2F12549   0.723   0.706   6.062  0.4131  1.6760 -1.1078
  119OSM    H2G12550   0.608   0.754   6.192 -0.0574  0.9893 -1.5851
  119OSM    C3F12551   0.792   0.653   6.271 -0.3424 -0.1703 -0.6853
  119OSM    H3F12552   0.902   0.646   6.258 -0.3104 -2.3312  0.3401
  119OSM    H3G12553   0.740   0.555   6.266 -1.4723  0.2361  1.6506
  119OSM    C4F12554   0.770   0.714   6.401 -0.3567  0.0694  0.1603
  119OSM    H4F12555   0.667   0.754   6.402 -0.5133 -0.3314  1.3436
  119OSM    H4G12556   0.836   0.804   6.405 -0.1739  0.0364 -1.4348
  119OSM    C5F12557   0.776   0.619   6.525  0.1327 -0.9116  0.0792
  119OSM    H5F12558   0.853   0.539   6.512  1.5114  0.2377  0.8468
  119OSM    H5G12559   0.678   0.571   6.540 -1.3493  1.2180 -2.0439
  119OSM    C6F12560   0.791   0.714   6.658 -1.0508  0.3811  0.4860
  119OSM    H6F12561   0.737   0.810   6.646  0.1276  1.4888  3.0974
  119OSM    H6G12562   0.898   0.744   6.656 -1.4799  2.3270  2.6896
  119OSM    C7F12563   0.762   0.648   6.787  0.7596  0.4404  0.4059
  119OSM    H7F12564   0.658   0.611   6.798  0.6732  1.0147  1.7685
  119OSM    H7G12565   0.765   0.732   6.859  0.4931 -0.4685  1.5186
  119OSM    C8F12566   0.861   0.548   6.842 -0.3490  0.3759 -0.7114
  119OSM    H8F12567   0.877   0.476   6.758 -2.1805  0.4366 -1.1549
  119OSM    H8G12568   0.811   0.487   6.920 -0.0135  2.9314  1.6583
  119OSM    C9F12569   0.985   0.609   6.891 -0.4276  0.0504 -0.0361
  119OSM    H9F12570   1.055   0.620   6.806 -0.3356 -1.2151 -0.1479
  119OSM   C10F12571   1.031   0.616   7.017  0.0339 -0.1080 -0.0124
  119OSM   H10F12572   1.130   0.662   7.031  0.0016  0.2359 -0.8575
  119OSM   C11F12573   0.960   0.571   7.141 -0.4398 -0.2436  0.5277
  119OSM   H11F12574   0.863   0.521   7.118  0.1363 -1.7531  1.1803
  119OSM   H11G12575   0.932   0.651   7.213  1.3661 -0.6747  1.7774
  119OSM   C12F12576   1.041   0.477   7.218  0.1562 -0.1570 -0.3850
  119OSM   H12F12577   1.090   0.408   7.146 -1.0283 -0.3941 -0.9856
  119OSM   H12G12578   0.982   0.407   7.282  1.4831  0.8528  2.0936
  119OSM   C13F12579   1.150   0.548   7.297  0.8000 -0.3629 -0.4901
  119OSM   H13F12580   1.104   0.613   7.374  0.8840 -1.0953  0.1927
  119OSM   H13G12581   1.217   0.603   7.228  0.3868  0.9150  0.1008
  119OSM   C14F12582   1.237   0.443   7.381  0.2040 -0.5318 -1.2565
  119OSM   H14F12583   1.163   0.399   7.453  1.7332  0.4321  1.0248
  119OSM   H14G12584   1.307   0.502   7.443 -0.8380 -2.1024  1.6301
  119OSM   C15F12585   1.305   0.325   7.303 -0.3716  0.6574 -0.6716
  119OSM   H15F12586   1.384   0.367   7.238  0.3694  1.0712  0.4722
  119OSM   H15G12587   1.227   0.286   7.233  0.0161 -1.1323 -0.1438
  119OSM   C16F12588   1.383   0.224   7.394  0.5357  0.1426  0.9662
  119OSM   H16F12589   1.304   0.163   7.443 -0.2344  0.8989  0.7081
  119OSM   H16G12590   1.436   0.279   7.474  2.5921 -0.9380  0.4010
  119OSM   C17F12591   1.463   0.135   7.305 -0.2326  0.4233 -0.5804
  119OSM   H17F12592   1.547   0.197   7.267  0.1913  0.3114  0.1653
  119OSM   H17G12593   1.397   0.087   7.229  0.2936 -1.2217 -0.0404
  119OSM   C18F12594   1.530   0.022   7.392 -0.4492  0.0487  0.7582
  119OSM   H18F12595   1.460  -0.043   7.449 -1.8012  0.8516  0.0773
  119OSM   H18G12596   1.594   0.077   7.463  1.3496  0.5985 -1.1695
  119OSM   H18H12597   1.590  -0.048   7.330 -0.6829  0.4036  0.1075
  120OSM      N12598   4.124   3.654   6.295 -0.4162 -0.5400 -0.5288
  120OSM    C1512599   4.215   3.775   6.305 -0.1776  0.2044  0.0240
  120OSM   H15A12600   4.160   3.855   6.353 -1.9305  0.5035 -2.3256
  120OSM   H15B12601   4.259   3.797   6.209  0.2104 -2.5392 -0.4981
  120OSM   H15C12602   4.299   3.750   6.369 -0.7844  1.9984  1.6211
  120OSM    C1412603   4.198   3.533   6.242 -0.6930  0.3402 -0.2268
  120OSM   H14A12604   4.211   3.537   6.135 -0.6272 -0.6346 -0.2717
  120OSM   H14B12605   4.153   3.442   6.279  2.0061 -0.0848  2.4099
  120OSM   H14C12606   4.300   3.529   6.275 -1.1726 -1.4268  1.2213
  120OSM    C1312607   4.075   3.624   6.432 -0.5216  1.1086  0.0684
  120OSM   H13A12608   4.043   3.714   6.483 -2.5976  0.3583  0.1856
  120OSM   H13B12609   4.150   3.571   6.489 -1.1390  0.4528  0.2846
  120OSM   H13C12610   3.994   3.553   6.431 -0.0884  0.5597  1.7370
  120OSM    C1212611   4.011   3.685   6.200  0.3150 -0.6027 -0.3798
  120OSM   H12A12612   4.052   3.739   6.117  1.2390 -1.6273 -0.6122
  120OSM   H12B12613   3.939   3.742   6.257  0.6921 -1.6123  1.1789
  120OSM    C1112614   3.921   3.561   6.167 -0.1593  0.0615 -0.0880
  120OSM   H11A12615   3.986   3.484   6.119  0.1363  0.4615 -0.3325
  120OSM   H11B12616   3.856   3.597   6.084  2.9660  1.4389 -2.1374
  120OSM      P12617   3.696   3.554   6.290 -0.0889 -0.0049 -0.0665
  120OSM    O1312618   3.681   3.701   6.294 -0.1255 -1.1049 -0.4068
  120OSM    O1412619   3.615   3.467   6.198 -0.2858  0.2313 -0.0731
  120OSM    O1112620   3.657   3.508   6.435 -0.0154  0.2049 -0.5107
  120OSM    O1212621   3.853   3.510   6.287 -0.1495  0.1407  0.1422
  120OSM    C1S12622   3.732   3.566   6.546 -0.4489  0.5085 -0.4344
  120OSM    H1S12623   3.743   3.676   6.537  1.5007  0.4368  0.4761
  120OSM    H1T12624   3.833   3.521   6.555 -0.3755  0.9579  1.2805
  120OSM     NF12625   3.719   3.625   6.784 -0.7620  0.5007  0.0710
  120OSM    HNF12626   3.788   3.587   6.845  0.1261 -1.0132 -1.7425
  120OSM    C2S12627   3.663   3.537   6.680 -0.0617  0.2433 -0.3076
  120OSM    H2S12628   3.554   3.556   6.666  0.2891  2.6883 -0.1087
  120OSM    C3S12629   3.682   3.389   6.718 -0.4053 -0.8106  0.0396
  120OSM    H3S12630   3.791   3.372   6.707 -0.1791  0.4687  0.1080
  120OSM     O312631   3.634   3.300   6.614  0.4033 -0.7766 -0.4137
  120OSM    HO312632   3.606   3.350   6.537 -0.6051 -1.5507 -0.5782
  120OSM    C4S12633   3.634   3.351   6.851 -0.6284  0.6847 -0.4784
  120OSM    H4S12634   3.527   3.358   6.872 -0.8786 -1.8503 -0.5806
  120OSM    C5S12635   3.719   3.299   6.939  0.1686  0.5855 -0.1255
  120OSM    H5S12636   3.822   3.275   6.907 -0.1652  0.0706 -0.8351
  120OSM    C6S12637   3.693   3.256   7.083 -0.3417  0.3909 -0.0272
  120OSM    H6S12638   3.733   3.153   7.092  0.7985  0.7014 -1.2208
  120OSM    H6T12639   3.584   3.242   7.102 -0.0514 -3.1571 -0.3506
  120OSM    C7S12640   3.751   3.331   7.206 -0.7002 -0.4452  0.5017
  120OSM    H7S12641   3.720   3.437   7.195 -2.2596 -1.0207 -1.1701
  120OSM    H7T12642   3.862   3.320   7.204 -0.7625 -1.0917 -0.7280
  120OSM    C8S12643   3.689   3.271   7.331 -0.4888  0.7889  0.5468
  120OSM    H8S12644   3.688   3.160   7.327  1.9305  0.7558 -0.8856
  120OSM    H8T12645   3.584   3.306   7.342 -0.4168  0.6185  1.8544
  120OSM    C9S12646   3.770   3.308   7.452 -0.0515 -0.5427 -0.8556
  120OSM    H9S12647   3.780   3.419   7.453 -0.6627 -0.4602  1.3485
  120OSM    H9T12648   3.875   3.275   7.442  0.0470 -0.1063 -1.3107
  120OSM   C10S12649   3.688   3.269   7.571  0.1244 -0.0519 -0.5172
  120OSM   H10S12650   3.586   3.314   7.565  0.0492 -0.2827 -0.9908
  120OSM   H10T12651   3.742   3.309   7.660 -2.2463  0.4517  0.8109
  120OSM   C11S12652   3.659   3.118   7.591 -0.0395 -0.2899 -0.3832
  120OSM   H11S12653   3.753   3.060   7.603 -0.9199 -1.6322  0.3273
  120OSM   H11T12654   3.609   3.088   7.497  1.4565  0.5190 -1.4672
  120OSM   C12S12655   3.566   3.084   7.712 -0.4209  0.0729 -0.1356
  120OSM   H12S12656   3.547   2.975   7.723  1.8919 -0.2443  1.4229
  120OSM   H12T12657   3.470   3.137   7.692 -0.2028  0.7293  0.4933
  120OSM   C13S12658   3.610   3.138   7.847 -0.0651  0.1461  0.4750
  120OSM   H13S12659   3.616   3.248   7.853  3.0089 -0.0409  4.2880
  120OSM   H13T12660   3.703   3.082   7.872 -0.1954 -1.3667 -2.0550
  120OSM   C14S12661   3.502   3.122   7.959 -0.0255 -0.0099 -0.1304
  120OSM   H14S12662   3.407   3.164   7.919 -1.1887 -3.8145 -1.8871
  120OSM   H14T12663   3.549   3.176   8.043 -0.1048 -0.3834  0.1570
  120OSM   C15S12664   3.478   2.974   8.002 -0.4432 -0.3322  0.4752
  120OSM   H15S12665   3.578   2.940   8.038  0.1608 -0.8509 -1.5554
  120OSM   H15T12666   3.464   2.910   7.912 -1.5833  2.5455 -1.5143
  120OSM   C16S12667   3.367   2.967   8.112 -0.1184 -0.6662 -0.8929
  120OSM   H16S12668   3.274   2.999   8.060 -0.8158 -0.0580  0.6645
  120OSM   H16T12669   3.393   3.034   8.197  1.2448 -1.8349 -0.3528
  120OSM   C17S12670   3.355   2.831   8.178  0.5592 -0.1077  0.1155
  120OSM   H17S12671   3.436   2.801   8.248  1.9539  0.4901 -1.1954
  120OSM   H17T12672   3.331   2.755   8.101 -1.3876  1.8484 -1.3420
  120OSM   C18S12673   3.227   2.827   8.269 -0.8333 -0.3165 -0.8023
  120OSM   H18S12674   3.131   2.838   8.214 -1.9754 -1.6794  0.7829
  120OSM   H18T12675   3.226   2.901   8.352 -0.5944 -1.6346  0.4134
  120OSM   H18U12676   3.232   2.730   8.324  1.8982 -0.0847 -0.5086
  120OSM    C1F12677   3.706   3.756   6.780 -1.0584 -0.2327  0.5876
  120OSM     OF12678   3.643   3.810   6.689 -0.2690  0.4909 -0.6011
  120OSM    C2F12679   3.754   3.842   6.899  0.2723  0.0456  0.0177
  120OSM    H2F12680   3.671   3.895   6.951 -1.6139 -3.0059  0.3519
  120OSM    H2G12681   3.823   3.914   6.849 -1.1906  1.2460 -0.3333
  120OSM    C3F12682   3.840   3.767   7.010  0.4482 -0.1332  0.3505
  120OSM    H3F12683   3.941   3.751   6.966  0.0641 -1.9294  0.0315
  120OSM    H3G12684   3.807   3.663   7.033 -0.5863  0.0157 -0.4353
  120OSM    C4F12685   3.850   3.840   7.144  1.1609  0.4978 -0.4116
  120OSM    H4F12686   3.746   3.877   7.158  0.2109 -2.3822  0.9094
  120OSM    H4G12687   3.922   3.925   7.132  2.1325 -0.1477  0.6323
  120OSM    C5F12688   3.874   3.743   7.262  0.7223 -0.6443  0.1416
  120OSM    H5F12689   3.976   3.698   7.259  0.9858 -0.2211  1.7487
  120OSM    H5G12690   3.790   3.672   7.270 -2.5243  2.9498  1.3001
  120OSM    C6F12691   3.863   3.810   7.399 -0.1093 -0.4214 -0.0942
  120OSM    H6F12692   3.773   3.875   7.388  2.7858  3.5246 -3.3144
  120OSM    H6G12693   3.940   3.883   7.431 -1.9258  1.1625  0.8847
  120OSM    C7F12694   3.850   3.703   7.505  0.1282  0.2644 -0.1907
  120OSM    H7F12695   3.945   3.647   7.515  0.3030  0.5874 -0.0041
  120OSM    H7G12696   3.785   3.616   7.483  3.4738 -1.9014 -2.3779
  120OSM    C8F12697   3.805   3.768   7.640 -0.1277 -0.2849  0.2266
  120OSM    H8F12698   3.701   3.795   7.609 -1.1376 -3.4967  0.4073
  120OSM    H8G12699   3.860   3.862   7.662 -1.4160  1.0145 -1.7752
  120OSM    C9F12700   3.809   3.670   7.754 -0.0482 -0.0293  1.0997
  120OSM    H9F12701   3.908   3.628   7.780  1.4158  2.1267 -0.5276
  120OSM   C10F12702   3.709   3.627   7.832 -1.6362 -0.1890 -0.2420
  120OSM   H10F12703   3.738   3.550   7.905  0.4418  0.5794 -0.1807
  120OSM   C11F12704   3.569   3.665   7.829  0.4144 -0.7973  0.1485
  120OSM   H11F12705   3.511   3.577   7.794  0.5802 -0.5074 -0.8925
  120OSM   H11G12706   3.557   3.730   7.739 -0.9295 -0.8154  0.2986
  120OSM   C12F12707   3.509   3.715   7.959 -0.2595 -0.2214  0.0707
  120OSM   H12F12708   3.412   3.763   7.934 -0.1791 -0.6844 -1.1490
  120OSM   H12G12709   3.568   3.798   8.005 -0.5565  1.3455 -2.2101
  120OSM   C13F12710   3.470   3.608   8.056  0.4317 -0.2141  0.5866
  120OSM   H13F12711   3.564   3.555   8.083  0.3073 -0.8104 -0.1037
  120OSM   H13G12712   3.399   3.530   8.019  1.7070 -1.3063  0.3390
  120OSM   C14F12713   3.422   3.656   8.192 -0.8136  0.3543  0.4403
  120OSM   H14F12714   3.325   3.707   8.174 -0.6583  0.1980 -0.9379
  120OSM   H14G12715   3.482   3.740   8.233 -1.3556  0.5857  0.7793
  120OSM   C15F12716   3.408   3.547   8.296 -0.5528 -0.5030  0.6433
  120OSM   H15F12717   3.498   3.482   8.283 -0.2355  0.3989 -2.4323
  120OSM   H15G12718   3.318   3.485   8.282  0.3283 -1.9203  1.0321
  120OSM   C16F12719   3.393   3.593   8.442 -0.7930  0.2062 -0.4915
  120OSM   H16F12720   3.315   3.672   8.452 -0.9768 -0.1955  2.0809
  120OSM   H16G12721   3.485   3.647   8.471 -0.1137 -0.5713 -1.1515
  120OSM   C17F12722   3.362   3.470   8.535  0.4209 -0.2668 -0.0893
  120OSM   H17F12723   3.444   3.398   8.516 -1.2636 -2.3624  0.1617
  120OSM   H17G12724   3.272   3.414   8.501  0.2194 -0.0854  0.1421
  120OSM   C18F12725   3.359   3.496   8.686  0.3961 -0.1914  0.4059
  120OSM   H18F12726   3.346   3.403   8.745 -0.6049  0.9938  2.1672
  120OSM   H18G12727   3.275   3.559   8.722  1.4669  0.8646  1.1574
  120OSM   H18H12728   3.451   3.544   8.727  0.6031 -0.9993  0.9028
  121OSM      N12729   5.308   6.311   5.837  0.6984 -0.1253  0.5565
  121OSM    C1512730   5.322   6.233   5.711  0.0425 -0.4534  0.3178
  121OSM   H15A12731   5.230   6.179   5.694 -1.1132  2.0561 -2.3095
  121OSM   H15B12732   5.410   6.173   5.725  1.2929  1.6203  1.7345
  121OSM   H15C12733   5.338   6.313   5.640  0.4661  1.4187  2.3883
  121OSM    C1412734   5.198   6.408   5.823 -0.1829  0.0634  0.0651
  121OSM   H14A12735   5.218   6.495   5.762 -1.5389  1.1782  1.1236
  121OSM   H14B12736   5.166   6.447   5.919 -1.5596 -0.2072 -0.2522
  121OSM   H14C12737   5.109   6.369   5.776 -1.7932  3.0245  0.4329
  121OSM    C1312738   5.286   6.222   5.952 -0.0835 -0.2295 -0.3611
  121OSM   H13A12739   5.288   6.277   6.045 -0.0539  1.5506 -1.3666
  121OSM   H13B12740   5.365   6.149   5.962  1.2507  1.1625 -0.3415
  121OSM   H13C12741   5.193   6.168   5.950  0.5438 -1.5052  1.8022
  121OSM    C1212742   5.435   6.395   5.860 -0.4391 -0.3035  0.1860
  121OSM   H12A12743   5.431   6.463   5.943  1.3517  0.8602 -0.6194
  121OSM   H12B12744   5.430   6.469   5.782 -2.1036  0.8982  1.3737
  121OSM    C1112745   5.567   6.326   5.864  0.6888 -0.0291 -0.0558
  121OSM   H11A12746   5.636   6.410   5.888  1.2206  0.1482 -2.0026
  121OSM   H11B12747   5.610   6.286   5.770  1.7297 -2.3153  1.2982
  121OSM      P12748   5.694   6.213   6.071  0.1578  0.1921  0.2440
  121OSM    O1312749   5.706   6.075   6.121 -0.2226  0.3197 -0.4713
  121OSM    O1412750   5.819   6.283   6.021 -0.4602  0.6357 -0.2478
  121OSM    O1112751   5.642   6.302   6.189 -0.4957  0.3956  0.0433
  121OSM    O1212752   5.576   6.224   5.963  0.1469  0.5198 -0.1350
  121OSM    C1S12753   5.504   6.341   6.204  0.0211  0.2114  0.1046
  121OSM    H1S12754   5.432   6.273   6.154  1.0315 -2.2959  1.8879
  121OSM    H1T12755   5.492   6.440   6.153  4.6913  0.0171 -1.8173
  121OSM     NF12756   5.324   6.363   6.386  0.5936 -0.4776 -0.2542
  121OSM    HNF12757   5.283   6.454   6.377 -2.0223 -1.2245  2.4083
  121OSM    C2S12758   5.468   6.358   6.358 -0.5676 -0.0219 -0.0926
  121OSM    H2S12759   5.505   6.274   6.421  1.2280  0.4458 -0.4711
  121OSM    C3S12760   5.538   6.485   6.416 -0.5903  0.0798  0.0964
  121OSM    H3S12761   5.505   6.574   6.357  0.0997 -0.4485 -1.1372
  121OSM     O312762   5.681   6.474   6.397 -0.4631  0.4559 -0.6111
  121OSM    HO312763   5.692   6.398   6.340  0.1424  1.1308 -1.4255
  121OSM    C4S12764   5.505   6.500   6.561  0.3881 -0.2187 -0.1056
  121OSM    H4S12765   5.524   6.415   6.627 -1.3789  0.6974  1.6875
  121OSM    C5S12766   5.442   6.609   6.607  0.3673 -0.0082  0.0705
  121OSM    H5S12767   5.425   6.700   6.549  0.7964 -0.7423 -1.2395
  121OSM    C6S12768   5.410   6.615   6.758 -0.1411 -0.0858  0.0933
  121OSM    H6S12769   5.300   6.609   6.771 -0.1513  0.7235  0.3949
  121OSM    H6T12770   5.444   6.713   6.796  0.8126  0.0510 -1.0591
  121OSM    C7S12771   5.443   6.501   6.863 -0.2693 -0.2411  0.1088
  121OSM    H7S12772   5.553   6.499   6.875 -0.2886  1.7475  1.0677
  121OSM    H7T12773   5.407   6.402   6.828 -0.1055  0.4435 -2.1418
  121OSM    C8S12774   5.367   6.525   6.996 -0.2953  0.4201  0.0673
  121OSM    H8S12775   5.408   6.438   7.053  0.7759  1.0722  0.3238
  121OSM    H8T12776   5.258   6.512   6.981  0.0035 -1.7932 -0.5340
  121OSM    C9S12777   5.392   6.658   7.069 -0.7570  0.4198 -0.5587
  121OSM    H9S12778   5.349   6.752   7.028 -0.6228  0.7987  0.1513
  121OSM    H9T12779   5.502   6.672   7.081 -0.5831 -1.8490  1.2309
  121OSM   C10S12780   5.332   6.646   7.212  0.6688  0.5403 -0.8731
  121OSM   H10S12781   5.354   6.555   7.272 -2.7921 -0.4336 -0.8579
  121OSM   H10T12782   5.224   6.625   7.201  0.9380 -0.2745 -2.1574
  121OSM   C11S12783   5.351   6.770   7.304 -0.2212 -0.2584  0.1410
  121OSM   H11S12784   5.301   6.857   7.257 -1.9885 -1.9772 -1.3788
  121OSM   H11T12785   5.459   6.793   7.318 -0.5508  0.8413  1.0426
  121OSM   C12S12786   5.300   6.746   7.449  0.0424 -0.3219  0.1809
  121OSM   H12S12787   5.348   6.654   7.488 -1.3173 -0.6532  1.1483
  121OSM   H12T12788   5.189   6.738   7.439 -0.0466  0.5063  0.4498
  121OSM   C13S12789   5.327   6.863   7.542 -0.4981 -0.2775 -0.3363
  121OSM   H13S12790   5.286   6.956   7.495  1.9898  0.9759 -0.1965
  121OSM   H13T12791   5.435   6.889   7.551 -0.7522  1.7165 -2.1329
  121OSM   C14S12792   5.283   6.862   7.692 -0.4194  1.2801  0.1088
  121OSM   H14S12793   5.339   6.787   7.753 -2.1409 -0.4783 -0.3527
  121OSM   H14T12794   5.178   6.826   7.701 -1.3623  4.2332  3.0249
  121OSM   C15S12795   5.302   6.996   7.766  0.5158  0.1169 -0.3273
  121OSM   H15S12796   5.240   7.070   7.711 -1.5761 -1.4262 -0.1912
  121OSM   H15T12797   5.407   7.030   7.754  0.6952 -0.7895 -1.5208
  121OSM   C16S12798   5.265   6.978   7.917  0.7759  0.1402 -0.9096
  121OSM   H16S12799   5.296   6.876   7.946  1.1176 -0.0098 -1.7874
  121OSM   H16T12800   5.155   6.993   7.930  0.8796 -0.3627  0.9286
  121OSM   C17S12801   5.341   7.080   8.009 -0.8297 -0.0597 -0.1685
  121OSM   H17S12802   5.308   7.177   7.968 -2.1763  0.0134  0.9945
  121OSM   H17T12803   5.450   7.065   7.994 -0.1668  3.1106  0.9032
  121OSM   C18S12804   5.311   7.075   8.155 -0.4019 -0.2159  0.3375
  121OSM   H18S12805   5.200   7.081   8.160 -0.5014 -1.5032  0.1303
  121OSM   H18T12806   5.355   7.157   8.214  0.4619 -0.6508  0.3116
  121OSM   H18U12807   5.334   6.982   8.211 -0.6823  0.2933  1.3144
  121OSM    C1F12808   5.247   6.252   6.404 -0.2749  0.3715 -0.3279
  121OSM     OF12809   5.287   6.138   6.382  0.3826  0.2023  0.4169
  121OSM    C2F12810   5.111   6.277   6.465 -0.2452 -0.2035  0.5229
  121OSM    H2F12811   5.042   6.288   6.379 -0.6867  0.5811  0.9656
  121OSM    H2G12812   5.106   6.378   6.512 -1.1269  0.6101 -1.2031
  121OSM    C3F12813   5.083   6.178   6.579  0.3134  0.4240 -0.1131
  121OSM    H3F12814   5.100   6.078   6.534  0.8246  0.3008  0.3513
  121OSM    H3G12815   4.978   6.180   6.616 -0.4736  0.1320 -2.2086
  121OSM    C4F12816   5.181   6.178   6.703  0.0700  0.0619 -0.7236
  121OSM    H4F12817   5.227   6.276   6.727  0.6518 -1.1660  4.2641
  121OSM    H4G12818   5.268   6.109   6.698  1.0811  1.2826 -0.5652
  121OSM    C5F12819   5.104   6.134   6.828  0.1678 -0.1353 -0.1286
  121OSM    H5F12820   5.049   6.038   6.820  0.8441 -0.4674 -0.9697
  121OSM    H5G12821   5.033   6.215   6.855  1.0492  0.9134 -0.8845
  121OSM    C6F12822   5.200   6.137   6.943  0.9691 -0.0538  0.1300
  121OSM    H6F12823   5.261   6.229   6.956 -0.8397  1.5269 -1.9511
  121OSM    H6G12824   5.283   6.064   6.937  1.6766  0.8351 -1.3016
  121OSM    C7F12825   5.132   6.095   7.078 -0.1325  0.2715 -0.3252
  121OSM    H7F12826   5.080   5.997   7.064  0.5480 -0.2811  0.8970
  121OSM    H7G12827   5.056   6.174   7.096  0.2153  0.6036 -0.3074
  121OSM    C8F12828   5.225   6.078   7.197  0.0377  0.0914 -0.1927
  121OSM    H8F12829   5.289   6.168   7.207 -1.6838  1.1509  2.0246
  121OSM    H8G12830   5.297   5.994   7.184 -0.7877 -0.7716  0.6498
  121OSM    C9F12831   5.143   6.070   7.327 -0.6966 -0.3592  0.1092
  121OSM    H9F12832   5.112   5.967   7.351 -0.4379 -0.2703  0.8497
  121OSM   C10F12833   5.115   6.169   7.420  0.1488  0.2688 -0.0617
  121OSM   H10F12834   5.050   6.146   7.506 -1.6615 -1.2062 -1.7292
  121OSM   C11F12835   5.158   6.311   7.409 -0.3060  0.3481  0.8009
  121OSM   H11F12836   5.087   6.371   7.349 -0.3911  0.1349  0.6897
  121OSM   H11G12837   5.243   6.329   7.340 -1.0752  0.6323 -0.0834
  121OSM   C12F12838   5.185   6.389   7.539 -0.2050  0.4090  0.3662
  121OSM   H12F12839   5.114   6.349   7.614  1.5184 -1.6710  0.9897
  121OSM   H12G12840   5.160   6.492   7.508 -1.8163 -0.6354 -2.1690
  121OSM   C13F12841   5.326   6.374   7.600 -0.2795 -0.5286  0.3235
  121OSM   H13F12842   5.404   6.407   7.528 -0.6932 -0.9954 -0.3490
  121OSM   H13G12843   5.332   6.266   7.626  1.7179 -0.4246  0.4418
  121OSM   C14F12844   5.333   6.449   7.738 -0.7117 -0.1767 -0.1195
  121OSM   H14F12845   5.318   6.555   7.708  0.7347 -0.3473 -1.5844
  121OSM   H14G12846   5.434   6.437   7.783 -1.1945  2.9740  2.1766
  121OSM   C15F12847   5.223   6.408   7.839  0.2249 -0.4938  0.1226
  121OSM   H15F12848   5.198   6.300   7.830 -0.3417 -0.4464  0.9389
  121OSM   H15G12849   5.136   6.473   7.816 -1.0860 -2.5393 -0.9379
  121OSM   C16F12850   5.265   6.415   7.985 -0.2815 -0.5369 -0.3804
  121OSM   H16F12851   5.295   6.518   8.014 -1.0057 -0.2447 -0.6433
  121OSM   H16G12852   5.354   6.351   8.001 -0.4699 -0.4291  1.2561
  121OSM   C17F12853   5.161   6.369   8.080 -0.2183  0.1506 -0.6149
  121OSM   H17F12854   5.142   6.262   8.059 -2.4861  0.6423 -1.4305
  121OSM   H17G12855   5.063   6.420   8.069 -1.8112 -2.9369 -1.7498
  121OSM   C18F12856   5.215   6.388   8.225 -0.0336 -0.2917  0.0775
  121OSM   H18F12857   5.311   6.334   8.239  0.4378  0.5270  0.0584
  121OSM   H18G12858   5.132   6.349   8.288 -0.3341 -1.7242 -1.1398
  121OSM   H18H12859   5.234   6.493   8.256  0.0792 -0.2441 -0.1497
  122OSM      N12860   4.498   0.647   5.478  0.3393  0.2109 -1.0018
  122OSM    C1512861   4.436   0.704   5.360  0.9789 -0.5525  1.0036
  122OSM   H15A12862   4.346   0.758   5.384  0.8746 -0.5335  0.5861
  122OSM   H15B12863   4.427   0.628   5.283  2.9422  0.2900 -0.1376
  122OSM   H15C12864   4.504   0.774   5.313  0.2620 -1.1666 -1.0819
  122OSM    C1412865   4.619   0.574   5.446  0.0989  0.5241  0.2855
  122OSM   H14A12866   4.667   0.508   5.517 -0.2653  0.6302  0.6356
  122OSM   H14B12867   4.690   0.644   5.405 -0.7833  0.7246 -0.9218
  122OSM   H14C12868   4.605   0.500   5.368  2.4157 -1.2908  1.4434
  122OSM    C1312869   4.529   0.762   5.578  0.2162  0.4543 -0.2598
  122OSM   H13A12870   4.612   0.816   5.535  0.5727 -0.2842 -0.5330
  122OSM   H13B12871   4.563   0.715   5.669  0.7627 -2.2174 -1.7019
  122OSM   H13C12872   4.444   0.826   5.595  1.2313  1.6761  0.4032
  122OSM    C1212873   4.393   0.548   5.532  0.0061 -0.2204 -1.0322
  122OSM   H12A12874   4.370   0.476   5.455 -0.6704  0.2007 -1.2328
  122OSM   H12B12875   4.297   0.594   5.550 -0.2241 -0.7543 -0.8831
  122OSM    C1112876   4.432   0.477   5.663 -0.1636 -0.0948  0.1456
  122OSM   H11A12877   4.516   0.408   5.639  0.6168  1.6109 -2.4083
  122OSM   H11B12878   4.354   0.407   5.700 -1.1374  1.0876  0.3984
  122OSM      P12879   4.368   0.618   5.877  0.1783 -0.0829  0.1981
  122OSM    O1312880   4.411   0.746   5.938 -0.3930 -0.8585 -0.3112
  122OSM    O1412881   4.229   0.616   5.826 -0.5248  0.3591  0.2479
  122OSM    O1112882   4.382   0.499   5.979 -0.4004  0.1592 -0.1472
  122OSM    O1212883   4.470   0.573   5.762 -0.4673  0.7343 -0.3266
  122OSM    C1S12884   4.504   0.502   6.051 -0.3255 -0.2469  0.3803
  122OSM    H1S12885   4.593   0.552   6.007  0.4538 -0.8821  1.1806
  122OSM    H1T12886   4.548   0.399   6.046  3.3264  1.2151 -2.0415
  122OSM     NF12887   4.628   0.554   6.250  0.1745  0.4538 -0.1985
  122OSM    HNF12888   4.660   0.469   6.292  4.0298  0.3352 -2.8812
  122OSM    C2S12889   4.492   0.553   6.195  0.2037 -0.0956  0.7104
  122OSM    H2S12890   4.447   0.654   6.181  0.1965 -0.2982 -0.9874
  122OSM    C3S12891   4.397   0.466   6.273  0.8456  0.1761  0.2251
  122OSM    H3S12892   4.433   0.361   6.275 -1.0932 -0.5219  1.4450
  122OSM     O312893   4.272   0.442   6.213 -0.7964  0.4405  0.3113
  122OSM    HO312894   4.279   0.471   6.122  0.9079  0.9879  0.5869
  122OSM    C4S12895   4.374   0.515   6.412 -0.0752 -0.3387  0.3096
  122OSM    H4S12896   4.453   0.490   6.485 -0.1485  0.3122  0.6233
  122OSM    C5S12897   4.269   0.576   6.465  0.0544 -0.1768  0.1077
  122OSM    H5S12898   4.180   0.589   6.403  0.9686  1.6698 -0.8953
  122OSM    C6S12899   4.263   0.615   6.606 -0.2743 -0.5471 -0.4901
  122OSM    H6S12900   4.166   0.662   6.629 -1.3473 -2.6739 -0.4131
  122OSM    H6T12901   4.338   0.694   6.629 -0.6385 -1.0066  2.7929
  122OSM    C7S12902   4.294   0.500   6.708 -0.2601 -0.3274 -0.4241
  122OSM    H7S12903   4.404   0.494   6.710 -0.2215  0.2494 -0.7098
  122OSM    H7T12904   4.254   0.401   6.676  0.2616 -1.4030  2.0437
  122OSM    C8S12905   4.233   0.542   6.841  0.0669  0.3079 -0.3045
  122OSM    H8S12906   4.125   0.558   6.820  0.2508 -0.9046 -2.3451
  122OSM    H8T12907   4.280   0.639   6.867  0.9642  0.0597 -0.9657
  122OSM    C9S12908   4.249   0.444   6.960  0.1288  0.8532 -0.0705
  122OSM    H9S12909   4.220   0.486   7.058  0.0886  0.8333 -0.0739
  122OSM    H9T12910   4.357   0.417   6.969  0.2478  0.9172 -1.1862
  122OSM   C10S12911   4.176   0.301   6.932 -0.5229  0.7207 -0.3189
  122OSM   H10S12912   4.203   0.246   6.839 -1.2787  1.7884 -1.1908
  122OSM   H10T12913   4.070   0.331   6.916 -0.2216  2.0210  0.0234
  122OSM   C11S12914   4.186   0.206   7.054  0.0866  1.1080  0.1588
  122OSM   H11S12915   4.235   0.259   7.138 -0.5855  3.7692 -1.0036
  122OSM   H11T12916   4.241   0.113   7.030  2.7823  2.7314 -0.3810
  122OSM   C12S12917   4.046   0.161   7.108  0.3596  0.4476  0.5970
  122OSM   H12S12918   3.990   0.094   7.040  0.4283  0.1844  0.7986
  122OSM   H12T12919   3.989   0.256   7.116  1.7985  1.4541 -0.5815
  122OSM   C13S12920   4.059   0.096   7.243 -0.0823 -0.2983 -0.0547
  122OSM   H13S12921   4.069   0.168   7.327 -2.1468  0.5684 -0.4953
  122OSM   H13T12922   4.150   0.033   7.238  0.5788  0.2934  2.6268
  122OSM   C14S12923   3.944  -0.007   7.258 -0.1049 -0.0391 -1.3537
  122OSM   H14S12924   3.966  -0.090   7.187 -1.2820 -0.7368 -0.9263
  122OSM   H14T12925   3.849   0.043   7.231 -1.8226 -3.0901 -1.4057
  122OSM   C15S12926   3.930  -0.060   7.403  0.4170  0.0667  0.6574
  122OSM   H15S12927   4.027  -0.100   7.438  1.8969  2.2194 -0.7866
  122OSM   H15T12928   3.853  -0.141   7.395 -0.6457  1.2411 -3.2965
  122OSM   C16S12929   3.878   0.055   7.492  0.0867  0.3495 -0.1260
  122OSM   H16S12930   3.798   0.105   7.433 -0.8333 -1.3986 -0.4080
  122OSM   H16T12931   3.963   0.120   7.520  0.5737 -0.4793  0.3579
  122OSM   C17S12932   3.806   0.019   7.621  0.5804 -0.1468 -0.5339
  122OSM   H17S12933   3.705  -0.020   7.596 -0.2528  0.7700  1.2359
  122OSM   H17T12934   3.777   0.104   7.687 -1.5682 -0.5113 -0.9385
  122OSM   C18S12935   3.884  -0.090   7.698  0.2714  0.2609 -0.1212
  122OSM   H18S12936   3.987  -0.057   7.726 -0.2547  2.2674 -0.3899
  122OSM   H18T12937   3.892  -0.185   7.641  1.3381 -0.0626  0.5188
  122OSM   H18U12938   3.835  -0.099   7.798 -1.5568  1.7875 -0.8205
  122OSM    C1F12939   4.707   0.652   6.213  0.6857  0.5242  0.0788
  122OSM     OF12940   4.665   0.745   6.141  1.1429 -0.3885 -0.1336
  122OSM    C2F12941   4.856   0.638   6.255  0.4117  0.2404  0.0942
  122OSM    H2F12942   4.923   0.657   6.168  2.3925 -1.9154  1.0299
  122OSM    H2G12943   4.884   0.533   6.276  0.5579  0.4243  0.8688
  122OSM    C3F12944   4.917   0.740   6.358  0.3163 -0.7728  1.2341
  122OSM    H3F12945   4.915   0.841   6.312  0.5806 -1.6144 -0.7189
  122OSM    H3G12946   5.026   0.726   6.372  1.2043  2.0045 -1.6850
  122OSM    C4F12947   4.844   0.742   6.497  0.0631 -0.4514 -0.2026
  122OSM    H4F12948   4.736   0.764   6.482  0.5535  2.4542  0.0203
  122OSM    H4G12949   4.895   0.828   6.545  0.0673 -0.2844 -0.5013
  122OSM    C5F12950   4.873   0.611   6.572 -0.0219  0.6666 -0.1382
  122OSM    H5F12951   4.983   0.602   6.570 -0.1415 -2.0257 -3.1160
  122OSM    H5G12952   4.838   0.530   6.504 -0.8189  2.3360 -1.7975
  122OSM    C6F12953   4.818   0.599   6.714 -0.3595 -0.1903 -0.1210
  122OSM    H6F12954   4.819   0.701   6.758  0.2440 -0.8934  1.5624
  122OSM    H6G12955   4.877   0.533   6.780  0.0374 -0.7962 -1.0557
  122OSM    C7F12956   4.670   0.558   6.726 -0.6621  0.1972  0.1940
  122OSM    H7F12957   4.657   0.450   6.707  2.5199 -0.1339 -0.6223
  122OSM    H7G12958   4.603   0.615   6.658 -1.4636 -0.8803  0.0521
  122OSM    C8F12959   4.620   0.597   6.867 -0.0712 -0.1464  0.2692
  122OSM    H8F12960   4.512   0.573   6.881 -0.4797 -0.6704 -2.8841
  122OSM    H8G12961   4.628   0.707   6.868  1.4811 -0.2293 -0.4778
  122OSM    C9F12962   4.700   0.523   6.974 -0.1740 -0.1511 -0.0755
  122OSM    H9F12963   4.671   0.418   6.986 -2.7997  0.6175  1.0712
  122OSM   C10F12964   4.786   0.577   7.061 -0.5401 -0.0157  0.3433
  122OSM   H10F12965   4.827   0.512   7.140 -1.8173 -0.7320  0.4432
  122OSM   C11F12966   4.832   0.722   7.076 -0.0283  0.2944  0.7759
  122OSM   H11F12967   4.803   0.780   6.986  1.0349 -0.0483  0.1980
  122OSM   H11G12968   4.942   0.724   7.089  0.1157  0.9236 -0.4938
  122OSM   C12F12969   4.773   0.790   7.206 -0.3189 -0.4466  0.4592
  122OSM   H12F12970   4.666   0.813   7.194 -0.5007  0.8496  3.5958
  122OSM   H12G12971   4.814   0.892   7.223 -2.0417  0.5538 -1.1284
  122OSM   C13F12972   4.802   0.726   7.340  0.2562  0.1735  0.6901
  122OSM   H13F12973   4.912   0.708   7.344 -0.1215 -2.4255  3.0816
  122OSM   H13G12974   4.749   0.629   7.348 -0.1826  0.4984  2.1526
  122OSM   C14F12975   4.766   0.806   7.473 -0.9183  0.0909 -0.1787
  122OSM   H14F12976   4.658   0.830   7.484 -0.9771  0.2841 -1.1327
  122OSM   H14G12977   4.821   0.902   7.467 -0.9771  0.0705 -1.2916
  122OSM   C15F12978   4.821   0.742   7.606  0.2760 -0.1326 -0.2171
  122OSM   H15F12979   4.928   0.757   7.630 -0.1757  1.9156  0.7433
  122OSM   H15G12980   4.800   0.633   7.609  0.2294 -0.1287 -0.4428
  122OSM   C16F12981   4.749   0.813   7.721  0.6592  0.2931 -0.0042
  122OSM   H16F12982   4.638   0.802   7.714  0.3985  0.6626  2.6226
  122OSM   H16G12983   4.784   0.917   7.704  1.0166  0.1528 -0.1352
  122OSM   C17F12984   4.796   0.760   7.859  0.3175 -0.2392 -0.0149
  122OSM   H17F12985   4.903   0.735   7.845  0.7341 -0.1442  2.5980
  122OSM   H17G12986   4.740   0.664   7.870 -0.5019 -0.0491 -1.9957
  122OSM   C18F12987   4.767   0.853   7.978  0.3641 -0.2272  0.9094
  122OSM   H18F12988   4.832   0.943   7.988  0.4094 -0.3191  1.4693
  122OSM   H18G12989   4.763   0.800   8.075 -1.5148  1.4706  1.8440
  122OSM   H18H12990   4.660   0.883   7.970 -0.2131 -2.4481 -0.8006
  123OSM      N12991   3.326   3.925   6.265  0.1815  0.7201  0.1823
  123OSM    C1512992   3.363   4.029   6.353 -0.3155 -0.3527 -0.1570
  123OSM   H15A12993   3.463   4.003   6.382 -0.1409 -0.1849 -0.5975
  123OSM   H15B12994   3.309   4.022   6.446 -2.6824  0.0279 -1.4132
  123OSM   H15C12995   3.362   4.118   6.290  0.3299 -1.4216 -1.7495
  123OSM    C1412996   3.179   3.924   6.258 -0.0765 -0.1909 -0.2717
  123OSM   H14A12997   3.151   3.863   6.174  0.2872 -0.2455 -0.3512
  123OSM   H14B12998   3.126   4.015   6.236 -2.1945 -1.3064 -0.0739
  123OSM   H14C12999   3.132   3.891   6.350 -3.8434  1.3234 -1.4324
  123OSM    C1313000   3.380   3.961   6.134  0.0638  0.6603 -0.3223
  123OSM   H13A13001   3.487   3.969   6.139  0.2086  0.2782 -2.1847
  123OSM   H13B13002   3.354   4.064   6.112 -3.2743  0.1994  0.8478
  123OSM   H13C13003   3.367   3.895   6.050  0.4492  1.4445 -1.0101
  123OSM    C1213004   3.385   3.791   6.317  0.0232 -0.8692  0.2384
  123OSM   H12A13005   3.487   3.775   6.286 -0.4976 -3.2378 -0.5037
  123OSM   H12B13006   3.328   3.714   6.268 -1.2717  1.6873 -2.5543
  123OSM    C1113007   3.373   3.758   6.466  0.7122  0.2170  0.0517
  123OSM   H11A13008   3.436   3.824   6.530  2.0471  0.5766 -1.5569
  123OSM   H11B13009   3.413   3.656   6.486 -2.4839 -1.0715  0.5564
  123OSM      P13010   3.140   3.629   6.484  0.0372  0.2517  0.3091
  123OSM    O1313011   3.006   3.640   6.544  0.2701  0.5989 -0.4579
  123OSM    O1413012   3.142   3.606   6.340  0.2462  0.6342  0.5853
  123OSM    O1113013   3.209   3.507   6.546 -0.5572  0.3682 -0.3790
  123OSM    O1213014   3.234   3.750   6.518 -0.2606 -0.2219  0.7311
  123OSM    C1S13015   3.268   3.495   6.674 -0.2738 -0.5508 -0.5235
  123OSM    H1S13016   3.318   3.594   6.687 -2.7340  0.8911 -1.3763
  123OSM    H1T13017   3.333   3.405   6.678 -1.0970 -1.1181  0.7105
  123OSM     NF13018   3.229   3.520   6.924 -0.0367  0.0847  0.0773
  123OSM    HNF13019   3.250   3.448   6.989  2.3743  2.9699  2.8121
  123OSM    C2S13020   3.166   3.490   6.798 -0.1377  0.4297  0.6128
  123OSM    H2S13021   3.099   3.577   6.778 -0.4527  0.1860  0.5976
  123OSM    C3S13022   3.086   3.363   6.796  0.6695  0.1318  0.1092
  123OSM    H3S13023   3.141   3.273   6.833  1.9516  1.1237  0.6704
  123OSM     O313024   3.041   3.321   6.668  0.1477  0.6443 -0.0805
  123OSM    HO313025   3.086   3.376   6.603  0.9971  0.5213  0.3877
  123OSM    C4S13026   2.962   3.378   6.883 -0.1100 -1.0910 -0.2759
  123OSM    H4S13027   2.975   3.338   6.984 -0.4743  1.0908  0.6885
  123OSM    C5S13028   2.839   3.434   6.850  0.3232 -0.5750 -0.7492
  123OSM    H5S13029   2.827   3.461   6.744  0.9851 -0.3925 -0.7821
  123OSM    C6S13030   2.721   3.452   6.939  0.1330 -0.4984  0.5491
  123OSM    H6S13031   2.642   3.384   6.900  1.4107 -0.7906 -1.7267
  123OSM    H6T13032   2.680   3.555   6.938  1.6130  0.1185  1.0614
  123OSM    C7S13033   2.754   3.417   7.089  0.6920 -0.0510 -0.2835
  123OSM    H7S13034   2.825   3.490   7.133 -0.0504 -0.2647  1.3285
  123OSM    H7T13035   2.816   3.325   7.097  1.3415  0.3673 -0.4044
  123OSM    C8S13036   2.624   3.410   7.185 -0.4621  0.2868 -0.6752
  123OSM    H8S13037   2.558   3.322   7.174 -1.1997  0.6759  0.4916
  123OSM    H8T13038   2.567   3.503   7.162 -0.0101  0.3739 -1.5085
  123OSM    C9S13039   2.652   3.414   7.339  0.2098  0.4541  0.1321
  123OSM    H9S13040   2.705   3.507   7.370 -2.5597  2.8145 -1.6171
  123OSM    H9T13041   2.713   3.325   7.364  1.6385  1.0114 -1.1964
  123OSM   C10S13042   2.514   3.398   7.403  0.3073 -0.4829  1.2092
  123OSM   H10S13043   2.447   3.329   7.348 -0.3198  0.9051  0.1599
  123OSM   H10T13044   2.467   3.499   7.402  0.5702 -0.3481 -0.6454
  123OSM   C11S13045   2.526   3.340   7.539  0.2903  0.0704 -0.2258
  123OSM   H11S13046   2.620   3.375   7.589  0.8724 -1.3812 -0.2629
  123OSM   H11T13047   2.534   3.232   7.516  2.5373  0.4184 -1.4200
  123OSM   C12S13048   2.405   3.360   7.638 -0.2498 -0.4818  0.1796
  123OSM   H12S13049   2.316   3.321   7.585  1.8980 -3.9536 -1.3061
  123OSM   H12T13050   2.386   3.467   7.658  0.5793 -0.5623  1.5740
  123OSM   C13S13051   2.419   3.274   7.769  0.2551 -0.1805 -0.3282
  123OSM   H13S13052   2.519   3.287   7.815  0.7169 -2.5434 -0.5487
  123OSM   H13T13053   2.411   3.166   7.747  0.7827  0.1431 -2.2833
  123OSM   C14S13054   2.314   3.312   7.874  0.1330 -0.8294  0.3164
  123OSM   H14S13055   2.211   3.284   7.844 -0.8954  3.5343 -0.9264
  123OSM   H14T13056   2.318   3.421   7.893  1.5191 -0.5835 -1.1326
  123OSM   C15S13057   2.343   3.256   8.012  0.0826 -0.0121 -0.5085
  123OSM   H15S13058   2.440   3.298   8.044  0.7595 -1.2004 -0.9575
  123OSM   H15T13059   2.356   3.146   8.003 -0.1628  0.0260 -1.3741
  123OSM   C16S13060   2.246   3.298   8.121 -0.3867  0.6385  0.2621
  123OSM   H16S13061   2.145   3.313   8.077 -1.7637 -0.5355  2.8053
  123OSM   H16T13062   2.282   3.399   8.152 -1.2171  0.9474  0.2456
  123OSM   C17S13063   2.257   3.201   8.234  0.3652 -0.0812 -0.5993
  123OSM   H17S13064   2.210   3.101   8.220 -1.4225  0.4484  1.1755
  123OSM   H17T13065   2.195   3.248   8.313 -1.6129 -0.4471 -1.8494
  123OSM   C18S13066   2.397   3.176   8.289 -0.1510 -0.0033 -0.1046
  123OSM   H18S13067   2.454   3.271   8.297  0.2959 -0.3519  1.0952
  123OSM   H18T13068   2.453   3.111   8.219  1.8028  3.1619 -1.7052
  123OSM   H18U13069   2.402   3.121   8.386  0.8952 -0.8756 -0.6310
  123OSM    C1F13070   3.289   3.638   6.946  0.1261 -0.1821 -0.2370
  123OSM     OF13071   3.272   3.728   6.861 -0.4681  0.5337  0.1899
  123OSM    C2F13072   3.385   3.652   7.060 -0.4995  0.0009  0.1787
  123OSM    H2F13073   3.478   3.693   7.014  0.3851  0.3810  2.2082
  123OSM    H2G13074   3.401   3.550   7.102  0.6641  0.0728 -0.0458
  123OSM    C3F13075   3.340   3.747   7.172 -0.3336 -0.1409  0.6508
  123OSM    H3F13076   3.272   3.681   7.229  3.0564 -1.6517  3.2957
  123OSM    H3G13077   3.278   3.827   7.127  0.3928  0.3225  0.4437
  123OSM    C4F13078   3.446   3.806   7.275 -0.0452 -0.8754 -0.2907
  123OSM    H4F13079   3.521   3.861   7.214  1.0677 -1.6749  0.3436
  123OSM    H4G13080   3.507   3.722   7.314  2.4893  0.1137 -1.9000
  123OSM    C5F13081   3.387   3.890   7.388  0.3002  0.1032  0.0527
  123OSM    H5F13082   3.319   3.962   7.338  1.6321  0.6162 -1.0993
  123OSM    H5G13083   3.468   3.944   7.442  1.3903  0.6660 -2.0256
  123OSM    C6F13084   3.300   3.810   7.491 -0.7212 -1.0822 -0.0383
  123OSM    H6F13085   3.363   3.745   7.555 -0.1632 -2.3893 -1.8439
  123OSM    H6G13086   3.223   3.744   7.446 -1.2321  0.8683 -2.2820
  123OSM    C7F13087   3.224   3.916   7.565 -0.6106 -0.3933  0.4029
  123OSM    H7F13088   3.167   3.995   7.510 -1.3301  1.0979  3.1157
  123OSM    H7G13089   3.299   3.984   7.609 -1.1146 -1.0672  2.4094
  123OSM    C8F13090   3.124   3.853   7.669  0.3630  0.6157 -0.3748
  123OSM    H8F13091   3.041   3.807   7.612  2.0856 -2.1538 -0.8151
  123OSM    H8G13092   3.084   3.946   7.715 -2.0299 -0.6456  0.2091
  123OSM    C9F13093   3.186   3.766   7.773 -0.4132  0.3579  0.4826
  123OSM    H9F13094   3.254   3.683   7.747 -1.7921 -0.5168 -0.4959
  123OSM   C10F13095   3.161   3.775   7.905 -0.1686  0.0261 -0.0438
  123OSM   H10F13096   3.220   3.712   7.972 -0.5092  0.4747  0.6934
  123OSM   C11F13097   3.077   3.879   7.975  0.8878  0.4814  0.6969
  123OSM   H11F13098   3.029   3.937   7.894  0.4682 -3.7709 -2.3760
  123OSM   H11G13099   3.149   3.937   8.038  0.1407  0.4230  1.6259
  123OSM   C12F13100   2.968   3.837   8.077  1.1029 -0.1215 -0.4558
  123OSM   H12F13101   3.017   3.782   8.161 -1.4696 -1.2168  0.4257
  123OSM   H12G13102   2.899   3.769   8.023  0.7035 -0.2450  0.1967
  123OSM   C13F13103   2.876   3.953   8.127  0.1961 -0.0986 -0.1286
  123OSM   H13F13104   2.933   4.027   8.187 -2.4313  0.1514  2.2953
  123OSM   H13G13105   2.802   3.921   8.203 -1.1880  2.8873 -0.0687
  123OSM   C14F13106   2.792   4.023   8.022  0.3212 -0.0115  0.2732
  123OSM   H14F13107   2.772   3.967   7.928  0.0973 -0.5895  0.6541
  123OSM   H14G13108   2.854   4.109   7.989  0.3953  0.5493  1.8111
  123OSM   C15F13109   2.656   4.074   8.070 -0.2185 -0.4842 -0.0869
  123OSM   H15F13110   2.670   4.153   8.148  2.2002 -0.5951 -0.3424
  123OSM   H15G13111   2.603   3.995   8.126 -0.4139 -0.7523 -0.6402
  123OSM   C16F13112   2.559   4.125   7.960 -0.2289 -0.5601 -0.3909
  123OSM   H16F13113   2.470   4.172   8.006 -0.3361 -0.9275 -0.2233
  123OSM   H16G13114   2.538   4.030   7.905 -1.0206 -2.2232  2.6023
  123OSM   C17F13115   2.620   4.231   7.862  0.2403 -0.1254 -0.6259
  123OSM   H17F13116   2.703   4.188   7.802  1.2274  1.9605 -0.8437
  123OSM   H17G13117   2.666   4.305   7.931  0.3288 -1.4654  0.8104
  123OSM   C18F13118   2.519   4.316   7.786 -0.4804 -0.0153  0.5964
  123OSM   H18F13119   2.567   4.400   7.732 -0.1323  0.3746  1.4976
  123OSM   H18G13120   2.435   4.350   7.850 -1.3198 -1.1305  0.1227
  123OSM   H18H13121   2.467   4.249   7.714  2.4253 -0.7772 -0.9647
  124OSM      N13122   3.732   5.316   5.902 -0.6219 -0.6134 -0.1669
  124OSM    C1513123   3.790   5.440   5.842  0.1610  0.1444 -0.2747
  124OSM   H15A13124   3.765   5.524   5.906  1.0739 -1.1695  1.9320
  124OSM   H15B13125   3.747   5.449   5.744 -2.8745  0.0666  0.9382
  124OSM   H15C13126   3.898   5.441   5.837  0.1125  1.4221 -1.6425
  124OSM    C1413127   3.589   5.322   5.887  0.3728  0.0219 -0.3257
  124OSM   H14A13128   3.548   5.403   5.946  0.3382 -0.2450  0.0187
  124OSM   H14B13129   3.550   5.223   5.906  2.8901 -1.0309 -0.1976
  124OSM   H14C13130   3.560   5.347   5.786  1.8603 -0.7737 -0.9778
  124OSM    C1313131   3.783   5.193   5.837 -0.3283 -0.3702 -0.4693
  124OSM   H13A13132   3.778   5.214   5.731  0.7153  0.8282 -0.2969
  124OSM   H13B13133   3.723   5.107   5.863  1.2812 -1.1650  0.8223
  124OSM   H13C13134   3.885   5.169   5.863 -0.8448  0.1541  2.4572
  124OSM    C1213135   3.773   5.318   6.047 -0.1130  0.2036 -0.2672
  124OSM   H12A13136   3.875   5.286   6.061 -0.9688 -1.8260  1.7917
  124OSM   H12B13137   3.716   5.241   6.095 -1.1260  0.5593 -0.8575
  124OSM    C1113138   3.745   5.449   6.121 -0.3939  0.0784 -0.2367
  124OSM   H11A13139   3.739   5.422   6.228  1.1314 -0.3440 -0.2381
  124OSM   H11B13140   3.650   5.494   6.083 -2.0673 -0.9838  2.3494
  124OSM      P13141   4.000   5.509   6.133 -0.2702  0.0918  0.0105
  124OSM    O1313142   4.032   5.368   6.108 -0.1643  0.0063 -0.6010
  124OSM    O1413143   4.083   5.614   6.068  0.3944 -0.0063  0.2126
  124OSM    O1113144   3.995   5.529   6.290  0.0992 -0.3150 -0.5307
  124OSM    O1213145   3.849   5.540   6.098  0.4657 -0.0728  0.4439
  124OSM    C1S13146   4.087   5.481   6.391  0.2179 -0.2581  0.1452
  124OSM    H1S13147   4.193   5.503   6.366  0.6031 -0.9693  1.0890
  124OSM    H1T13148   4.085   5.370   6.387  0.1040 -0.2954  0.9656
  124OSM     NF13149   4.171   5.523   6.629 -0.8620  0.1077 -0.1873
  124OSM    HNF13150   4.173   5.449   6.696  1.6343 -0.1543 -0.4360
  124OSM    C2S13151   4.057   5.536   6.542 -0.1076 -0.1164 -0.8364
  124OSM    H2S13152   4.035   5.645   6.536 -0.2663  0.0413  1.6473
  124OSM    C3S13153   3.927   5.476   6.596 -0.5595  1.0948 -0.3967
  124OSM    H3S13154   3.941   5.366   6.602 -1.9529  0.9543  0.5542
  124OSM     O313155   3.820   5.492   6.508  0.4836  0.4133  0.5904
  124OSM    HO313156   3.867   5.519   6.429  0.4918 -0.9242  0.1288
  124OSM    C4S13157   3.905   5.533   6.726  0.2914 -0.1519  0.1537
  124OSM    H4S13158   3.948   5.475   6.809  1.1589 -0.9953 -0.8539
  124OSM    C5S13159   3.848   5.650   6.750 -0.5412  0.3892  0.0018
  124OSM    H5S13160   3.819   5.720   6.671  1.1036 -0.5563 -1.5070
  124OSM    C6S13161   3.823   5.702   6.892  0.0395 -0.0202 -0.5744
  124OSM    H6S13162   3.714   5.710   6.912  0.2790 -0.1699  0.8655
  124OSM    H6T13163   3.865   5.805   6.888  0.3514 -0.1742 -1.7606
  124OSM    C7S13164   3.878   5.635   7.017  0.1783 -0.1038  0.2857
  124OSM    H7S13165   3.987   5.651   7.002 -0.0123 -0.2318 -1.5106
  124OSM    H7T13166   3.852   5.527   7.013 -1.9119  0.3168  1.2411
  124OSM    C8S13167   3.841   5.706   7.145  0.8448  0.6211 -0.0157
  124OSM    H8S13168   3.730   5.711   7.149  0.9184  2.1502  1.3454
  124OSM    H8T13169   3.883   5.808   7.132 -1.7138  1.5362 -1.9847
  124OSM    C9S13170   3.890   5.633   7.271 -0.5433  0.3394 -0.7220
  124OSM    H9S13171   3.839   5.534   7.273  1.6391 -0.8799  2.6644
  124OSM    H9T13172   3.864   5.685   7.366  0.8235  0.4863 -0.4036
  124OSM   C10S13173   4.046   5.610   7.271  0.0827 -1.0176 -0.9513
  124OSM   H10S13174   4.096   5.709   7.265 -0.0760 -0.9570 -1.3204
  124OSM   H10T13175   4.076   5.551   7.182 -0.1668 -0.7227 -1.2336
  124OSM   C11S13176   4.087   5.527   7.395 -0.3590 -0.1600  0.1129
  124OSM   H11S13177   4.194   5.498   7.384 -0.0262  0.6519  1.1153
  124OSM   H11T13178   4.028   5.433   7.388 -1.6545  0.3562  2.9038
  124OSM   C12S13179   4.063   5.599   7.532  0.5188 -0.3957 -0.2580
  124OSM   H12S13180   3.967   5.652   7.549 -0.2455 -1.6206 -0.6821
  124OSM   H12T13181   4.147   5.672   7.534  0.9504 -0.8581 -1.0156
  124OSM   C13S13182   4.079   5.497   7.638  0.4892  0.0339 -0.1938
  124OSM   H13S13183   4.170   5.445   7.600  0.7894 -0.3375  0.9839
  124OSM   H13T13184   4.003   5.417   7.642 -0.3196  0.7083 -1.5284
  124OSM   C14S13185   4.103   5.548   7.781  0.7492  0.4418  0.3368
  124OSM   H14S13186   4.010   5.603   7.808 -1.0600 -1.5531 -1.4522
  124OSM   H14T13187   4.181   5.627   7.786  0.0362  1.1063  1.7132
  124OSM   C15S13188   4.125   5.437   7.883  0.3207 -0.0048 -0.7714
  124OSM   H15S13189   4.230   5.403   7.870  1.8400  3.6749  0.5252
  124OSM   H15T13190   4.053   5.354   7.870  0.2768 -0.4935  2.0565
  124OSM   C16S13191   4.130   5.492   8.034  0.2837 -0.4430  0.5090
  124OSM   H16S13192   4.035   5.545   8.058  0.2988 -0.3912  0.4537
  124OSM   H16T13193   4.210   5.569   8.030  1.1442 -1.3622 -1.3134
  124OSM   C17S13194   4.179   5.396   8.142 -0.6652  0.3218 -0.0056
  124OSM   H17S13195   4.283   5.359   8.124  0.4265  2.2555  1.8604
  124OSM   H17T13196   4.111   5.309   8.130  0.3083 -0.5775  0.7820
  124OSM   C18S13197   4.170   5.452   8.285 -0.5649  0.1125 -0.0302
  124OSM   H18S13198   4.220   5.375   8.347 -0.2228  0.0514 -0.3749
  124OSM   H18T13199   4.069   5.476   8.322 -1.1471 -1.5580 -0.4634
  124OSM   H18U13200   4.223   5.549   8.294 -0.6646  0.0012  2.3034
  124OSM    C1F13201   4.287   5.590   6.609  0.6610  0.4290  0.2842
  124OSM     OF13202   4.294   5.693   6.541  0.6082  0.1256 -0.1650
  124OSM    C2F13203   4.400   5.530   6.691  0.0622  0.6588  0.5446
  124OSM    H2F13204   4.477   5.501   6.616  0.9804  1.7410  1.0415
  124OSM    H2G13205   4.367   5.435   6.738  2.8605 -1.3921 -1.3059
  124OSM    C3F13206   4.441   5.621   6.800  0.1526 -0.9394 -0.3300
  124OSM    H3F13207   4.465   5.717   6.751  0.5743 -1.5520 -1.3379
  124OSM    H3G13208   4.525   5.562   6.841  1.0221  0.0505 -0.6571
  124OSM    C4F13209   4.343   5.653   6.917 -0.3725  0.3945 -0.7525
  124OSM    H4F13210   4.319   5.549   6.947  1.9290  0.4526  1.6774
  124OSM    H4G13211   4.264   5.725   6.888  0.1669  1.2889 -0.0435
  124OSM    C5F13212   4.441   5.712   7.026 -0.1229 -0.6400 -0.3764
  124OSM    H5F13213   4.489   5.806   6.993 -2.3195  0.9469  0.7249
  124OSM    H5G13214   4.526   5.641   7.037  0.8004  0.3379 -1.0945
  124OSM    C6F13215   4.365   5.733   7.164 -0.2381  0.0484 -0.6432
  124OSM    H6F13216   4.341   5.627   7.190 -1.7806  0.6996  0.7269
  124OSM    H6G13217   4.277   5.798   7.146 -0.0921 -0.1576 -2.2361
  124OSM    C7F13218   4.453   5.800   7.273 -0.5814  0.4924  0.2757
  124OSM    H7F13219   4.508   5.891   7.242 -0.5756  0.0333 -1.1407
  124OSM    H7G13220   4.536   5.729   7.293 -1.4626 -1.2527 -1.8529
  124OSM    C8F13221   4.378   5.824   7.409 -0.0506  0.2691  0.0900
  124OSM    H8F13222   4.326   5.727   7.425  0.4538 -0.3133 -1.5633
  124OSM    H8G13223   4.294   5.892   7.382 -1.3800 -1.4009 -0.1365
  124OSM    C9F13224   4.467   5.857   7.525  0.2821 -0.1426  0.1731
  124OSM    H9F13225   4.518   5.954   7.528 -0.6917  0.4441 -1.2124
  124OSM   C10F13226   4.504   5.769   7.623  1.1229  0.6929  0.2816
  124OSM   H10F13227   4.570   5.806   7.703  1.7600 -1.5292  0.8490
  124OSM   C11F13228   4.466   5.622   7.626  0.2421  0.1886 -0.4355
  124OSM   H11F13229   4.502   5.567   7.536  0.3242 -1.3202  0.4854
  124OSM   H11G13230   4.356   5.619   7.640  0.3028  0.3099  0.0570
  124OSM   C12F13231   4.528   5.549   7.746 -0.4634  0.2810 -0.3798
  124OSM   H12F13232   4.637   5.560   7.735 -0.1789  2.0393  2.9556
  124OSM   H12G13233   4.497   5.442   7.744  0.1452  0.0246  1.4500
  124OSM   C13F13234   4.490   5.603   7.888 -0.7680  0.8295  0.6360
  124OSM   H13F13235   4.384   5.576   7.904 -1.3428  1.7159 -1.3872
  124OSM   H13G13236   4.489   5.714   7.890 -0.2110  0.8528  0.1039
  124OSM   C14F13237   4.562   5.558   8.016  0.0347  0.0816 -0.6784
  124OSM   H14F13238   4.664   5.601   8.009  0.9091 -2.0399 -1.7408
  124OSM   H14G13239   4.566   5.447   8.019  0.9460  0.1304  0.3961
  124OSM   C15F13240   4.492   5.614   8.143  0.8140  0.6989  0.0545
  124OSM   H15F13241   4.519   5.556   8.233  0.4156  2.0613  1.0927
  124OSM   H15G13242   4.383   5.594   8.132  0.7980  0.0552  1.2238
  124OSM   C16F13243   4.526   5.760   8.170 -0.0859  0.1736  0.7259
  124OSM   H16F13244   4.473   5.817   8.091  0.0258 -1.9893 -1.0099
  124OSM   H16G13245   4.636   5.767   8.159  0.1382 -3.5161 -0.6880
  124OSM   C17F13246   4.484   5.812   8.303 -0.2662 -0.1824 -0.5468
  124OSM   H17F13247   4.541   5.755   8.380  3.0131  3.7454  0.2258
  124OSM   H17G13248   4.375   5.798   8.323 -0.2208 -1.8647 -1.2514
  124OSM   C18F13249   4.526   5.958   8.320 -0.5343  0.6006 -0.1249
  124OSM   H18F13250   4.468   6.028   8.258 -3.0359 -2.9102 -2.1086
  124OSM   H18G13251   4.634   5.969   8.294 -0.6853  1.6158 -0.3332
  124OSM   H18H13252   4.508   6.000   8.421 -1.1312  1.1931 -0.4714
  125OSM      N13253   6.186   4.807   6.305 -0.1021  0.1886  0.5658
  125OSM    C1513254   6.148   4.676   6.375  0.1667 -0.1949  0.1831
  125OSM   H15A13255   6.064   4.678   6.443  0.0256  0.4215 -0.0053
  125OSM   H15B13256   6.233   4.656   6.439  0.9170 -0.7699 -0.9589
  125OSM   H15C13257   6.129   4.600   6.301  0.6967  0.4502 -0.6426
  125OSM    C1413258   6.223   4.904   6.404 -0.1913 -0.3830 -0.2987
  125OSM   H14A13259   6.152   4.904   6.485  0.4852 -1.1471  0.3032
  125OSM   H14B13260   6.238   5.005   6.369 -2.6084  0.0551 -0.2355
  125OSM   H14C13261   6.314   4.871   6.450 -1.6715 -1.0107  2.3865
  125OSM    C1313262   6.303   4.789   6.219  0.4412 -0.2147 -0.2038
  125OSM   H13A13263   6.277   4.713   6.147 -0.0021  0.3584 -0.6606
  125OSM   H13B13264   6.392   4.754   6.268  0.0841 -1.5249 -0.4637
  125OSM   H13C13265   6.325   4.878   6.162 -2.3418  0.0679 -0.9846
  125OSM    C1213266   6.070   4.854   6.214 -0.5881 -0.3078  0.2701
  125OSM   H12A13267   6.057   4.791   6.126 -0.3265 -0.6183  0.4526
  125OSM   H12B13268   6.103   4.945   6.165 -1.5865 -0.0669  0.0249
  125OSM    C1113269   5.943   4.875   6.293 -0.0365 -0.8657  0.5931
  125OSM   H11A13270   5.971   4.949   6.372  3.6939  0.5956 -1.8222
  125OSM   H11B13271   5.900   4.781   6.335 -1.7885 -1.3508 -2.0545
  125OSM      P13272   5.834   5.094   6.198  0.1970  0.3356 -0.1004
  125OSM    O1313273   5.963   5.160   6.174 -0.1847 -0.3451 -0.1106
  125OSM    O1413274   5.718   5.132   6.108  0.6289  0.9380 -0.6752
  125OSM    O1113275   5.789   5.113   6.350 -0.1036  0.0779  0.2134
  125OSM    O1213276   5.849   4.934   6.192  0.6973 -0.1804  0.3823
  125OSM    C1S13277   5.754   5.246   6.393  0.6482 -0.4945  0.5222
  125OSM    H1S13278   5.646   5.259   6.373  0.7271 -0.5412  0.0547
  125OSM    H1T13279   5.811   5.327   6.343  3.4110 -2.5064  0.1701
  125OSM     NF13280   5.757   5.412   6.572  0.9234  0.4860 -0.4525
  125OSM    HNF13281   5.837   5.472   6.569  0.2974  1.3582 -3.0863
  125OSM    C2S13282   5.779   5.272   6.545  0.8887  0.1645  0.5257
  125OSM    H2S13283   5.701   5.211   6.596  0.3951  0.3719  0.0399
  125OSM    C3S13284   5.908   5.214   6.599 -1.4673  0.0234 -0.3568
  125OSM    H3S13285   5.990   5.246   6.531 -1.7872  0.2350 -0.6427
  125OSM     O313286   5.906   5.071   6.607 -0.1150 -0.2061 -0.3891
  125OSM    HO313287   5.844   5.047   6.538 -1.6445 -1.6816  1.3902
  125OSM    C4S13288   5.946   5.268   6.738 -0.1454  0.1180 -0.4977
  125OSM    H4S13289   5.866   5.271   6.814  0.8909  0.9634  0.6009
  125OSM    C5S13290   6.066   5.323   6.773  0.1030 -0.1579 -0.2861
  125OSM    H5S13291   6.135   5.344   6.690 -1.0008  2.2416 -0.6719
  125OSM    C6S13292   6.080   5.380   6.905 -0.1585 -0.9537 -0.2680
  125OSM    H6S13293   6.184   5.384   6.945  0.2133  0.1872 -1.2958
  125OSM    H6T13294   6.033   5.306   6.974  0.9482 -0.4652  1.0521
  125OSM    C7S13295   6.005   5.509   6.916  0.1167  0.1880  0.1589
  125OSM    H7S13296   5.895   5.495   6.906  0.2999 -1.1021 -0.2666
  125OSM    H7T13297   6.023   5.577   6.831 -1.5997 -1.8174 -1.9550
  125OSM    C8S13298   6.031   5.591   7.044 -0.1745  0.2461 -0.2482
  125OSM    H8S13299   5.957   5.673   7.041  0.4838  0.8331 -1.2658
  125OSM    H8T13300   6.133   5.633   7.031 -0.3915  1.9002  2.6540
  125OSM    C9S13301   6.009   5.517   7.173 -0.7607 -0.0729 -1.0632
  125OSM    H9S13302   6.045   5.412   7.169  1.4982  0.5622  0.4947
  125OSM    H9T13303   5.900   5.499   7.183 -0.9097  1.0819 -0.3729
  125OSM   C10S13304   6.053   5.597   7.304  0.1572  0.0329 -0.0748
  125OSM   H10S13305   6.155   5.632   7.279  0.1839 -1.3433 -2.2003
  125OSM   H10T13306   6.059   5.523   7.387 -0.1928 -0.3266 -0.3676
  125OSM   C11S13307   5.968   5.723   7.324 -0.2469  0.2634  0.3407
  125OSM   H11S13308   5.862   5.691   7.339 -0.4785 -0.8422 -2.8861
  125OSM   H11T13309   5.962   5.774   7.226 -0.9940 -0.5421 -0.0498
  125OSM   C12S13310   6.022   5.802   7.445  0.4231 -0.1709 -0.4516
  125OSM   H12S13311   5.984   5.905   7.457 -1.4712 -0.8754  0.0037
  125OSM   H12T13312   6.133   5.807   7.442  0.6322 -3.2241 -1.9587
  125OSM   C13S13313   5.987   5.743   7.578 -0.2294 -0.3403 -0.1076
  125OSM   H13S13314   6.032   5.641   7.577 -0.3976 -0.4128 -0.3599
  125OSM   H13T13315   5.878   5.729   7.591 -0.2091 -0.1475  0.3098
  125OSM   C14S13316   6.049   5.834   7.692 -0.3020  0.2707  0.1507
  125OSM   H14S13317   6.035   5.943   7.672  0.2243  0.6546  1.6875
  125OSM   H14T13318   6.158   5.812   7.687  0.3039  2.5468  1.8050
  125OSM   C15S13319   6.016   5.807   7.836 -0.6095  0.1580  0.0390
  125OSM   H15S13320   6.068   5.876   7.905 -2.2779  0.7214  0.7591
  125OSM   H15T13321   6.032   5.702   7.870  0.1230  0.8193  1.8662
  125OSM   C16S13322   5.870   5.849   7.865 -0.3494  0.5206  0.1413
  125OSM   H16S13323   5.798   5.794   7.800 -0.1672 -1.5116  1.5838
  125OSM   H16T13324   5.849   5.955   7.837 -0.6917  0.6895  1.0156
  125OSM   C17S13325   5.840   5.827   8.012  0.1934  0.6604 -0.4853
  125OSM   H17S13326   5.921   5.862   8.080  1.1926 -0.2566 -1.1668
  125OSM   H17T13327   5.840   5.716   8.024  1.8222  0.3800 -2.4934
  125OSM   C18S13328   5.706   5.882   8.053  1.0512  0.1487 -0.2959
  125OSM   H18S13329   5.683   5.863   8.160  0.9895 -0.1424 -0.3590
  125OSM   H18T13330   5.619   5.832   8.005  0.1045  0.1079  1.3989
  125OSM   H18U13331   5.696   5.990   8.030 -2.9272  0.0153  0.0881
  125OSM    C1F13332   5.632   5.463   6.588 -0.1568  0.2773  0.1312
  125OSM     OF13333   5.533   5.393   6.577  0.1939 -0.4807 -0.0635
  125OSM    C2F13334   5.621   5.607   6.607  0.5089 -0.3741 -0.0575
  125OSM    H2F13335   5.517   5.636   6.581  0.6499  0.2679  0.0724
  125OSM    H2G13336   5.684   5.651   6.527 -1.7530  2.0201 -0.6559
  125OSM    C3F13337   5.682   5.662   6.739 -0.0922  0.0049 -0.2065
  125OSM    H3F13338   5.681   5.772   6.748  2.2763  0.1367 -0.8954
  125OSM    H3G13339   5.785   5.625   6.759 -0.7774 -1.1094  1.5830
  125OSM    C4F13340   5.598   5.622   6.863  0.3154  0.4072  0.4932
  125OSM    H4F13341   5.602   5.512   6.872  3.2987  0.1873 -1.7402
  125OSM    H4G13342   5.492   5.649   6.843 -0.0141  0.9221  2.7371
  125OSM    C5F13343   5.645   5.688   6.988 -0.3563 -0.6253 -0.5333
  125OSM    H5F13344   5.654   5.798   6.976  0.9195 -0.7322 -0.7580
  125OSM    H5G13345   5.747   5.647   7.003  1.1918  3.0442  0.1334
  125OSM    C6F13346   5.556   5.675   7.109  0.2422  0.1011  0.1216
  125OSM    H6F13347   5.571   5.571   7.147 -2.3505 -1.3216 -2.3400
  125OSM    H6G13348   5.448   5.689   7.087  0.2676  0.0922 -0.0044
  125OSM    C7F13349   5.600   5.774   7.217  0.3895  0.0716  0.3536
  125OSM    H7F13350   5.571   5.879   7.193  1.7496  0.3025 -0.3602
  125OSM    H7G13351   5.710   5.765   7.232  0.3756  0.8089  1.0432
  125OSM    C8F13352   5.538   5.747   7.358  0.6310 -0.0906  0.4397
  125OSM    H8F13353   5.540   5.640   7.386  0.4876 -0.0491  0.6113
  125OSM    H8G13354   5.433   5.781   7.345  0.9581  1.0553  0.6271
  125OSM    C9F13355   5.600   5.837   7.462 -0.4439  0.2156  0.4299
  125OSM    H9F13356   5.697   5.875   7.427 -1.3884  2.5295  0.1457
  125OSM   C10F13357   5.543   5.867   7.582  0.2336  0.0790 -0.5331
  125OSM   H10F13358   5.612   5.924   7.647  1.0643  0.8102 -2.0090
  125OSM   C11F13359   5.408   5.812   7.644 -1.1872 -1.0787  0.1318
  125OSM   H11F13360   5.353   5.755   7.567  0.6343  1.4072 -3.2496
  125OSM   H11G13361   5.343   5.895   7.679  1.1948  0.9233  0.0622
  125OSM   C12F13362   5.443   5.709   7.755 -0.0841 -0.1474 -0.0936
  125OSM   H12F13363   5.480   5.758   7.848 -0.8097 -0.0350  0.1388
  125OSM   H12G13364   5.529   5.650   7.714 -0.3061 -0.1695 -0.5292
  125OSM   C13F13365   5.331   5.611   7.792 -0.0138  0.5130 -0.2428
  125OSM   H13F13366   5.272   5.579   7.704  0.3015  1.8871 -0.9788
  125OSM   H13G13367   5.260   5.666   7.858 -0.3527  2.3868 -2.0787
  125OSM   C14F13368   5.388   5.487   7.873 -0.3377  0.2545 -0.2820
  125OSM   H14F13369   5.449   5.434   7.797  0.7761  1.2769 -0.1267
  125OSM   H14G13370   5.303   5.423   7.906  0.3030 -1.0933 -1.1603
  125OSM   C15F13371   5.458   5.522   8.003  0.2267 -0.0070  0.4586
  125OSM   H15F13372   5.527   5.608   7.985 -1.2554  1.1696  0.2641
  125OSM   H15G13373   5.524   5.439   8.034  0.0456 -0.5693 -0.6020
  125OSM   C16F13374   5.369   5.560   8.129  0.1565  0.5401 -0.2439
  125OSM   H16F13375   5.310   5.469   8.154  0.3141  0.6167  0.4201
  125OSM   H16G13376   5.284   5.621   8.092  1.4347  0.9561 -2.7698
  125OSM   C17F13377   5.429   5.622   8.254  0.6527  0.0578  0.5085
  125OSM   H17F13378   5.472   5.720   8.223  2.4298 -0.9914 -0.5348
  125OSM   H17G13379   5.517   5.560   8.285 -0.4468 -2.1346 -0.5133
  125OSM   C18F13380   5.328   5.644   8.366  0.5728  0.1454 -0.7793
  125OSM   H18F13381   5.375   5.673   8.462 -1.7033  0.8353  0.1821
  125OSM   H18G13382   5.282   5.551   8.407  0.6708  0.0827 -0.8103
  125OSM   H18H13383   5.247   5.715   8.337 -0.1753 -1.1567 -2.0287
  126OSM      N13384   4.886   2.815   6.445  0.0647 -0.1371  0.3691
  126OSM    C1513385   5.015   2.879   6.476  0.3015 -0.2340  0.4910
  126OSM   H15A13386   5.052   2.872   6.577  0.2007  2.0165  0.7338
  126OSM   H15B13387   5.010   2.986   6.461  0.1072 -0.2963  0.1086
  126OSM   H15C13388   5.084   2.843   6.402 -0.3657 -2.4455  0.8833
  126OSM    C1413389   4.843   2.860   6.305  0.7726  0.7602  0.1757
  126OSM   H14A13390   4.820   2.965   6.295  0.1487  0.8716  2.2717
  126OSM   H14B13391   4.749   2.809   6.291 -0.0117  2.3210 -0.4152
  126OSM   H14C13392   4.907   2.829   6.223 -0.9409  0.6381 -1.1761
  126OSM    C1313393   4.913   2.673   6.434 -0.3346  0.3433  0.5088
  126OSM   H13A13394   4.994   2.651   6.367  0.3369 -0.4523  1.5467
  126OSM   H13B13395   4.826   2.618   6.402  0.1162 -1.7481  2.5943
  126OSM   H13C13396   4.946   2.625   6.525  2.6194  1.2127  0.0098
  126OSM    C1213397   4.784   2.851   6.553 -0.0252  0.1824  0.4513
  126OSM   H12A13398   4.829   2.814   6.644 -0.3865 -1.3788  0.0288
  126OSM   H12B13399   4.697   2.792   6.529 -0.6720  0.0822  2.8464
  126OSM    C1113400   4.741   2.996   6.566 -0.4853 -0.2405 -0.7517
  126OSM   H11A13401   4.838   3.050   6.561 -0.2181 -0.4465  1.2695
  126OSM   H11B13402   4.704   3.024   6.667  1.6570 -0.4831  0.1661
  126OSM      P13403   4.510   3.005   6.439 -0.3479  0.2475 -0.0951
  126OSM    O1313404   4.453   3.091   6.332  0.7100  0.4006 -0.0027
  126OSM    O1413405   4.496   2.856   6.422 -0.0705 -0.4183 -0.3315
  126OSM    O1113406   4.446   3.053   6.576 -0.5832 -0.7000 -0.2278
  126OSM    O1213407   4.657   3.047   6.455 -0.1773 -0.1954  0.1874
  126OSM    C1S13408   4.441   2.962   6.688  0.3495  0.4434 -0.5187
  126OSM    H1S13409   4.536   2.906   6.701  1.1482  1.9713  0.4769
  126OSM    H1T13410   4.353   2.894   6.686 -0.0309  0.9303 -0.7081
  126OSM     NF13411   4.408   2.924   6.922  0.6304  0.3545  0.3636
  126OSM    HNF13412   4.314   2.901   6.946  0.5056  0.8376  0.3344
  126OSM    C2S13413   4.434   3.026   6.823 -0.3522 -0.5248 -0.6084
  126OSM    H2S13414   4.536   3.070   6.829 -1.3585  2.0585 -1.1797
  126OSM    C3S13415   4.331   3.136   6.824 -0.2964  0.4123  0.3134
  126OSM    H3S13416   4.234   3.094   6.789 -0.9050  1.9420  0.1008
  126OSM     O313417   4.354   3.238   6.726  0.2357  1.0026  0.6287
  126OSM    HO313418   4.408   3.189   6.664 -0.3850  1.8207 -0.5826
  126OSM    C4S13419   4.317   3.199   6.959 -0.4478  0.1315 -0.3589
  126OSM    H4S13420   4.413   3.229   7.004 -0.0639 -1.1033 -0.3257
  126OSM    C5S13421   4.201   3.229   7.021  0.6237 -0.0774 -0.4097
  126OSM    H5S13422   4.110   3.223   6.960  0.9945  2.8801 -1.4303
  126OSM    C6S13423   4.179   3.311   7.148  0.1440 -0.7025 -0.3561
  126OSM    H6S13424   4.092   3.276   7.206 -2.0106  2.8082 -1.1570
  126OSM    H6T13425   4.139   3.407   7.109 -1.4537 -1.1691  0.0749
  126OSM    C7S13426   4.300   3.348   7.233 -0.2370 -0.5589  0.1183
  126OSM    H7S13427   4.390   3.361   7.170 -0.8858 -1.5097 -1.0330
  126OSM    H7T13428   4.335   3.268   7.302  3.5385  0.1218 -0.7870
  126OSM    C8S13429   4.280   3.472   7.325  1.0113  0.1011  0.2913
  126OSM    H8S13430   4.264   3.550   7.247  3.7136 -0.0472 -0.5017
  126OSM    H8T13431   4.381   3.503   7.359  0.7620  2.0879 -0.6428
  126OSM    C9S13432   4.167   3.465   7.430  0.2032 -0.1058  0.0204
  126OSM    H9S13433   4.075   3.408   7.403 -0.9155  1.4826  0.2841
  126OSM    H9T13434   4.146   3.574   7.440  3.3821  0.6657 -0.5930
  126OSM   C10S13435   4.231   3.405   7.554 -0.0821  0.0680  1.1215
  126OSM   H10S13436   4.306   3.477   7.594  1.0795  0.2649 -1.2354
  126OSM   H10T13437   4.293   3.316   7.530 -2.0442 -0.3472 -3.5027
  126OSM   C11S13438   4.140   3.370   7.677 -0.2147 -0.5806  0.1821
  126OSM   H11S13439   4.040   3.340   7.639 -0.2838 -0.3264  0.1583
  126OSM   H11T13440   4.137   3.469   7.728 -1.5163 -0.5697  0.1210
  126OSM   C12S13441   4.195   3.263   7.767 -0.2194  0.3398 -0.0727
  126OSM   H12S13442   4.278   3.306   7.828 -0.0090 -2.2106  1.6020
  126OSM   H12T13443   4.212   3.177   7.699 -2.8517 -2.4000  2.4493
  126OSM   C13S13444   4.090   3.228   7.875 -0.1600 -0.4248 -0.0711
  126OSM   H13S13445   4.129   3.148   7.941 -0.4076 -0.1571  0.4066
  126OSM   H13T13446   3.993   3.192   7.835 -0.0358 -0.0543 -0.7208
  126OSM   C14S13447   4.053   3.352   7.957  0.4507 -0.2314 -0.2951
  126OSM   H14S13448   3.999   3.427   7.895 -2.2943  0.8229  3.0324
  126OSM   H14T13449   4.151   3.385   7.998  0.4538 -1.9071  1.1729
  126OSM   C15S13450   3.959   3.328   8.080  0.0733  0.2616 -0.5987
  126OSM   H15S13451   4.001   3.267   8.163 -1.1149 -0.1775 -0.2981
  126OSM   H15T13452   3.865   3.281   8.044  1.7160 -2.7798 -1.2641
  126OSM   C16S13453   3.945   3.456   8.154 -0.1724 -0.3764 -0.2223
  126OSM   H16S13454   3.840   3.475   8.184 -0.1764  0.3268 -0.6709
  126OSM   H16T13455   3.974   3.542   8.089 -3.9070  0.0592 -1.5260
  126OSM   C17S13456   4.022   3.466   8.291 -0.4080 -0.8755 -0.3186
  126OSM   H17S13457   4.131   3.450   8.281 -0.2274  0.1626 -0.1884
  126OSM   H17T13458   3.983   3.386   8.357  0.9179 -0.8479  0.5308
  126OSM   C18S13459   3.990   3.598   8.365 -0.8626 -0.0146 -0.6290
  126OSM   H18S13460   4.022   3.682   8.299 -0.0808 -0.8269 -1.3077
  126OSM   H18T13461   4.055   3.592   8.455  0.6189  0.6085 -1.6250
  126OSM   H18U13462   3.881   3.597   8.384 -0.6897  0.7817  0.5277
  126OSM    C1F13463   4.495   2.853   6.983  0.3119 -0.4340 -0.4580
  126OSM     OF13464   4.614   2.868   6.966 -0.7093  0.0849  0.2114
  126OSM    C2F13465   4.448   2.753   7.085  0.2908 -0.0804 -0.4730
  126OSM    H2F13466   4.497   2.657   7.059 -0.7007 -0.1246 -2.3928
  126OSM    H2G13467   4.339   2.740   7.070  0.0543  0.2394  0.8181
  126OSM    C3F13468   4.490   2.794   7.229  0.0315 -0.7715  0.3937
  126OSM    H3F13469   4.596   2.824   7.226 -0.1252 -0.2784 -1.1798
  126OSM    H3G13470   4.486   2.706   7.297 -2.8914 -0.5847  0.6095
  126OSM    C4F13471   4.411   2.924   7.278 -0.7075  0.0222 -0.0519
  126OSM    H4F13472   4.309   2.890   7.307 -0.9838  1.6005  0.9543
  126OSM    H4G13473   4.417   3.006   7.204  3.2311  1.1717  1.2763
  126OSM    C5F13474   4.466   2.979   7.411 -0.5633 -0.2013 -0.4668
  126OSM    H5F13475   4.417   3.073   7.443  0.4414  0.2138 -0.0976
  126OSM    H5G13476   4.568   3.009   7.378  0.2734 -1.7030  0.6152
  126OSM    C6F13477   4.483   2.871   7.516  0.1301 -0.2577 -1.0656
  126OSM    H6F13478   4.548   2.785   7.488 -0.1970 -1.4708  1.6085
  126OSM    H6G13479   4.383   2.828   7.534  1.0112 -1.4763  1.2731
  126OSM    C7F13480   4.528   2.938   7.653 -0.3494  0.1185  0.2604
  126OSM    H7F13481   4.449   3.009   7.685 -0.3185  0.0795  0.4240
  126OSM    H7G13482   4.622   2.995   7.635  0.1245  0.3200  2.8917
  126OSM    C8F13483   4.554   2.832   7.767 -0.2831  0.1085 -0.0942
  126OSM    H8F13484   4.639   2.764   7.745 -1.2034 -0.4890 -2.0209
  126OSM    H8G13485   4.467   2.765   7.753 -0.6666  0.8486 -1.4591
  126OSM    C9F13486   4.530   2.892   7.904  0.7326 -0.2601 -0.1710
  126OSM    H9F13487   4.542   3.001   7.915 -1.9733 -0.1200  3.4438
  126OSM   C10F13488   4.512   2.816   8.016 -0.0186  0.4555 -0.1461
  126OSM   H10F13489   4.497   2.881   8.104 -1.4515 -0.5619  0.4109
  126OSM   C11F13490   4.513   2.667   8.042 -0.1306  0.0751 -0.6691
  126OSM   H11F13491   4.614   2.622   8.032  0.0955  0.1896  0.8565
  126OSM   H11G13492   4.453   2.616   7.964 -0.5777  2.7046 -2.1700
  126OSM   C12F13493   4.465   2.611   8.176  0.2580  0.6292 -0.3374
  126OSM   H12F13494   4.363   2.653   8.187 -0.3376 -0.9221  0.2939
  126OSM   H12G13495   4.538   2.657   8.246  0.1073 -0.1737  0.3582
  126OSM   C13F13496   4.463   2.461   8.187  0.6831 -0.7818 -0.1115
  126OSM   H13F13497   4.561   2.416   8.162  0.3678 -1.6777  0.2563
  126OSM   H13G13498   4.385   2.434   8.112  0.3223  0.1679 -0.1045
  126OSM   C14F13499   4.425   2.413   8.327  1.1566  0.6672  0.1018
  126OSM   H14F13500   4.510   2.423   8.397  0.4086  2.2078  0.8309
  126OSM   H14G13501   4.408   2.304   8.316  3.2892  0.3730 -0.6029
  126OSM   C15F13502   4.295   2.484   8.391  0.0818  0.3221 -0.2036
  126OSM   H15F13503   4.205   2.486   8.327 -1.6531 -2.5964  1.8673
  126OSM   H15G13504   4.315   2.591   8.410 -0.1657  0.0344  1.9784
  126OSM   C16F13505   4.263   2.408   8.521 -0.1066 -0.6511 -0.0532
  126OSM   H16F13506   4.191   2.472   8.575 -1.9682  1.0472 -4.1229
  126OSM   H16G13507   4.353   2.390   8.584  1.1049 -3.1883 -2.2354
  126OSM   C17F13508   4.188   2.274   8.498  0.4414  0.6406  0.3142
  126OSM   H17F13509   4.187   2.224   8.597  2.3766  0.4042  0.2505
  126OSM   H17G13510   4.239   2.203   8.429 -1.9897  0.6477 -1.6083
  126OSM   C18F13511   4.043   2.284   8.447  0.0765 -0.3918 -0.0586
  126OSM   H18F13512   3.977   2.214   8.503 -2.4815  0.3025 -2.0060
  126OSM   H18G13513   4.025   2.257   8.341 -0.9153 -1.2180  0.3061
  126OSM   H18H13514   4.024   2.392   8.464 -0.6059 -0.5276  0.0602
  127OSM      N13515   1.908   3.761   6.017  0.1989 -0.5976  0.5119
  127OSM    C1513516   1.837   3.637   5.987 -0.2450  0.6482  0.2588
  127OSM   H15A13517   1.821   3.615   5.882  1.1482 -1.6597  0.4607
  127OSM   H15B13518   1.750   3.624   6.049 -0.8207 -6.7142 -1.1879
  127OSM   H15C13519   1.897   3.551   6.013 -0.6764  0.0600 -0.6325
  127OSM    C1413520   2.024   3.777   5.925  0.3722  0.0462  0.0152
  127OSM   H14A13521   2.003   3.745   5.824 -2.8527 -0.6815  0.8125
  127OSM   H14B13522   2.113   3.720   5.950  1.0946  1.8122  1.7487
  127OSM   H14C13523   2.049   3.882   5.914  0.3045 -0.1619 -2.7647
  127OSM    C1313524   1.809   3.875   5.987 -0.4948 -0.3061  0.1714
  127OSM   H13A13525   1.725   3.876   6.055 -1.4428  2.0102 -0.8935
  127OSM   H13B13526   1.765   3.861   5.889 -0.2815 -0.7254  0.1360
  127OSM   H13C13527   1.852   3.974   5.990  0.7173 -0.8282  3.0578
  127OSM    C1213528   1.949   3.766   6.161 -0.3633  0.1008 -0.5606
  127OSM   H12A13529   1.864   3.787   6.224 -0.8644 -0.5699 -0.9944
  127OSM   H12B13530   2.011   3.854   6.172 -0.3449 -0.1018  1.2856
  127OSM    C1113531   2.033   3.658   6.220  0.3570  0.1150 -0.1079
  127OSM   H11A13532   1.989   3.558   6.201 -2.4044  1.2282  0.0214
  127OSM   H11B13533   2.025   3.675   6.330  0.1850 -0.2886 -0.0568
  127OSM      P13534   2.266   3.785   6.229  0.0456 -0.0939  0.1474
  127OSM    O1313535   2.402   3.755   6.181 -0.5144 -0.4498 -0.0634
  127OSM    O1413536   2.214   3.907   6.182 -0.5661 -0.0799  0.1948
  127OSM    O1113537   2.260   3.794   6.387  0.3354 -0.3539  0.0182
  127OSM    O1213538   2.170   3.667   6.185  0.0410  0.2889  0.2831
  127OSM    C1S13539   2.246   3.692   6.484  0.4060  0.5386 -0.4442
  127OSM    H1S13540   2.349   3.668   6.517 -0.6979 -1.0622  2.0841
  127OSM    H1T13541   2.194   3.609   6.432  0.1453  0.1545  0.4252
  127OSM     NF13542   2.143   3.641   6.703  0.3614  0.9463 -0.3411
  127OSM    HNF13543   2.051   3.611   6.727  0.2258  2.2876  0.9563
  127OSM    C2S13544   2.159   3.742   6.606 -0.1182 -0.7212 -0.1036
  127OSM    H2S13545   2.227   3.811   6.660  1.9724 -1.5985 -1.4612
  127OSM    C3S13546   2.032   3.812   6.565 -0.0067 -0.4582  0.1596
  127OSM    H3S13547   1.968   3.740   6.509 -2.9474  1.0392  1.4218
  127OSM     O313548   2.056   3.921   6.471 -0.2327 -0.0782 -0.2085
  127OSM    HO313549   2.138   3.900   6.425  0.9059  2.2070  0.5991
  127OSM    C4S13550   1.942   3.851   6.674 -0.7403  0.2641  1.0824
  127OSM    H4S13551   1.893   3.764   6.722  1.1948 -1.2456  0.4436
  127OSM    C5S13552   1.920   3.973   6.732 -0.5088  0.0299  0.2973
  127OSM    H5S13553   1.970   4.061   6.688 -2.1782  0.5698 -0.6125
  127OSM    C6S13554   1.821   4.001   6.838  0.0355 -0.4414 -0.5389
  127OSM    H6S13555   1.714   3.988   6.810 -0.3842  3.8325 -1.6267
  127OSM    H6T13556   1.825   4.108   6.867 -1.3343 -0.1026 -1.4654
  127OSM    C7S13557   1.854   3.917   6.964  0.2824  0.7212  0.0452
  127OSM    H7S13558   1.848   3.810   6.936  0.0214  0.5020  0.9024
  127OSM    H7T13559   1.782   3.947   7.044 -1.0885  0.3686 -1.0327
  127OSM    C8S13560   2.002   3.943   7.011 -0.2042  0.3871  0.4911
  127OSM    H8S13561   2.030   4.039   6.964 -1.7495  1.0754  0.9012
  127OSM    H8T13562   2.060   3.854   6.977 -1.0723 -0.0867  0.2146
  127OSM    C9S13563   2.015   3.940   7.170 -0.2637 -0.3566  0.7509
  127OSM    H9S13564   1.920   3.963   7.221 -0.7156  2.6886 -1.1649
  127OSM    H9T13565   2.098   4.008   7.199  0.8689 -1.3921  0.0622
  127OSM   C10S13566   2.052   3.797   7.216  0.1356  0.1458  0.5958
  127OSM   H10S13567   2.147   3.758   7.173 -1.0456 -4.1942  1.4605
  127OSM   H10T13568   1.971   3.727   7.187 -0.6190  0.7100  1.3171
  127OSM   C11S13569   2.071   3.781   7.370 -0.8215 -0.0136 -0.2975
  127OSM   H11S13570   1.983   3.802   7.435 -0.6313  0.5309 -0.2096
  127OSM   H11T13571   2.155   3.844   7.409 -0.1821 -1.4905  0.7930
  127OSM   C12S13572   2.098   3.639   7.408 -0.5392 -0.8544 -0.6911
  127OSM   H12S13573   2.191   3.603   7.359  0.6218  1.4921 -0.3699
  127OSM   H12T13574   2.011   3.579   7.373 -2.7192  2.6369 -1.8130
  127OSM   C13S13575   2.131   3.608   7.561 -0.5987 -0.5146 -0.6077
  127OSM   H13S13576   2.211   3.676   7.598 -0.0246 -1.2997 -0.3937
  127OSM   H13T13577   2.161   3.503   7.577 -1.8596 -0.8984 -0.6059
  127OSM   C14S13578   2.007   3.619   7.652 -0.0906 -0.2722  0.1287
  127OSM   H14S13579   1.926   3.560   7.605  0.5818 -2.4880  1.6012
  127OSM   H14T13580   1.986   3.728   7.653 -0.5297 -0.3467 -0.5487
  127OSM   C15S13581   2.044   3.578   7.795  0.2025 -0.0262 -0.0378
  127OSM   H15S13582   2.121   3.651   7.827 -0.1306  0.0324  0.6518
  127OSM   H15T13583   2.090   3.477   7.801  1.0495  0.4555  3.0148
  127OSM   C16S13584   1.924   3.602   7.889  0.1310  0.2474  0.8201
  127OSM   H16S13585   1.838   3.538   7.858  0.2560  0.0780  0.8223
  127OSM   H16T13586   1.888   3.706   7.874 -1.4189 -0.3500  0.1762
  127OSM   C17S13587   1.948   3.570   8.038  0.2197 -0.5541  0.9083
  127OSM   H17S13588   2.057   3.580   8.055  0.2516 -1.3991  1.2387
  127OSM   H17T13589   1.913   3.465   8.041 -0.7223 -0.4031 -1.6398
  127OSM   C18S13590   1.868   3.660   8.131  0.5432 -0.8678 -0.3929
  127OSM   H18S13591   1.762   3.626   8.139  0.1096 -0.2033 -2.7327
  127OSM   H18T13592   1.871   3.764   8.093  5.7871  0.1035  1.8323
  127OSM   H18U13593   1.901   3.653   8.237  0.5864  1.8707 -0.1592
  127OSM    C1F13594   2.241   3.561   6.752 -1.4119  0.5208  0.0914
  127OSM     OF13595   2.367   3.592   6.754 -0.8349 -0.5015  0.4949
  127OSM    C2F13596   2.201   3.428   6.798 -0.0771 -0.1568  0.0742
  127OSM    H2F13597   2.229   3.359   6.716  0.3130  0.4161 -0.2804
  127OSM    H2G13598   2.092   3.435   6.820 -0.1827  1.8476 -0.8392
  127OSM    C3F13599   2.271   3.402   6.932  0.1968  0.1294  0.2163
  127OSM    H3F13600   2.246   3.473   7.014 -0.0654  0.7278 -0.3784
  127OSM    H3G13601   2.382   3.397   6.928  0.2615  1.2854  0.2244
  127OSM    C4F13602   2.220   3.266   6.987 -0.3361 -0.4041  0.2193
  127OSM    H4F13603   2.235   3.187   6.910 -3.2590  0.4284 -1.3420
  127OSM    H4G13604   2.112   3.269   7.013  0.2129  0.5192  2.6987
  127OSM    C5F13605   2.295   3.230   7.115  0.1897 -0.0204 -0.4682
  127OSM    H5F13606   2.277   3.314   7.186  1.5576  0.5114 -0.7191
  127OSM    H5G13607   2.403   3.219   7.096  0.8871  0.0567  2.8218
  127OSM    C6F13608   2.243   3.106   7.182  0.2156  0.5748 -0.1980
  127OSM    H6F13609   2.255   3.027   7.105 -0.6175 -0.6044  0.8592
  127OSM    H6G13610   2.137   3.119   7.209 -0.2441 -0.5554 -1.3493
  127OSM    C7F13611   2.321   3.078   7.315  0.2355 -0.3231 -0.0073
  127OSM    H7F13612   2.314   3.159   7.391  2.3247 -2.4521  2.6862
  127OSM    H7G13613   2.426   3.063   7.282 -0.2767  0.9590 -2.4254
  127OSM    C8F13614   2.281   2.943   7.377 -0.1785  0.2418  0.2347
  127OSM    H8F13615   2.356   2.928   7.458  0.0062  0.5178  0.1195
  127OSM    H8G13616   2.303   2.866   7.300 -1.2328  0.8369 -0.6789
  127OSM    C9F13617   2.142   2.927   7.423 -0.7414  0.9587 -0.2760
  127OSM    H9F13618   2.071   2.881   7.353  0.1528 -0.5985 -0.2025
  127OSM   C10F13619   2.094   2.958   7.541  0.3566 -0.3457  0.2904
  127OSM   H10F13620   1.986   2.944   7.557  0.3032 -0.8773 -0.4848
  127OSM   C11F13621   2.173   3.009   7.650  0.0483 -0.3949 -0.7005
  127OSM   H11F13622   2.106   3.077   7.707 -0.8643 -0.7337 -1.3462
  127OSM   H11G13623   2.258   3.070   7.614 -0.0077 -0.5724 -1.1433
  127OSM   C12F13624   2.238   2.906   7.749  0.3856 -0.2608  0.6544
  127OSM   H12F13625   2.296   2.955   7.830 -0.1506 -1.0879  1.5680
  127OSM   H12G13626   2.317   2.851   7.694  0.6338  1.0375 -0.3451
  127OSM   C13F13627   2.139   2.802   7.817 -0.8098  0.3340  0.6570
  127OSM   H13F13628   2.103   2.741   7.732  0.9238 -2.8025  2.0260
  127OSM   H13G13629   2.058   2.852   7.875 -1.8017 -0.9163  0.3915
  127OSM   C14F13630   2.209   2.709   7.912  0.5010 -0.2018  0.2285
  127OSM   H14F13631   2.293   2.664   7.856  1.8122  1.5265  0.7265
  127OSM   H14G13632   2.131   2.632   7.928 -0.1485  0.0816 -1.3521
  127OSM   C15F13633   2.228   2.780   8.046 -0.4019 -0.0381  0.0060
  127OSM   H15F13634   2.128   2.778   8.093  0.1566 -0.5828  1.2197
  127OSM   H15G13635   2.275   2.880   8.030  1.8065 -0.8810  0.8124
  127OSM   C16F13636   2.335   2.705   8.121  0.6599  0.0931  0.2357
  127OSM   H16F13637   2.344   2.762   8.216  0.0797 -0.3698  0.5799
  127OSM   H16G13638   2.428   2.715   8.062  0.4029  1.6224  0.0487
  127OSM   C17F13639   2.301   2.563   8.155  0.1973  0.2809  0.3538
  127OSM   H17F13640   2.329   2.498   8.069 -1.1242 -1.0586  0.8865
  127OSM   H17G13641   2.194   2.534   8.165 -0.4436  2.4722  0.2540
  127OSM   C18F13642   2.364   2.529   8.288  0.5251  0.4285 -0.7729
  127OSM   H18F13643   2.345   2.429   8.331  1.2067  1.2334  1.5807
  127OSM   H18G13644   2.337   2.604   8.365  3.5286  2.6092 -1.6242
  127OSM   H18H13645   2.475   2.539   8.296  0.6052 -0.8954  0.1019
  128OSM      N13646   3.274   1.105   5.664 -0.7580  0.7563  0.2146
  128OSM    C1513647   3.230   0.966   5.639 -0.0814 -0.4450  0.0530
  128OSM   H15A13648   3.258   0.927   5.542  2.2632  1.6196 -0.1963
  128OSM   H15B13649   3.123   0.972   5.656 -0.3673  1.6419 -1.9328
  128OSM   H15C13650   3.274   0.895   5.707 -0.6412 -1.0815 -0.2366
  128OSM    C1413651   3.423   1.111   5.676 -0.1644 -0.9339  0.4169
  128OSM   H14A13652   3.453   1.214   5.689 -1.6233 -0.5315  0.8460
  128OSM   H14B13653   3.480   1.069   5.594  0.5468  0.4272  0.1862
  128OSM   H14C13654   3.453   1.055   5.763  0.8986 -1.1113 -0.0493
  128OSM    C1313655   3.237   1.197   5.555  0.0822  0.0393  0.1456
  128OSM   H13A13656   3.135   1.230   5.563 -0.1810 -0.3756 -1.3296
  128OSM   H13B13657   3.239   1.149   5.458 -1.8986  0.5730 -0.2099
  128OSM   H13C13658   3.290   1.291   5.561 -0.2890  0.2461  0.1977
  128OSM    C1213659   3.215   1.143   5.799 -0.1674  0.1050  0.2322
  128OSM   H12A13660   3.108   1.146   5.786 -0.0094 -1.7144 -2.6586
  128OSM   H12B13661   3.264   1.236   5.823  1.1738 -1.1912  2.8929
  128OSM    C1113662   3.227   1.055   5.928  0.5084 -0.3562 -0.2827
  128OSM   H11A13663   3.174   0.962   5.899 -0.5284  0.5090 -1.2738
  128OSM   H11B13664   3.171   1.104   6.010  0.1535  0.3816 -0.9535
  128OSM      P13665   3.477   1.108   6.029  0.4243 -0.1232 -0.0920
  128OSM    O1313666   3.600   1.036   6.004  0.0469 -0.0758  0.0526
  128OSM    O1413667   3.470   1.250   5.997 -0.7315 -0.1390 -0.3096
  128OSM    O1113668   3.433   1.094   6.180 -0.0894 -0.0517  0.0479
  128OSM    O1213669   3.366   1.029   5.951 -0.4989 -0.2308  0.0977
  128OSM    C1S13670   3.436   0.968   6.252  0.0069  0.2709 -0.1182
  128OSM    H1S13671   3.525   0.909   6.221 -1.2847 -2.2666  0.6565
  128OSM    H1T13672   3.344   0.907   6.238  0.6756 -1.5529  2.6182
  128OSM     NF13673   3.486   0.850   6.485 -0.2730  0.3385 -0.2942
  128OSM    HNF13674   3.408   0.827   6.543 -1.1479 -0.3541 -1.6910
  128OSM    C2S13675   3.459   0.978   6.410  0.3608  0.1775 -0.4555
  128OSM    H2S13676   3.553   1.037   6.421 -0.7625  1.9441  0.1176
  128OSM    C3S13677   3.349   1.068   6.475  0.7442 -0.1047  0.4645
  128OSM    H3S13678   3.249   1.019   6.469  0.7315  0.0537 -1.0758
  128OSM     O313679   3.329   1.186   6.401  0.3517  0.0238  0.7836
  128OSM    HO313680   3.386   1.178   6.324 -0.5600  0.9063 -0.0131
  128OSM    C4S13681   3.382   1.097   6.622  0.3518  0.4647 -0.3311
  128OSM    H4S13682   3.453   1.180   6.636  1.6932 -1.0655  2.8194
  128OSM    C5S13683   3.324   1.045   6.733 -0.0895 -0.5319  0.7674
  128OSM    H5S13684   3.247   0.967   6.728 -0.7530  0.1163  0.6312
  128OSM    C6S13685   3.351   1.092   6.871 -0.1150 -0.0591 -0.2348
  128OSM    H6S13686   3.255   1.119   6.921 -1.0055 -3.7445  0.3265
  128OSM    H6T13687   3.425   1.175   6.871  0.1228 -0.2690 -0.5746
  128OSM    C7S13688   3.389   0.969   6.955 -0.0889  0.5052 -0.6732
  128OSM    H7S13689   3.469   0.905   6.912 -3.8741 -3.6302 -2.4022
  128OSM    H7T13690   3.303   0.901   6.976  1.4957 -1.1205  1.0144
  128OSM    C8S13691   3.450   1.021   7.086  0.2654 -0.2712  0.1206
  128OSM    H8S13692   3.367   1.054   7.153  0.4726 -0.5240  0.5050
  128OSM    H8T13693   3.505   1.113   7.057 -0.6631 -0.5069 -2.6146
  128OSM    C9S13694   3.544   0.922   7.155  1.0897  0.2255  0.7322
  128OSM    H9S13695   3.649   0.947   7.131  1.4200 -2.3282 -0.8991
  128OSM    H9T13696   3.537   0.818   7.116 -1.4931  1.2898 -2.0302
  128OSM   C10S13697   3.516   0.916   7.300 -0.0240 -0.3260 -0.0611
  128OSM   H10S13698   3.417   0.873   7.328 -1.2370  1.1405 -1.8688
  128OSM   H10T13699   3.518   1.015   7.352 -0.9243 -1.0742  1.4634
  128OSM   C11S13700   3.636   0.850   7.379  0.7461  0.4459 -0.3480
  128OSM   H11S13701   3.729   0.887   7.331  1.2135 -1.6668 -1.1538
  128OSM   H11T13702   3.643   0.742   7.358  2.0808  0.1902  1.2652
  128OSM   C12S13703   3.647   0.876   7.533  0.4435 -0.4255  0.2925
  128OSM   H12S13704   3.629   0.984   7.551  2.2612  0.1661 -1.1745
  128OSM   H12T13705   3.753   0.865   7.563  0.9768 -0.0440 -1.3717
  128OSM   C13S13706   3.545   0.794   7.614 -0.2244 -0.5559 -0.4080
  128OSM   H13S13707   3.558   0.685   7.593  1.0673 -0.5423  0.2097
  128OSM   H13T13708   3.443   0.830   7.588 -0.4146  0.4551  1.5290
  128OSM   C14S13709   3.575   0.797   7.770  0.4264  0.5239 -0.2432
  128OSM   H14S13710   3.554   0.897   7.813 -1.3843  0.5917 -1.1690
  128OSM   H14T13711   3.680   0.773   7.794  0.6071  0.6407 -0.9040
  128OSM   C15S13712   3.480   0.698   7.855 -0.3503 -0.2737  0.3460
  128OSM   H15S13713   3.503   0.595   7.820  2.2444  0.6971 -1.1152
  128OSM   H15T13714   3.375   0.710   7.820 -0.0362 -2.7208 -1.7224
  128OSM   C16S13715   3.491   0.705   8.006 -0.4342  0.5962  0.4896
  128OSM   H16S13716   3.416   0.636   8.051  0.5377 -0.8120  0.0416
  128OSM   H16T13717   3.473   0.810   8.035  1.4405 -0.0264  4.5794
  128OSM   C17S13718   3.624   0.650   8.060  0.6701  0.7983  0.1272
  128OSM   H17S13719   3.710   0.698   8.009  1.5126 -1.7758 -1.0668
  128OSM   H17T13720   3.636   0.541   8.041  0.4759  0.6956  0.5737
  128OSM   C18S13721   3.649   0.649   8.210 -0.0583 -0.2623 -0.2684
  128OSM   H18S13722   3.605   0.747   8.239  0.2972  0.5770 -2.3954
  128OSM   H18T13723   3.754   0.637   8.245  0.0671  1.9382  0.2961
  128OSM   H18U13724   3.583   0.577   8.263 -2.4383  1.8168 -0.2133
  128OSM    C1F13725   3.583   0.771   6.434 -0.1308 -0.2373 -0.5880
  128OSM     OF13726   3.677   0.818   6.369 -0.1864  0.2390 -0.5807
  128OSM    C2F13727   3.574   0.617   6.452  0.2496  0.8017  0.1445
  128OSM    H2F13728   3.553   0.577   6.350  0.5488 -0.8863  0.7116
  128OSM    H2G13729   3.504   0.586   6.532  1.6226  2.7636  2.2117
  128OSM    C3F13730   3.717   0.561   6.484 -0.4735  0.4999 -0.5695
  128OSM    H3F13731   3.783   0.592   6.400  0.1251 -1.6573 -0.9542
  128OSM    H3G13732   3.693   0.453   6.484 -0.0957  0.3605  2.0347
  128OSM    C4F13733   3.775   0.614   6.620 -0.4079  0.0636  0.6086
  128OSM    H4F13734   3.779   0.725   6.617 -1.3384  0.3069  3.9329
  128OSM    H4G13735   3.879   0.575   6.626  0.8154  2.7633 -0.8305
  128OSM    C5F13736   3.692   0.581   6.747 -0.1585  0.3523  0.0623
  128OSM    H5F13737   3.659   0.477   6.726  0.5762  0.0480  0.3713
  128OSM    H5G13738   3.599   0.640   6.762 -0.6319 -0.8999  2.6554
  128OSM    C6F13739   3.769   0.570   6.879 -0.4495  0.2166 -0.0113
  128OSM    H6F13740   3.813   0.671   6.890 -2.0512  0.9381 -0.0440
  128OSM    H6G13741   3.846   0.494   6.852  0.2303  1.1276 -0.6984
  128OSM    C7F13742   3.685   0.513   6.989  0.4716  0.3100 -0.0562
  128OSM    H7F13743   3.624   0.423   6.964  0.6855  0.2914 -0.5223
  128OSM    H7G13744   3.606   0.589   7.010 -0.5190  0.3295 -3.2950
  128OSM    C8F13745   3.764   0.471   7.109 -0.6988 -0.5938 -0.1970
  128OSM    H8F13746   3.834   0.396   7.067  0.1989  0.9682 -1.6149
  128OSM    H8G13747   3.711   0.406   7.182  0.0207 -1.2434 -0.2384
  128OSM    C9F13748   3.852   0.578   7.167  0.3171  0.6330  0.4325
  128OSM    H9F13749   3.883   0.656   7.096  3.4739 -0.3843  0.5316
  128OSM   C10F13750   3.902   0.586   7.292  0.1696 -0.1408  0.6472
  128OSM   H10F13751   3.958   0.675   7.323  0.8499 -0.3840  0.1409
  128OSM   C11F13752   3.884   0.478   7.398  0.1122 -1.0558 -0.1919
  128OSM   H11F13753   3.978   0.428   7.430  0.5428 -0.7462 -0.9431
  128OSM   H11G13754   3.816   0.395   7.370 -1.1268 -0.8030  1.8706
  128OSM   C12F13755   3.828   0.554   7.521  0.1101 -0.0945  0.8496
  128OSM   H12F13756   3.726   0.597   7.510 -1.3277 -3.0319  1.6279
  128OSM   H12G13757   3.886   0.648   7.536  1.6306 -0.1771 -3.2660
  128OSM   C13F13758   3.837   0.469   7.655 -0.1613 -0.1389  0.0375
  128OSM   H13F13759   3.784   0.372   7.653 -0.6146  0.1073 -0.2618
  128OSM   H13G13760   3.781   0.527   7.732  0.2904 -0.3417  0.5202
  128OSM   C14F13761   3.981   0.425   7.699 -0.1111 -0.5847  0.0218
  128OSM   H14F13762   4.044   0.516   7.698 -1.0280  0.0764 -1.6031
  128OSM   H14G13763   4.015   0.350   7.625  2.1521  1.8234 -1.5611
  128OSM   C15F13764   3.998   0.351   7.836  0.0332 -0.7946  0.1967
  128OSM   H15F13765   4.108   0.337   7.846  0.5847  2.9570  0.8449
  128OSM   H15G13766   3.942   0.255   7.838  0.2404 -0.9870 -1.4559
  128OSM   C16F13767   3.965   0.434   7.961 -0.1673 -0.4599 -0.2217
  128OSM   H16F13768   3.858   0.462   7.950 -0.0300  0.0791 -0.2268
  128OSM   H16G13769   4.028   0.525   7.956 -0.6872 -0.1568 -2.1808
  128OSM   C17F13770   3.985   0.359   8.096  0.1287  0.0860  0.3678
  128OSM   H17F13771   3.951   0.254   8.084 -0.8737  0.4389  0.0172
  128OSM   H17G13772   3.927   0.411   8.176  1.2130  0.3575  0.9968
  128OSM   C18F13773   4.122   0.351   8.161 -0.2471  0.2922  0.6274
  128OSM   H18F13774   4.110   0.351   8.272 -2.3477 -0.5303  0.4429
  128OSM   H18G13775   4.183   0.429   8.110  0.2750 -0.1039  0.6363
  128OSM   H18H13776   4.167   0.251   8.145  0.5162  0.5299  1.1909
  129OSM      N13777   0.913   1.708   6.029  0.1036 -0.1195  0.3441
  129OSM    C1513778   0.805   1.615   6.057  0.1359  0.3544 -0.2953
  129OSM   H15A13779   0.821   1.548   6.140  0.7067  1.0311  0.1581
  129OSM   H15B13780   0.785   1.550   5.973  1.9157 -0.3085 -0.2403
  129OSM   H15C13781   0.712   1.665   6.081 -1.2035 -2.2989  0.4662
  129OSM    C1413782   1.027   1.639   5.954 -0.2505 -0.0184 -0.6813
  129OSM   H14A13783   1.084   1.570   6.014 -1.1348 -0.0609  0.1261
  129OSM   H14B13784   1.094   1.718   5.923 -0.5035 -0.0987 -1.4498
  129OSM   H14C13785   0.997   1.577   5.872 -3.0326 -2.0959  1.7238
  129OSM    C1313786   0.862   1.805   5.942  0.1584  0.3474  0.0795
  129OSM   H13A13787   0.880   1.762   5.845  1.6640  0.5386  0.2394
  129OSM   H13B13788   0.914   1.899   5.929  0.3568  0.2121 -0.1171
  129OSM   H13C13789   0.758   1.835   5.943  0.1198  0.9973 -4.0795
  129OSM    C1213790   0.971   1.775   6.156 -0.1068 -0.7811 -0.2548
  129OSM   H12A13791   1.010   1.703   6.227  1.5405  1.6404  1.4270
  129OSM   H12B13792   0.889   1.822   6.209  0.8060 -1.0414  1.4573
  129OSM    C1113793   1.089   1.877   6.144 -0.0178  0.4388 -0.7848
  129OSM   H11A13794   1.175   1.815   6.111 -0.5962 -0.0223 -1.4357
  129OSM   H11B13795   1.111   1.914   6.247 -0.1544  1.7037 -1.1960
  129OSM      P13796   1.080   2.128   6.092 -0.3883 -0.0886  0.2550
  129OSM    O1313797   1.209   2.164   6.036 -0.1861  0.1993  0.2309
  129OSM    O1413798   0.968   2.210   6.051  0.0411 -0.1618 -0.6257
  129OSM    O1113799   1.088   2.138   6.246 -0.2349 -0.0453  0.3256
  129OSM    O1213800   1.060   1.980   6.054 -0.1821  0.2287  0.0456
  129OSM    C1S13801   0.973   2.124   6.325  0.0614 -0.2273 -0.1648
  129OSM    H1S13802   0.911   2.037   6.296  1.2213 -1.3192  0.5250
  129OSM    H1T13803   0.911   2.215   6.312 -0.5874 -0.6229  0.1294
  129OSM     NF13804   0.888   2.086   6.565 -0.0140  0.5651  0.1374
  129OSM    HNF13805   0.854   2.166   6.615  0.0120  0.0197  1.0404
  129OSM    C2S13806   1.003   2.114   6.481 -0.7265 -0.5766 -0.1880
  129OSM    H2S13807   1.076   2.031   6.488 -0.8783 -0.8601 -1.6598
  129OSM    C3S13808   1.071   2.244   6.526 -1.1333  0.3914 -0.6592
  129OSM    H3S13809   1.001   2.330   6.528 -0.0282  1.3429 -1.4217
  129OSM     O313810   1.179   2.287   6.439  0.2678 -0.3815  0.1371
  129OSM    HO313811   1.168   2.214   6.377  0.0312 -1.4220  1.3713
  129OSM    C4S13812   1.129   2.215   6.659  0.1348 -0.0975 -0.2833
  129OSM    H4S13813   1.061   2.232   6.744  1.2884 -1.9372  1.0823
  129OSM    C5S13814   1.259   2.185   6.690  0.4651 -0.9142 -0.1546
  129OSM    H5S13815   1.333   2.184   6.609 -0.0699 -0.4570 -0.6547
  129OSM    C6S13816   1.303   2.159   6.837  0.1537 -0.3394  0.3608
  129OSM    H6S13817   1.392   2.218   6.866 -0.0276  0.1606 -0.0742
  129OSM    H6T13818   1.351   2.059   6.832  3.1344  0.9616  0.7908
  129OSM    C7S13819   1.199   2.140   6.955  0.3329 -0.6969  0.9652
  129OSM    H7S13820   1.129   2.058   6.925  2.4158 -1.8987 -0.9173
  129OSM    H7T13821   1.125   2.223   6.957 -2.9319 -3.3206  0.0341
  129OSM    C8S13822   1.262   2.121   7.096  0.3647  0.1474 -0.1515
  129OSM    H8S13823   1.327   2.207   7.121  0.8126  0.6517 -2.7200
  129OSM    H8T13824   1.323   2.028   7.092  0.7833  0.4203 -0.2986
  129OSM    C9S13825   1.149   2.110   7.201 -0.1864 -0.1185  0.2365
  129OSM    H9S13826   1.049   2.068   7.174 -1.8253  1.3480  3.4227
  129OSM    H9T13827   1.132   2.215   7.232  0.7178  0.5222 -1.3319
  129OSM   C10S13828   1.199   2.027   7.323  0.4020  0.3380  0.4034
  129OSM   H10S13829   1.284   2.077   7.374  1.4286 -1.4610  0.5745
  129OSM   H10T13830   1.244   1.935   7.279 -0.0864 -0.2844  1.1743
  129OSM   C11S13831   1.101   2.000   7.426  0.3008  0.2480 -0.0358
  129OSM   H11S13832   1.013   1.938   7.400  1.0951 -0.7796 -0.3686
  129OSM   H11T13833   1.057   2.095   7.463 -1.5370  0.9632 -3.6769
  129OSM   C12S13834   1.169   1.920   7.540  1.0176  0.4723 -0.2004
  129OSM   H12S13835   1.250   1.853   7.505 -1.1565 -2.0814 -0.7626
  129OSM   H12T13836   1.094   1.845   7.575 -0.6636  2.2896  0.2393
  129OSM   C13S13837   1.213   2.013   7.662 -0.6548  0.5046 -0.5724
  129OSM   H13S13838   1.122   2.068   7.694  0.2424  0.5817  2.1556
  129OSM   H13T13839   1.300   2.080   7.641  3.1276 -3.3863  1.0343
  129OSM   C14S13840   1.263   1.929   7.776  0.0013 -0.3560 -0.8344
  129OSM   H14S13841   1.369   1.900   7.763 -0.0545 -0.2059 -1.6288
  129OSM   H14T13842   1.205   1.836   7.791 -1.4618  0.5763 -0.4593
  129OSM   C15S13843   1.249   2.010   7.913 -0.0211 -0.3466 -0.1665
  129OSM   H15S13844   1.141   2.024   7.933  0.0038 -0.3860 -0.0028
  129OSM   H15T13845   1.288   2.113   7.899 -1.6856  0.2133 -0.9860
  129OSM   C16S13846   1.314   1.942   8.030 -0.5507 -0.2018  0.1336
  129OSM   H16S13847   1.418   1.921   7.998 -0.5735  2.3208 -1.8190
  129OSM   H16T13848   1.283   1.838   8.054  0.5022 -0.8689 -1.3134
  129OSM   C17S13849   1.322   2.027   8.167 -0.2785  0.5337  0.5272
  129OSM   H17S13850   1.216   2.057   8.184 -0.4458 -0.0843  0.5669
  129OSM   H17T13851   1.382   2.121   8.158  0.3584 -0.0409 -1.9174
  129OSM   C18S13852   1.371   1.954   8.290 -0.7385  0.3196  0.0037
  129OSM   H18S13853   1.481   1.945   8.302 -0.7632 -0.6935 -0.4428
  129OSM   H18T13854   1.342   1.847   8.280 -1.8350  0.7141 -1.3954
  129OSM   H18U13855   1.327   2.010   8.375 -0.2306  1.9254 -0.7450
  129OSM    C1F13856   0.827   1.965   6.545 -0.0247 -0.3759 -0.4782
  129OSM     OF13857   0.874   1.874   6.479 -0.0418  0.5402  0.8429
  129OSM    C2F13858   0.682   1.959   6.605 -0.0606 -0.6631 -0.5159
  129OSM    H2F13859   0.609   2.006   6.536 -0.8058  0.5708  1.0603
  129OSM    H2G13860   0.675   1.997   6.709  1.3275  0.3977 -0.7693
  129OSM    C3F13861   0.645   1.807   6.599 -0.0787 -0.1245 -0.2436
  129OSM    H3F13862   0.658   1.758   6.500  0.4639  0.8049 -0.6461
  129OSM    H3G13863   0.536   1.806   6.618  0.3934  2.0989  3.4021
  129OSM    C4F13864   0.720   1.710   6.693 -0.3542 -0.1382 -0.8773
  129OSM    H4F13865   0.829   1.700   6.677 -0.1864 -0.4493  0.3102
  129OSM    H4G13866   0.662   1.615   6.686  0.3415 -0.9191  2.1839
  129OSM    C5F13867   0.690   1.742   6.846 -0.9216  0.4454 -0.3320
  129OSM    H5F13868   0.588   1.781   6.866 -0.2874  1.4216  1.1530
  129OSM    H5G13869   0.766   1.819   6.872  2.0309 -1.7663 -1.7391
  129OSM    C6F13870   0.696   1.623   6.945 -0.7298  0.3561 -0.7538
  129OSM    H6F13871   0.796   1.575   6.937 -0.2642  1.3994 -1.4350
  129OSM    H6G13872   0.619   1.548   6.919  0.0143 -0.5033 -0.5355
  129OSM    C7F13873   0.665   1.679   7.084  0.3205 -0.6441 -0.7985
  129OSM    H7F13874   0.560   1.717   7.082  0.2821 -0.7825 -1.4933
  129OSM    H7G13875   0.722   1.771   7.109 -2.9570  1.1558  0.7640
  129OSM    C8F13876   0.682   1.575   7.201  0.7430  0.1187 -0.0577
  129OSM    H8F13877   0.743   1.635   7.272  1.9949  0.8898 -1.7231
  129OSM    H8G13878   0.743   1.490   7.163 -0.4532 -0.9972  0.3965
  129OSM    C9F13879   0.550   1.536   7.271  0.0882  0.5851  0.3075
  129OSM    H9F13880   0.455   1.582   7.237 -0.4412  0.1180  1.1423
  129OSM   C10F13881   0.528   1.442   7.362 -0.0326  0.2338 -0.0724
  129OSM   H10F13882   0.430   1.427   7.411 -0.2438  1.4770 -0.0626
  129OSM   C11F13883   0.637   1.356   7.422  0.2558  0.7053 -0.4224
  129OSM   H11F13884   0.735   1.354   7.371  1.2693  0.3413  1.4379
  129OSM   H11G13885   0.609   1.249   7.410  0.7166  0.4489  0.6653
  129OSM   C12F13886   0.668   1.370   7.576  1.0135 -0.2313  0.1402
  129OSM   H12F13887   0.694   1.476   7.597  3.0017 -0.6803  0.1361
  129OSM   H12G13888   0.755   1.301   7.585  0.5757 -1.2739 -2.6593
  129OSM   C13F13889   0.562   1.310   7.667  0.1205  0.8970 -0.1452
  129OSM   H13F13890   0.475   1.376   7.688 -1.5942 -1.3221  0.1014
  129OSM   H13G13891   0.596   1.320   7.773 -1.5529 -2.8266  0.9008
  129OSM   C14F13892   0.512   1.160   7.640  0.3641  0.1761 -0.6849
  129OSM   H14F13893   0.598   1.097   7.673 -0.0607 -1.2298 -2.1284
  129OSM   H14G13894   0.481   1.135   7.537  0.2926  0.8340 -0.8284
  129OSM   C15F13895   0.400   1.111   7.742  0.4239  0.4845 -0.6605
  129OSM   H15F13896   0.300   1.144   7.707  0.4099 -0.0497 -1.1512
  129OSM   H15G13897   0.427   1.145   7.844  1.2492 -0.1234 -0.6644
  129OSM   C16F13898   0.385   0.960   7.741  0.5189  0.0880  0.4211
  129OSM   H16F13899   0.486   0.916   7.759  1.6424  2.6563  0.7919
  129OSM   H16G13900   0.357   0.942   7.635 -0.0737  1.6028  0.3010
  129OSM   C17F13901   0.278   0.886   7.827 -0.7159 -0.6461 -0.6139
  129OSM   H17F13902   0.268   0.780   7.796 -1.1794 -0.4840 -1.0267
  129OSM   H17G13903   0.179   0.934   7.810 -1.5808 -2.0626  0.1904
  129OSM   C18F13904   0.297   0.894   7.981 -0.2694  0.4299  0.5068
  129OSM   H18F13905   0.221   0.832   8.032  0.7225  0.7911  2.4927
  129OSM   H18G13906   0.293   1.004   8.000  3.6991  0.3442  3.1092
  129OSM   H18H13907   0.391   0.846   8.015  0.9888  2.5379  0.1709
  130OSM      N13908   6.820   0.402   6.230  0.3313 -0.3062 -0.0501
  130OSM    C1513909   6.916   0.408   6.114 -0.0628  0.3805 -0.1920
  130OSM   H15A13910   6.875   0.475   6.041  0.1899  1.6059  0.7474
  130OSM   H15B13911   6.912   0.314   6.062  0.4147  0.4386 -0.3419
  130OSM   H15C13912   7.017   0.437   6.139 -0.9094  2.3674  1.1835
  130OSM    C1413913   6.884   0.327   6.345 -0.0142  0.1680  0.3673
  130OSM   H14A13914   6.978   0.375   6.370 -0.6367  1.6031  0.0504
  130OSM   H14B13915   6.900   0.223   6.318 -3.2100 -0.5328  0.8446
  130OSM   H14C13916   6.820   0.321   6.431 -1.9002  1.1122 -0.9212
  130OSM    C1313917   6.800   0.543   6.275  0.3611 -0.2097 -0.0275
  130OSM   H13A13918   6.715   0.550   6.342  0.0238  0.6423 -0.5336
  130OSM   H13B13919   6.792   0.610   6.192  2.7629  0.8066  0.4654
  130OSM   H13C13920   6.882   0.585   6.332  0.4178 -1.4859  0.9030
  130OSM    C1213921   6.691   0.343   6.186 -0.1489 -0.1539  0.3561
  130OSM   H12A13922   6.717   0.243   6.153 -0.6533 -0.0230 -0.4723
  130OSM   H12B13923   6.655   0.398   6.100  0.1120 -1.3174 -0.5272
  130OSM    C1113924   6.577   0.339   6.285 -0.6556  0.5460 -0.5043
  130OSM   H11A13925   6.603   0.270   6.368 -1.9444 -1.6420 -1.8133
  130OSM   H11B13926   6.490   0.283   6.242 -0.4361  0.7026 -1.1582
  130OSM      P13927   6.435   0.557   6.242  0.4920 -0.0021 -0.3478
  130OSM    O1313928   6.511   0.628   6.142  0.2424 -0.0308 -0.1278
  130OSM    O1413929   6.325   0.466   6.190 -0.3776  0.8252  0.0082
  130OSM    O1113930   6.361   0.643   6.352  0.9816  0.1399  0.0363
  130OSM    O1213931   6.537   0.470   6.331 -0.7917 -0.0716  0.0143
  130OSM    C1S13932   6.252   0.608   6.437  0.1416  0.1592  0.7229
  130OSM    H1S13933   6.260   0.499   6.457 -2.3252  0.0538  1.5462
  130OSM    H1T13934   6.153   0.639   6.396  1.5692 -0.3182 -3.5775
  130OSM     NF13935   6.192   0.611   6.675 -0.2912  0.0543  0.0998
  130OSM    HNF13936   6.108   0.659   6.700  1.4935  2.6620  1.7557
  130OSM    C2S13937   6.280   0.672   6.573  0.1048  0.0628  0.4827
  130OSM    H2S13938   6.385   0.646   6.599 -0.4620 -0.4761  2.3705
  130OSM    C3S13939   6.266   0.827   6.554 -0.0953 -0.1715 -0.6624
  130OSM    H3S13940   6.174   0.865   6.505  0.0501 -0.2385 -0.9887
  130OSM     O313941   6.359   0.880   6.456 -0.7102  0.2646  0.0551
  130OSM    HO313942   6.406   0.806   6.417 -0.8001  0.1901  0.0897
  130OSM    C4S13943   6.300   0.895   6.678 -0.4003  0.3475  0.1557
  130OSM    H4S13944   6.404   0.883   6.712 -0.3150 -3.1648 -0.9419
  130OSM    C5S13945   6.211   0.973   6.736 -0.5531  0.1460 -0.0807
  130OSM    H5S13946   6.112   0.993   6.693  0.3541  4.9895 -0.5080
  130OSM    C6S13947   6.237   1.046   6.864  0.2422  0.0625  0.4962
  130OSM    H6S13948   6.176   1.139   6.864  0.4914  0.2525 -1.4120
  130OSM    H6T13949   6.345   1.072   6.867  1.4348 -4.1654  3.0189
  130OSM    C7S13950   6.210   0.968   6.993 -1.0189  0.0268 -0.4670
  130OSM    H7S13951   6.254   0.866   6.988  2.3538  1.3442  0.0836
  130OSM    H7T13952   6.101   0.963   7.012 -0.9921 -4.5861 -0.3732
  130OSM    C8S13953   6.271   1.040   7.120 -0.1397 -0.3560 -0.5554
  130OSM    H8S13954   6.225   1.141   7.127 -1.3572 -0.8810 -0.7142
  130OSM    H8T13955   6.380   1.044   7.102 -0.1324 -1.8728 -0.9654
  130OSM    C9S13956   6.226   0.967   7.257  0.8772 -0.1173  0.0538
  130OSM    H9S13957   6.237   0.857   7.244  0.4966 -0.0948 -0.5167
  130OSM    H9T13958   6.119   0.995   7.265  1.2450  1.8468 -1.1654
  130OSM   C10S13959   6.301   1.031   7.371  0.6526  0.3567 -0.1840
  130OSM   H10S13960   6.307   1.142   7.367  1.1627  0.4165  1.6396
  130OSM   H10T13961   6.408   1.003   7.363  0.4621  0.1220 -2.9068
  130OSM   C11S13962   6.255   0.985   7.510 -0.2728 -0.3207 -0.3560
  130OSM   H11S13963   6.253   0.874   7.514  4.7910 -0.7954 -2.8463
  130OSM   H11T13964   6.149   1.016   7.525 -0.3618  0.2045 -1.9036
  130OSM   C12S13965   6.355   1.041   7.617  0.1500  0.2327 -0.5563
  130OSM   H12S13966   6.362   1.152   7.612  0.6433  0.3173  1.2686
  130OSM   H12T13967   6.459   1.011   7.591  0.3864 -0.4580  1.0825
  130OSM   C13S13968   6.314   1.001   7.766 -0.1758  0.8280  0.0897
  130OSM   H13S13969   6.300   0.891   7.764  0.3902  0.6930  1.9671
  130OSM   H13T13970   6.215   1.038   7.801  0.1671  1.3871  0.4974
  130OSM   C14S13971   6.416   1.022   7.876 -0.2109  0.5139  0.5697
  130OSM   H14S13972   6.364   1.017   7.975 -0.2059 -2.5264  0.4915
  130OSM   H14T13973   6.464   1.122   7.866  2.0835 -0.7509 -1.8820
  130OSM   C15S13974   6.522   0.909   7.887  0.6465  0.0039 -0.1204
  130OSM   H15S13975   6.585   0.902   7.797  1.2542  1.5060  0.1660
  130OSM   H15T13976   6.474   0.810   7.901  1.1653 -0.3395 -0.7319
  130OSM   C16S13977   6.618   0.937   8.006  0.0136 -0.8002  0.0285
  130OSM   H16S13978   6.560   0.955   8.098 -0.5432  0.0857 -0.4811
  130OSM   H16T13979   6.670   1.033   7.983  0.3749 -0.5434  1.8153
  130OSM   C17S13980   6.729   0.828   8.029  0.5534 -0.7914  0.4216
  130OSM   H17S13981   6.780   0.846   8.127 -1.0524 -1.9919  1.5255
  130OSM   H17T13982   6.807   0.832   7.950  0.4967 -1.4655  0.3243
  130OSM   C18S13983   6.678   0.680   8.026 -0.2671  0.1604 -0.2875
  130OSM   H18S13984   6.598   0.682   8.103  1.7029  1.4213  1.8527
  130OSM   H18T13985   6.757   0.607   8.054 -0.4839 -0.3483 -0.9516
  130OSM   H18U13986   6.647   0.653   7.922 -0.3334 -0.2670 -0.1607
  130OSM    C1F13987   6.217   0.491   6.726  0.1679  0.0877 -0.5972
  130OSM     OF13988   6.325   0.436   6.710  0.4231  0.0980 -0.8880
  130OSM    C2F13989   6.099   0.429   6.791  0.1933  0.1571 -0.2969
  130OSM    H2F13990   6.062   0.333   6.749  0.2172 -0.6428  1.3934
  130OSM    H2G13991   6.016   0.503   6.793 -0.8512 -0.9874  1.1945
  130OSM    C3F13992   6.124   0.398   6.940  0.2550 -0.0568 -0.2646
  130OSM    H3F13993   6.128   0.497   6.989  2.0264 -0.4551  0.4671
  130OSM    H3G13994   6.223   0.350   6.956  0.6759  1.1054  0.7683
  130OSM    C4F13995   6.011   0.309   6.992 -0.2821 -0.0287 -0.2839
  130OSM    H4F13996   5.988   0.224   6.925  1.8402 -2.4563  1.8660
  130OSM    H4G13997   5.925   0.377   7.011  1.3956  2.2767 -0.5866
  130OSM    C5F13998   6.040   0.251   7.130 -0.1164 -0.3076  0.4915
  130OSM    H5F13999   5.942   0.207   7.160 -1.8624  1.4415 -2.2313
  130OSM    H5G14000   6.056   0.338   7.198 -0.2212 -1.3751  1.9306
  130OSM    C6F14001   6.147   0.140   7.134 -0.4302 -0.2827  0.5126
  130OSM    H6F14002   6.239   0.178   7.085 -0.6253  1.2300  1.2618
  130OSM    H6G14003   6.105   0.062   7.067 -0.5527  0.6876 -0.5554
  130OSM    C7F14004   6.170   0.110   7.282 -0.2713  0.3397 -0.2141
  130OSM    H7F14005   6.069   0.097   7.327  0.3054 -2.9741  0.4065
  130OSM    H7G14006   6.219   0.200   7.325  0.0107 -0.4546  1.1995
  130OSM    C8F14007   6.255  -0.018   7.311  0.4530 -0.2532 -0.6138
  130OSM    H8F14008   6.198  -0.096   7.256 -0.1904 -0.2516  0.0382
  130OSM    H8G14009   6.249  -0.039   7.420  0.4003  0.1864 -0.5283
  130OSM    C9F14010   6.398  -0.006   7.275 -0.0374 -0.9142 -0.0446
  130OSM    H9F14011   6.423  -0.022   7.169  0.7714  2.3896 -0.4407
  130OSM   C10F14012   6.501   0.026   7.359 -0.3224  0.3061 -0.1880
  130OSM   H10F14013   6.606   0.018   7.324 -0.4752 -0.0454 -0.5769
  130OSM   C11F14014   6.488   0.040   7.509 -0.0316 -0.7333 -0.2816
  130OSM   H11F14015   6.478  -0.052   7.570 -1.3169  1.0457  2.3718
  130OSM   H11G14016   6.389   0.088   7.523 -0.3850 -1.3928 -0.5068
  130OSM   C12F14017   6.604   0.123   7.574 -0.1286  0.5328 -0.1705
  130OSM   H12F14018   6.616   0.229   7.539  1.8324  0.4977  0.2948
  130OSM   H12G14019   6.701   0.083   7.538  0.7442  3.3843 -1.3635
  130OSM   C13F14020   6.596   0.139   7.722 -0.4359 -0.1168 -0.5891
  130OSM   H13F14021   6.588   0.039   7.770 -1.8160 -1.1138 -2.7925
  130OSM   H13G14022   6.522   0.211   7.763  0.3103  0.2994  0.0614
  130OSM   C14F14023   6.732   0.206   7.763  0.2481  0.2502 -0.3477
  130OSM   H14F14024   6.733   0.315   7.740 -0.0572  0.7320  1.6961
  130OSM   H14G14025   6.815   0.157   7.708 -1.7225 -1.3461 -2.0714
  130OSM   C15F14026   6.765   0.210   7.917  0.4085  0.0325 -0.6079
  130OSM   H15F14027   6.790   0.109   7.954  0.1245  0.2850  0.2989
  130OSM   H15G14028   6.675   0.245   7.972  1.0139  0.0573  0.3951
  130OSM   C16F14029   6.885   0.294   7.947 -0.8512  0.1805  0.3404
  130OSM   H16F14030   6.865   0.401   7.925 -0.2890  0.1582 -0.3248
  130OSM   H16G14031   6.970   0.265   7.881 -0.0907 -1.7885  2.0673
  130OSM   C17F14032   6.957   0.277   8.084  0.0231 -0.2457  0.4181
  130OSM   H17F14033   6.892   0.312   8.168  1.2067 -0.6267  1.5230
  130OSM   H17G14034   7.044   0.344   8.099 -0.1979 -0.3091  2.2633
  130OSM   C18F14035   6.997   0.137   8.108 -0.5075  0.8309 -0.4602
  130OSM   H18F14036   6.908   0.081   8.145 -0.2749  0.3244 -0.6611
  130OSM   H18G14037   7.079   0.129   8.183 -2.0604  1.3580  1.3929
  130OSM   H18H14038   7.035   0.088   8.016  0.4318  0.1338  0.2730
  131OSM      N14039   0.054   4.570   5.956  0.4697 -0.2524  0.0947
  131OSM    C1514040   0.188   4.620   5.900  0.4422 -0.1091  0.2048
  131OSM   H15A14041   0.268   4.572   5.953  0.4502  1.3038  1.5221
  131OSM   H15B14042   0.197   4.727   5.913 -0.2921  0.2699 -1.9068
  131OSM   H15C14043   0.210   4.616   5.794  0.0053  1.3078  0.0324
  131OSM    C1414044  -0.062   4.656   5.893  0.1079 -0.0514  0.4731
  131OSM   H14A14045  -0.078   4.647   5.787 -2.2074  2.7904  0.4435
  131OSM   H14B14046  -0.055   4.759   5.925 -0.4268 -0.1139  0.8005
  131OSM   H14C14047  -0.151   4.614   5.938  1.8259 -3.8182  0.7778
  131OSM    C1314048   0.042   4.426   5.907  0.4723 -0.5772 -0.1822
  131OSM   H13A14049   0.031   4.440   5.801  0.0812  1.8074  0.1309
  131OSM   H13B14050  -0.047   4.378   5.945  1.6358 -3.3154 -0.6040
  131OSM   H13C14051   0.127   4.367   5.940 -0.1906 -0.8703  1.0719
  131OSM    C1214052   0.051   4.570   6.106 -0.5068  0.0909  0.2456
  131OSM   H12A14053  -0.048   4.533   6.127 -0.2511 -0.5094  0.4136
  131OSM   H12B14054   0.061   4.670   6.145  1.7008  0.0900 -0.1737
  131OSM    C1114055   0.146   4.480   6.190 -0.3259 -0.4912 -0.2366
  131OSM   H11A14056   0.148   4.372   6.165  1.1019 -0.7728  0.9850
  131OSM   H11B14057   0.109   4.473   6.294  0.6843 -0.3748  0.1425
  131OSM      P14058   0.405   4.453   6.123 -0.3872 -0.1906  0.3436
  131OSM    O1314059   0.376   4.388   5.992 -0.0544 -0.0673  0.7224
  131OSM    O1414060   0.515   4.552   6.121  0.4482  0.5496  0.0926
  131OSM    O1114061   0.450   4.332   6.212 -0.4923 -0.0723 -0.2117
  131OSM    O1214062   0.275   4.529   6.179  0.6136 -0.2004  0.2152
  131OSM    C1S14063   0.536   4.356   6.330 -0.5287 -0.1993  0.2234
  131OSM    H1S14064   0.602   4.443   6.313  1.0674 -1.3908  0.0383
  131OSM    H1T14065   0.596   4.263   6.344 -3.1061 -1.8085  1.1428
  131OSM     NF14066   0.529   4.411   6.578  0.7520  0.2203  0.2442
  131OSM    HNF14067   0.541   4.349   6.654  0.7508  0.5657  0.5269
  131OSM    C2S14068   0.452   4.366   6.460  0.0362 -0.0417 -0.8701
  131OSM    H2S14069   0.386   4.454   6.442  1.4925  0.9182 -1.7408
  131OSM    C3S14070   0.369   4.243   6.493 -0.0697 -0.3930 -0.5141
  131OSM    H3S14071   0.429   4.152   6.515  3.7085  1.9051 -0.4732
  131OSM     O314072   0.273   4.219   6.394  0.3641 -0.6004 -0.2200
  131OSM    HO314073   0.318   4.260   6.319  2.1336 -0.8998  0.6256
  131OSM    C4S14074   0.283   4.270   6.613  0.1623 -0.2541  0.8639
  131OSM    H4S14075   0.303   4.201   6.696  2.0175  1.7499  2.2087
  131OSM    C5S14076   0.186   4.362   6.624 -0.0145 -0.3799 -0.8450
  131OSM    H5S14077   0.165   4.427   6.538 -0.3395  0.2422 -0.3096
  131OSM    C6S14078   0.105   4.394   6.750  0.0247  0.3374  0.1126
  131OSM    H6S14079   0.008   4.340   6.737 -0.2646  0.8531  0.0816
  131OSM    H6T14080   0.094   4.505   6.745  0.9156  0.4288  0.0818
  131OSM    C7S14081   0.171   4.358   6.884 -0.2842  1.0633 -0.0598
  131OSM    H7S14082   0.276   4.395   6.883  0.2357 -0.3510 -0.5526
  131OSM    H7T14083   0.166   4.250   6.908 -1.9002  1.7717  3.3627
  131OSM    C8S14084   0.101   4.425   6.999  0.1581  0.4261  0.3116
  131OSM    H8S14085  -0.007   4.399   6.998  0.3050 -0.3173  1.3777
  131OSM    H8T14086   0.084   4.530   6.968 -2.5778  0.1965  0.7718
  131OSM    C9S14087   0.166   4.419   7.136 -0.2974 -1.0698 -0.1756
  131OSM    H9S14088   0.250   4.492   7.141 -0.8363 -0.4192 -0.5277
  131OSM    H9T14089   0.206   4.317   7.152  0.0829 -0.9371 -0.2496
  131OSM   C10S14090   0.069   4.444   7.257 -0.1433  0.0369 -0.0640
  131OSM   H10S14091  -0.022   4.381   7.259 -0.0371 -0.5040  5.4223
  131OSM   H10T14092   0.023   4.545   7.255 -0.2164  0.0005 -0.2281
  131OSM   C11S14093   0.152   4.414   7.385 -0.0038 -0.3624 -0.0837
  131OSM   H11S14094   0.258   4.425   7.353  0.2309 -0.7144  0.5729
  131OSM   H11T14095   0.148   4.309   7.418  2.2140 -0.3025  0.5065
  131OSM   C12S14096   0.123   4.505   7.503 -0.6956 -0.1841 -0.1311
  131OSM   H12S14097   0.015   4.490   7.526 -1.4439 -0.0026 -3.0752
  131OSM   H12T14098   0.135   4.613   7.484 -0.0388 -0.4083 -1.0647
  131OSM   C13S14099   0.216   4.482   7.630 -0.1065  0.3663  0.4167
  131OSM   H13S14100   0.317   4.509   7.593  0.8183 -1.6720  1.2787
  131OSM   H13T14101   0.227   4.372   7.648  0.0055  0.3312  0.1302
  131OSM   C14S14102   0.162   4.540   7.765 -0.5688 -0.1312 -0.4389
  131OSM   H14S14103   0.061   4.497   7.779 -0.7507  0.2100 -0.6996
  131OSM   H14T14104   0.162   4.650   7.748 -1.2006  0.0066  0.3876
  131OSM   C15S14105   0.263   4.515   7.884  0.7586 -0.2535  0.0998
  131OSM   H15S14106   0.270   4.405   7.896 -0.4623 -0.1394  2.6924
  131OSM   H15T14107   0.212   4.553   7.975  0.5940 -0.8749  0.2728
  131OSM   C16S14108   0.399   4.569   7.866 -0.5370  0.4653 -0.4164
  131OSM   H16S14109   0.397   4.679   7.846  1.3295  0.5380 -0.3256
  131OSM   H16T14110   0.448   4.522   7.779 -2.6318 -2.0733 -0.3345
  131OSM   C17S14111   0.485   4.536   7.986 -0.2760  0.5606 -0.0682
  131OSM   H17S14112   0.591   4.525   7.953 -0.7678 -0.1637 -1.4668
  131OSM   H17T14113   0.459   4.440   8.035  0.3617  0.0827 -0.6432
  131OSM   C18S14114   0.483   4.641   8.097 -0.0310 -0.3022 -0.0271
  131OSM   H18S14115   0.539   4.609   8.187  0.5491  1.0160  0.0928
  131OSM   H18T14116   0.375   4.643   8.125  0.2167 -0.1999  0.9472
  131OSM   H18U14117   0.523   4.738   8.060  0.5160 -0.2768  0.6180
  131OSM    C1F14118   0.571   4.534   6.586 -0.7837 -0.3779  0.2415
  131OSM     OF14119   0.547   4.621   6.497  0.4519 -0.0159 -0.5068
  131OSM    C2F14120   0.672   4.558   6.696 -0.3206  0.0955  0.2287
  131OSM    H2F14121   0.749   4.621   6.647 -1.4427  1.1976 -0.1634
  131OSM    H2G14122   0.713   4.461   6.730  0.2008  0.0866 -0.4141
  131OSM    C3F14123   0.617   4.653   6.812 -0.1303  0.3080  0.0032
  131OSM    H3F14124   0.575   4.744   6.766 -1.0133 -0.8378 -1.5519
  131OSM    H3G14125   0.701   4.687   6.877  2.0582  0.3672 -2.6391
  131OSM    C4F14126   0.515   4.583   6.900  0.5434  0.3406 -0.3129
  131OSM    H4F14127   0.435   4.563   6.825  0.9280 -0.2963 -0.5735
  131OSM    H4G14128   0.476   4.639   6.987 -0.7805 -0.3491 -0.4314
  131OSM    C5F14129   0.553   4.445   6.960  0.2057  0.7806  0.0294
  131OSM    H5F14130   0.575   4.363   6.889  0.9103 -1.1359  2.3051
  131OSM    H5G14131   0.473   4.412   7.029  1.7613 -0.8128  1.1577
  131OSM    C6F14132   0.670   4.444   7.063 -0.2094 -0.5410  0.2777
  131OSM    H6F14133   0.765   4.477   7.017  0.0416  0.4778  1.4766
  131OSM    H6G14134   0.687   4.340   7.097  1.5543 -0.5049 -0.4025
  131OSM    C7F14135   0.639   4.542   7.180  1.2041 -0.3282 -0.3892
  131OSM    H7F14136   0.531   4.523   7.201  1.0274  1.5133  0.6509
  131OSM    H7G14137   0.644   4.649   7.150  0.9063  0.1571  1.1729
  131OSM    C8F14138   0.719   4.515   7.302 -0.3643 -0.3351  0.1006
  131OSM    H8F14139   0.826   4.535   7.277 -0.3185 -2.1841 -1.4089
  131OSM    H8G14140   0.709   4.406   7.321  0.6163 -0.6005 -0.7689
  131OSM    C9F14141   0.664   4.600   7.415 -0.2471  0.0972  0.1293
  131OSM    H9F14142   0.647   4.703   7.381  2.5043  0.6817  0.2932
  131OSM   C10F14143   0.630   4.564   7.542  0.0870  0.1865 -0.5026
  131OSM   H10F14144   0.569   4.632   7.604 -1.4365 -1.4627 -0.0818
  131OSM   C11F14145   0.645   4.420   7.599  0.2810 -0.1735 -0.3368
  131OSM   H11F14146   0.670   4.339   7.527  0.0582 -1.9792  1.5062
  131OSM   H11G14147   0.550   4.389   7.647  0.5377 -1.2519 -0.4787
  131OSM   C12F14148   0.749   4.402   7.710 -0.2998  0.0229  0.3228
  131OSM   H12F14149   0.769   4.496   7.767 -0.4791  0.3114 -0.0852
  131OSM   H12G14150   0.840   4.361   7.661 -0.9082 -0.6528 -0.2561
  131OSM   C13F14151   0.699   4.303   7.815  0.2748  0.5743  0.8099
  131OSM   H13F14152   0.725   4.202   7.776  2.0738  1.0484  0.6906
  131OSM   H13G14153   0.592   4.321   7.838 -1.0367 -2.8204 -1.8006
  131OSM   C14F14154   0.774   4.302   7.944 -0.3594 -0.2324 -0.2394
  131OSM   H14F14155   0.745   4.399   7.991  0.7336  0.6177 -1.2469
  131OSM   H14G14156   0.885   4.301   7.950 -0.3680  0.6343  0.3057
  131OSM   C15F14157   0.730   4.184   8.030  0.3184 -1.0989 -0.5275
  131OSM   H15F14158   0.779   4.093   7.989 -0.2513 -0.5970 -2.4471
  131OSM   H15G14159   0.623   4.156   8.019  0.0265 -1.6809  2.9158
  131OSM   C16F14160   0.749   4.196   8.185 -0.1794 -0.6586 -0.1199
  131OSM   H16F14161   0.850   4.227   8.218 -0.6277 -0.2500  0.8969
  131OSM   H16G14162   0.736   4.090   8.216  1.3950 -0.9140 -0.2651
  131OSM   C17F14163   0.645   4.291   8.253 -0.4600  0.7791  0.0156
  131OSM   H17F14164   0.544   4.257   8.222 -0.0013 -1.4005  0.7317
  131OSM   H17G14165   0.664   4.389   8.204  0.1136 -0.4886 -2.5073
  131OSM   C18F14166   0.649   4.305   8.402 -0.4994 -0.0883  0.5228
  131OSM   H18F14167   0.750   4.344   8.427  0.1797 -1.7786  0.5382
  131OSM   H18G14168   0.641   4.204   8.446 -0.1491  0.5200  2.0483
  131OSM   H18H14169   0.560   4.364   8.434 -0.1812  0.3477  0.6070
  132OSM      N14170   2.806   5.949   5.960 -0.6526  0.0170 -0.4576
  132OSM    C1514171   2.846   5.883   5.834 -0.5290  0.3737  0.3494
  132OSM   H15A14172   2.905   5.934   5.760 -0.7615  0.8666  0.5021
  132OSM   H15B14173   2.753   5.852   5.789 -1.1512 -0.3925  2.0435
  132OSM   H15C14174   2.898   5.788   5.845  1.5250  1.3216 -0.6687
  132OSM    C1414175   2.736   6.081   5.926  0.3889  0.5944  0.8247
  132OSM   H14A14176   2.797   6.128   5.851 -0.7277 -0.2953 -0.6887
  132OSM   H14B14177   2.737   6.135   6.019  0.2138  1.3041  0.4154
  132OSM   H14C14178   2.637   6.060   5.888  1.1917 -0.7418 -0.6751
  132OSM    C1314179   2.722   5.861   6.047 -0.2321 -0.0737 -0.0918
  132OSM   H13A14180   2.765   5.767   6.078 -2.0797 -1.2941 -1.0246
  132OSM   H13B14181   2.638   5.834   5.985 -1.5065  1.2140  0.9910
  132OSM   H13C14182   2.680   5.919   6.128 -1.6356 -0.7696 -0.2895
  132OSM    C1214183   2.930   5.974   6.037 -0.0433 -0.1603 -0.1168
  132OSM   H12A14184   2.983   6.040   5.970 -2.6652  1.4637 -0.7565
  132OSM   H12B14185   2.982   5.881   6.058 -0.6901  0.0146  2.6186
  132OSM    C1114186   2.923   6.043   6.174  0.6362  0.1947 -0.4291
  132OSM   H11A14187   3.026   6.034   6.216  0.9403  0.1182 -1.1624
  132OSM   H11B14188   2.866   5.977   6.242 -1.6206  3.0060  0.6110
  132OSM      P14189   2.970   6.290   6.145 -0.2533 -0.1807 -0.2067
  132OSM    O1314190   3.093   6.246   6.072  0.5978  0.7664  0.2213
  132OSM    O1414191   2.884   6.401   6.091 -0.3602 -0.2633  0.4167
  132OSM    O1114192   3.006   6.331   6.296  0.6364  0.1075  0.5823
  132OSM    O1214193   2.876   6.173   6.170 -0.2096  0.1452 -0.1247
  132OSM    C1S14194   2.945   6.271   6.403  0.5264  0.6432 -0.7855
  132OSM    H1S14195   2.980   6.166   6.399 -1.6814 -0.1053 -1.9396
  132OSM    H1T14196   2.834   6.279   6.399  0.5982  1.1586 -2.4559
  132OSM     NF14197   2.927   6.260   6.650 -0.5422  0.0062  0.4920
  132OSM    HNF14198   2.842   6.278   6.700 -0.0422  0.2704  1.2683
  132OSM    C2S14199   2.979   6.343   6.537 -0.1500 -0.3967 -0.3591
  132OSM    H2S14200   3.090   6.346   6.532 -0.1254 -0.0969  0.3242
  132OSM    C3S14201   2.921   6.491   6.547 -0.0400  0.3031 -0.2999
  132OSM    H3S14202   2.811   6.480   6.548 -0.2287  1.9177  0.5322
  132OSM     O314203   2.946   6.585   6.438  0.3183  0.4590  0.7510
  132OSM    HO314204   2.983   6.525   6.373 -1.4863 -0.9460  0.9655
  132OSM    C4S14205   2.972   6.544   6.679 -0.6029  0.2957  0.5258
  132OSM    H4S14206   2.902   6.544   6.764 -0.0036  0.1886  1.0195
  132OSM    C5S14207   3.093   6.603   6.686 -0.6853 -0.0500  0.0663
  132OSM    H5S14208   3.160   6.612   6.600  0.2847  1.4333  0.9442
  132OSM    C6S14209   3.151   6.670   6.810  0.5106  0.4701  0.2012
  132OSM    H6S14210   3.154   6.781   6.801 -2.9794  0.5635 -1.1649
  132OSM    H6T14211   3.252   6.624   6.810 -0.7040 -2.4163  0.5408
  132OSM    C7S14212   3.098   6.619   6.944  0.4575 -0.5576  0.4174
  132OSM    H7S14213   3.111   6.510   6.957  1.0607 -0.4566  0.7087
  132OSM    H7T14214   2.988   6.632   6.947  0.6114  1.0368 -0.0188
  132OSM    C8S14215   3.170   6.688   7.060  0.7320  0.4643  0.0545
  132OSM    H8S14216   3.135   6.793   7.050 -0.3888  0.1620  0.5975
  132OSM    H8T14217   3.279   6.706   7.050  0.3552  1.7649 -2.3303
  132OSM    C9S14218   3.142   6.630   7.197 -0.2310  0.0383 -0.5810
  132OSM    H9S14219   3.203   6.698   7.259 -0.7577  0.1970 -0.2260
  132OSM    H9T14220   3.186   6.529   7.207  1.1133  0.7467  1.2082
  132OSM   C10S14221   2.998   6.653   7.240  0.6125  0.6429  0.3229
  132OSM   H10S14222   2.957   6.550   7.248  0.8590  0.5522  0.4521
  132OSM   H10T14223   2.932   6.714   7.175 -1.1989  0.2825  1.7565
  132OSM   C11S14224   2.990   6.708   7.385  0.8650  0.6865  0.1534
  132OSM   H11S14225   2.884   6.710   7.417  0.5252  0.2088 -0.8887
  132OSM   H11T14226   3.024   6.813   7.377  1.2567  0.4037 -4.5705
  132OSM   C12S14227   3.054   6.621   7.502 -0.0849  0.3483 -0.1467
  132OSM   H12S14228   3.152   6.670   7.520 -1.0218  1.5224  2.2116
  132OSM   H12T14229   3.075   6.523   7.456 -0.0803  0.4531 -0.3673
  132OSM   C13S14230   2.984   6.619   7.637  0.6614 -0.4780 -0.6198
  132OSM   H13S14231   2.937   6.519   7.630  3.2681 -1.7694 -1.0523
  132OSM   H13T14232   2.921   6.707   7.663  1.6576  0.1537 -0.2816
  132OSM   C14S14233   3.086   6.627   7.749 -0.4878  0.9080  0.1392
  132OSM   H14S14234   3.147   6.718   7.733  0.2512  0.0570 -2.4466
  132OSM   H14T14235   3.154   6.541   7.730 -1.8754 -0.0834 -0.4478
  132OSM   C15S14236   2.998   6.621   7.880 -0.3631 -0.2479  0.3988
  132OSM   H15S14237   2.936   6.529   7.880  0.5016 -0.8498 -0.3661
  132OSM   H15T14238   2.917   6.696   7.891  0.4171  0.6529  0.1851
  132OSM   C16S14239   3.075   6.638   8.010 -0.4175  0.1381 -0.4599
  132OSM   H16S14240   3.020   6.615   8.104 -1.2315 -1.6979 -1.3119
  132OSM   H16T14241   3.113   6.740   8.030 -3.6479  1.1423  1.3610
  132OSM   C17S14242   3.190   6.532   8.015 -0.3473 -0.2684 -0.1624
  132OSM   H17S14243   3.263   6.571   7.940  1.0990 -0.7630  0.9311
  132OSM   H17T14244   3.161   6.430   7.984 -1.0284  0.2027 -1.1092
  132OSM   C18S14245   3.266   6.523   8.151  0.3413 -0.3139 -0.3133
  132OSM   H18S14246   3.192   6.482   8.223 -0.0460  1.3645  0.2967
  132OSM   H18T14247   3.295   6.628   8.174  1.9915 -0.4672 -1.5313
  132OSM   H18U14248   3.358   6.463   8.140 -0.4574 -1.5464 -0.4149
  132OSM    C1F14249   3.000   6.150   6.684  0.2499 -0.4446  0.0145
  132OSM     OF14250   3.114   6.141   6.652 -0.0592  0.4326  0.2471
  132OSM    C2F14251   2.919   6.042   6.749 -0.0402  0.2524  0.1160
  132OSM    H2F14252   2.893   5.972   6.668 -2.7626  0.0742  1.0437
  132OSM    H2G14253   2.815   6.072   6.776 -0.1957 -0.4218  0.2857
  132OSM    C3F14254   3.008   5.976   6.854  0.7105 -0.2153  0.1330
  132OSM    H3F14255   3.110   5.954   6.816  1.1025 -0.0152  1.0273
  132OSM    H3G14256   2.954   5.885   6.888 -0.5275  0.3440 -0.2764
  132OSM    C4F14257   3.013   6.065   6.978 -0.1644  0.3502  0.4546
  132OSM    H4F14258   2.912   6.112   6.982 -0.9381 -1.2854  1.1934
  132OSM    H4G14259   3.089   6.143   6.958  0.2856  0.2370  1.6992
  132OSM    C5F14260   3.031   5.985   7.110 -0.1554  0.4461  0.3348
  132OSM    H5F14261   3.138   5.954   7.111 -0.2913 -0.0028  1.3043
  132OSM    H5G14262   2.982   5.886   7.113 -0.8615  0.7801  0.0653
  132OSM    C6F14263   3.006   6.081   7.229 -0.4225  0.6108  0.1174
  132OSM    H6F14264   2.907   6.133   7.227 -0.5648  0.3386 -0.0641
  132OSM    H6G14265   3.084   6.160   7.230  1.2837 -1.0018 -0.6326
  132OSM    C7F14266   3.022   6.010   7.368 -0.0365  0.3739 -0.6069
  132OSM    H7F14267   3.124   5.969   7.379  0.3370  1.1210 -1.1532
  132OSM    H7G14268   2.955   5.921   7.359 -0.8186  0.7794  0.8507
  132OSM    C8F14269   2.987   6.085   7.488 -0.8366 -0.4173 -0.2998
  132OSM    H8F14270   2.993   6.022   7.579  0.5931  0.8991  0.5689
  132OSM    H8G14271   2.882   6.119   7.493  0.0369  2.7374 -0.9892
  132OSM    C9F14272   3.083   6.202   7.506 -0.7532  0.1220 -0.1499
  132OSM    H9F14273   3.072   6.290   7.441 -1.4632  3.7546  4.3583
  132OSM   C10F14274   3.165   6.210   7.607  0.9121 -0.6370 -0.2303
  132OSM   H10F14275   3.219   6.306   7.618 -1.5132  1.1442 -2.4907
  132OSM   C11F14276   3.173   6.119   7.726 -0.1798 -0.0131 -0.3425
  132OSM   H11F14277   3.191   6.013   7.699 -0.3251 -0.0628 -0.2499
  132OSM   H11G14278   3.079   6.114   7.785  0.3694 -2.9349  0.4228
  132OSM   C12F14279   3.285   6.173   7.813  0.0680 -0.0206 -0.2098
  132OSM   H12F14280   3.270   6.283   7.823  1.0064  0.5291 -3.3995
  132OSM   H12G14281   3.376   6.172   7.748 -0.9187  3.4248 -1.9299
  132OSM   C13F14282   3.309   6.103   7.941 -0.3678 -0.0022 -0.9183
  132OSM   H13F14283   3.338   5.999   7.914  0.9838  0.3107 -0.7791
  132OSM   H13G14284   3.214   6.093   7.997  1.1260  1.2083  2.0625
  132OSM   C14F14285   3.410   6.175   8.032 -0.4514 -0.1321  0.0618
  132OSM   H14F14286   3.400   6.285   8.034  2.4807  0.2036  1.8107
  132OSM   H14G14287   3.506   6.157   7.979 -0.2901 -2.1822  0.9329
  132OSM   C15F14288   3.431   6.108   8.172 -0.2540  0.5164  0.9592
  132OSM   H15F14289   3.537   6.118   8.203 -0.1300  0.8567  0.4369
  132OSM   H15G14290   3.393   6.004   8.162 -1.3418  0.9340  0.5593
  132OSM   C16F14291   3.332   6.177   8.269 -0.4047  1.1427 -0.4527
  132OSM   H16F14292   3.274   6.255   8.214 -1.4454  1.0105  0.4309
  132OSM   H16G14293   3.384   6.224   8.355 -0.3823  0.4875 -0.1048
  132OSM   C17F14294   3.220   6.077   8.316  0.8456  0.1143 -0.5782
  132OSM   H17F14295   3.179   6.035   8.222 -1.1518 -2.5259  1.2987
  132OSM   H17G14296   3.138   6.135   8.365  1.4506 -0.3719  1.0627
  132OSM   C18F14297   3.258   5.963   8.416  0.6120  0.4099  0.5162
  132OSM   H18F14298   3.301   5.874   8.366 -0.4458  1.0092 -1.5793
  132OSM   H18G14299   3.158   5.930   8.453  1.1583 -2.7484 -0.5495
  132OSM   H18H14300   3.322   5.995   8.501  1.9428  0.9934 -0.6617
  133SAPE     N14301   4.853   0.428  10.383  0.0863 -0.8930 -0.1591
  133SAPE   HN114302   4.857   0.452  10.282  2.7645  0.5970  0.2030
  133SAPE   HN214303   4.947   0.400  10.417 -0.3297 -0.7225  1.1912
  133SAPE   HN314304   4.795   0.344  10.401  1.9601 -2.4654 -1.1082
  133SAPE   C1214305   4.815   0.547  10.460 -0.3140  0.3178  0.4870
  133SAPE  H12A14306   4.714   0.582  10.429 -0.8299  1.3474  3.0269
  133SAPE  H12B14307   4.894   0.623  10.443 -0.5880  0.1888 -1.6009
  133SAPE   C1114308   4.828   0.529  10.610  0.3008  0.3200  0.3968
  133SAPE  H11A14309   4.849   0.627  10.658 -0.2333  0.5084  0.2558
  133SAPE  H11B14310   4.916   0.463  10.629  0.2977 -0.8705 -2.9929
  133SAPE     P14311   4.670   0.331  10.673  0.1723 -0.1736 -0.1404
  133SAPE   O1314312   4.748   0.264  10.786 -0.2891 -0.0559  0.8172
  133SAPE   O1414313   4.523   0.317  10.674 -0.3988  0.0468  0.8936
  133SAPE   O1214314   4.711   0.482  10.676  0.0451  0.2179  0.0202
  133SAPE   O1114315   4.717   0.267  10.537 -0.4016 -0.2678  0.1263
  133SAPE    C114316   4.768   0.132  10.536 -0.3337 -0.3372 -0.6318
  133SAPE    HA14317   4.877   0.131  10.556  0.0348 -0.5910 -2.5218
  133SAPE    HB14318   4.725   0.060  10.609 -0.2558 -0.5941 -0.8401
  133SAPE    C214319   4.742   0.083  10.395  0.1357  0.0535  0.4403
  133SAPE    HS14320   4.770  -0.025  10.393  0.2464 -0.0134  2.7662
  133SAPE   O2114321   4.821   0.154  10.298  0.0956 -0.1521 -0.0971
  133SAPE   C2114322   4.931   0.086  10.263 -0.4931 -0.5914 -0.5889
  133SAPE   O2214323   4.975  -0.016  10.308 -0.5928 -0.1054 -0.2174
  133SAPE   C2214324   4.978   0.143  10.133  0.2954  0.7245 -0.4837
  133SAPE   H2R14325   4.894   0.188  10.076 -1.4622  2.5569  3.1430
  133SAPE   H2S14326   5.048   0.228  10.149  0.6742  0.1679  1.0128
  133SAPE    C314327   4.593   0.096  10.361 -0.7251 -0.4334 -0.1594
  133SAPE    HX14328   4.570   0.204  10.357  1.7039  0.2266  1.5445
  133SAPE    HY14329   4.550   0.053  10.454 -1.7222 -1.5650 -1.1052
  133SAPE   O3114330   4.567   0.029  10.239  0.1446  0.7378 -0.7719
  133SAPE   C3114331   4.543   0.108  10.134  0.4457  0.0430  0.4491
  133SAPE   O3214332   4.566   0.226  10.123  0.0124  0.0063  0.4897
  133SAPE   C3214333   4.488   0.027  10.023  0.3533  0.9358  0.1754
  133SAPE   H2X14334   4.378   0.036  10.030 -0.1001 -1.1963 -2.2837
  133SAPE   H2Y14335   4.511  -0.080  10.043 -0.0597  0.9725  0.8524
  133SAPE   C2314336   5.049   0.042  10.040 -0.1602 -0.3585 -0.3070
  133SAPE   H3R14337   5.130  -0.012  10.095 -0.3150 -1.3394 -1.0042
  133SAPE   H3S14338   5.102   0.077   9.949  0.7522 -0.6039  0.1131
  133SAPE   C2414339   4.937  -0.050   9.990  0.1555 -0.3745 -0.1001
  133SAPE   H4R14340   4.869   0.008   9.925  1.1400  3.1769  1.7989
  133SAPE   H4S14341   4.867  -0.077  10.071 -2.4832  1.5884 -1.5885
  133SAPE   C2514342   5.006  -0.166   9.925 -0.6126 -0.4333 -0.3422
  133SAPE   H5R14343   5.082  -0.211   9.990  0.2510  0.9217 -0.3810
  133SAPE   C2614344   4.989  -0.212   9.802  0.1305  0.5660 -0.3827
  133SAPE   H6R14345   5.056  -0.289   9.762  0.9368  0.0721  1.7933
  133SAPE   C2714346   4.884  -0.154   9.709  0.3643  0.1906 -0.1340
  133SAPE   H7R14347   4.923  -0.057   9.672  0.5053  0.1311 -0.1428
  133SAPE   H7S14348   4.799  -0.126   9.774  0.2105  0.5079 -0.4728
  133SAPE   C2814349   4.843  -0.236   9.586  0.3163  0.2633  0.2419
  133SAPE   H8R14350   4.736  -0.250   9.567  0.2361  2.1955 -0.9880
  133SAPE   C2914351   4.922  -0.295   9.498 -0.9779 -0.1121  0.0305
  133SAPE   H9R14352   4.883  -0.345   9.408  0.7544  0.8344 -1.3305
  133SAPE  C21014353   5.078  -0.284   9.494  0.2530  0.1000  0.5202
  133SAPE  H10R14354   5.129  -0.236   9.579  3.2657 -0.1922 -0.9825
  133SAPE  H10S14355   5.090  -0.218   9.405 -1.4268 -1.4865 -0.9923
  133SAPE  C21114356   5.159  -0.405   9.457 -0.1738  0.7556 -0.1591
  133SAPE  H11R14357   5.209  -0.448   9.545 -0.5843  1.1133  0.2551
  133SAPE  C21214358   5.185  -0.460   9.333 -0.7718  0.2729 -0.9154
  133SAPE  H12R14359   5.262  -0.538   9.326  1.1626  2.0947 -0.8044
  133SAPE  C21314360   5.139  -0.405   9.200  0.0413  1.4060  0.3258
  133SAPE  H13R14361   5.067  -0.321   9.206  0.0858  1.5899 -1.4583
  133SAPE  H13S14362   5.083  -0.482   9.143  2.8996 -0.5580 -0.0746
  133SAPE  C21414363   5.254  -0.353   9.114  0.4940 -0.2753  0.3359
  133SAPE  H14R14364   5.322  -0.289   9.172 -0.8057 -0.5663  2.2748
  133SAPE  C21514365   5.292  -0.392   8.994  0.8276 -0.3152 -0.2521
  133SAPE  H15R14366   5.380  -0.341   8.951  0.2359  1.1627  0.2099
  133SAPE  C21614367   5.232  -0.502   8.917  0.2299 -0.1540 -0.7429
  133SAPE  H16R14368   5.123  -0.513   8.937  0.1717  0.9640 -0.3652
  133SAPE  H16S14369   5.287  -0.598   8.926 -2.6254 -1.7403  1.5339
  133SAPE  C21714370   5.228  -0.467   8.764  0.2136  0.1495 -0.2043
  133SAPE  H17R14371   5.185  -0.367   8.742 -1.6434  0.0944  2.6209
  133SAPE  H17S14372   5.167  -0.543   8.710  0.6463 -1.1214  1.0197
  133SAPE  C21814373   5.364  -0.458   8.698 -0.6868 -0.1222 -0.2248
  133SAPE  H18R14374   5.435  -0.524   8.752 -0.9376 -1.6406 -1.6670
  133SAPE  H18S14375   5.399  -0.353   8.705  3.0871 -0.7645 -4.7176
  133SAPE  C21914376   5.369  -0.508   8.549  0.4924 -0.6383 -0.2633
  133SAPE  H19R14377   5.289  -0.450   8.498  0.5058  0.9156  1.4184
  133SAPE  H19S14378   5.347  -0.617   8.544 -0.6816 -0.4319  0.1028
  133SAPE  C22014379   5.500  -0.479   8.487 -0.3526 -1.1820 -0.1976
  133SAPE  H20R14380   5.547  -0.393   8.538 -0.5174 -1.8852  1.1947
  133SAPE  H20S14381   5.488  -0.462   8.377  0.6024 -2.3063 -0.4998
  133SAPE  H20T14382   5.574  -0.561   8.498  1.1117 -0.1555 -1.7728
  133SAPE   C3314383   4.528   0.076   9.884 -0.1034  0.1960 -0.2666
  133SAPE   H3X14384   4.639   0.069   9.878  0.0570  2.7008 -1.4724
  133SAPE   H3Y14385   4.500   0.180   9.855 -1.2009 -0.0202 -0.0097
  133SAPE   C3414386   4.483  -0.022   9.771  0.0826 -0.2968  0.5649
  133SAPE   H4X14387   4.374  -0.039   9.763  0.2468 -0.7522 -1.1038
  133SAPE   H4Y14388   4.547  -0.112   9.783  0.1782 -0.2986  0.0732
  133SAPE   C3514389   4.514   0.044   9.637  0.1416  0.1553  0.3341
  133SAPE   H5X14390   4.623   0.064   9.629  0.1134  0.7044  1.2621
  133SAPE   H5Y14391   4.461   0.140   9.656 -1.3955 -0.9549  1.8555
  133SAPE   C3614392   4.475  -0.034   9.511 -0.6395  0.4443 -0.1744
  133SAPE   H6X14393   4.367  -0.059   9.513  0.2700 -4.6500  0.9440
  133SAPE   H6Y14394   4.530  -0.131   9.512  1.7179  1.6830  1.4585
  133SAPE   C3714395   4.503   0.049   9.393  0.0130 -0.5317 -0.6211
  133SAPE   H7X14396   4.614   0.049   9.397 -0.0283 -0.6379  2.2127
  133SAPE   H7Y14397   4.475   0.153   9.419 -2.0665 -0.9761 -0.8873
  133SAPE   C3814398   4.435  -0.001   9.267  0.3660 -0.6204 -0.4846
  133SAPE   H8X14399   4.462   0.067   9.183 -0.3224 -1.2181 -1.2007
  133SAPE   H8Y14400   4.326   0.020   9.270  0.3414 -0.1985 -2.5069
  133SAPE   C3914401   4.465  -0.145   9.223 -0.1227  0.2144  0.1120
  133SAPE   H9X14402   4.407  -0.156   9.129 -0.6039  1.8605  0.1969
  133SAPE   H9Y14403   4.416  -0.225   9.284 -0.6358  0.2265 -0.2744
  133SAPE  C31014404   4.617  -0.189   9.203 -0.9426  0.1650 -0.2586
  133SAPE  H10X14405   4.677  -0.177   9.295 -1.2116  0.1951 -0.0885
  133SAPE  H10Y14406   4.661  -0.121   9.127 -1.0155 -0.7833 -1.1814
  133SAPE  C31114407   4.639  -0.335   9.163 -0.2980  0.2904 -0.1605
  133SAPE  H11X14408   4.552  -0.362   9.099 -1.0367 -1.1788  1.3648
  133SAPE  H11Y14409   4.630  -0.410   9.244 -1.8987 -0.6576 -1.1557
  133SAPE  C31214410   4.762  -0.355   9.081 -0.3893 -0.8364  0.8088
  133SAPE  H12X14411   4.810  -0.452   9.106 -0.8320 -0.8980  1.4335
  133SAPE  H12Y14412   4.828  -0.272   9.112  0.5568 -0.7860 -1.1778
  133SAPE  C31314413   4.751  -0.341   8.929  0.1227 -0.3233  0.5221
  133SAPE  H13X14414   4.856  -0.332   8.894  0.0930 -1.0369  0.2279
  133SAPE  H13Y14415   4.690  -0.250   8.915  0.2434  0.0870  2.3396
  133SAPE  C31414416   4.688  -0.471   8.858 -0.4520 -0.1083 -0.2898
  133SAPE  H14X14417   4.595  -0.481   8.918 -0.4324  1.5228  0.0518
  133SAPE  H14Y14418   4.751  -0.562   8.872 -1.4502 -0.9489 -1.0713
  133SAPE  C31514419   4.654  -0.451   8.713  0.2834 -0.9125  0.2563
  133SAPE  H15X14420   4.599  -0.355   8.700  0.7343 -0.7770 -0.6884
  133SAPE  H15Y14421   4.587  -0.535   8.688  0.2039 -0.1845 -2.2153
  133SAPE  C31614422   4.768  -0.454   8.609  0.0398  0.0249  0.2591
  133SAPE  H16X14423   4.842  -0.530   8.642 -1.1286 -1.0895  0.3968
  133SAPE  H16Y14424   4.821  -0.356   8.611 -1.8793  1.1150  0.5348
  133SAPE  C31714425   4.717  -0.487   8.467 -0.7580  0.2599 -0.0984
  133SAPE  H17X14426   4.651  -0.576   8.474  0.7048 -0.7470  1.7106
  133SAPE  H17Y14427   4.806  -0.518   8.409  0.4482  0.9350  1.3325
  133SAPE  C31814428   4.644  -0.374   8.399 -0.6347  0.0133  0.1088
  133SAPE  H18X14429   4.583  -0.422   8.319  1.4163 -0.5057 -1.2368
  133SAPE  H18Y14430   4.716  -0.302   8.355 -0.1936 -0.2379  0.4056
  133SAPE  H18Z14431   4.584  -0.329   8.481  1.6498 -0.8399  2.4142
  134SAPE     N14432   6.794   6.778  10.820  0.3897  0.2330 -0.2209
  134SAPE   HN114433   6.754   6.856  10.876 -2.1239 -0.4683 -0.9332
  134SAPE   HN214434   6.756   6.688  10.854 -0.2343  1.3425  2.2284
  134SAPE   HN314435   6.897   6.768  10.836  0.0565  0.6834  2.6606
  134SAPE   C1214436   6.778   6.791  10.671 -0.0968 -0.3103  0.0846
  134SAPE  H12A14437   6.669   6.782  10.649 -0.1250 -0.2045  0.1835
  134SAPE  H12B14438   6.831   6.712  10.615 -1.6347 -0.7432 -0.8373
  134SAPE   C1114439   6.826   6.933  10.620  0.3305 -0.2726 -0.0191
  134SAPE  H11A14440   6.768   7.019  10.662 -1.4637 -1.1863 -0.5151
  134SAPE  H11B14441   6.808   6.935  10.511  0.6180 -1.8377 -0.1115
  134SAPE     P14442   7.048   7.084  10.599  0.1372 -0.1460  0.4313
  134SAPE   O1314443   7.061   7.177  10.708 -0.2630  0.0662  0.5834
  134SAPE   O1414444   7.173   7.048  10.518  0.7657 -0.3513 -0.3648
  134SAPE   O1214445   6.970   6.950  10.655  0.5963  0.2696  0.9189
  134SAPE   O1114446   6.955   7.151  10.493  0.4337  0.2196 -0.4097
  134SAPE    C114447   6.905   7.286  10.497 -0.7613 -0.5201  0.3625
  134SAPE    HA14448   6.796   7.290  10.475 -0.3827 -0.6834 -1.7208
  134SAPE    HB14449   6.924   7.336  10.594 -0.3541  0.0341 -0.0007
  134SAPE    C214450   6.972   7.368  10.381 -0.5921 -0.4102  0.0837
  134SAPE    HS14451   6.926   7.469  10.373 -0.0228  0.0159  1.6967
  134SAPE   O2114452   6.951   7.299  10.254 -0.5290 -0.6146 -0.3252
  134SAPE   C2114453   6.838   7.295  10.199  0.7122 -0.0870  0.3680
  134SAPE   O2214454   6.733   7.339  10.243  0.1671 -0.2391  0.4478
  134SAPE   C2214455   6.863   7.238  10.061  0.4117  0.5783 -0.5973
  134SAPE   H2R14456   6.946   7.164  10.068 -0.5378 -0.7183 -2.4697
  134SAPE   H2S14457   6.774   7.177  10.038  1.2501 -0.4967 -1.0680
  134SAPE    C314458   7.130   7.380  10.396 -0.0954  0.1886 -0.0707
  134SAPE    HX14459   7.165   7.279  10.369  0.6237  0.6557 -0.9408
  134SAPE    HY14460   7.142   7.406  10.503 -0.7084  0.5175 -0.0728
  134SAPE   O3114461   7.180   7.481  10.303  0.2992  0.0900  0.4391
  134SAPE   C3114462   7.248   7.430  10.198  0.0291 -0.2177  0.2044
  134SAPE   O3214463   7.290   7.317  10.195  0.3107  0.3868  0.7174
  134SAPE   C3214464   7.266   7.545  10.095 -0.0654  0.5904  0.4714
  134SAPE   H2X14465   7.326   7.627  10.139 -0.4311  0.5843  0.9874
  134SAPE   H2Y14466   7.165   7.584  10.069 -0.3140  0.3242  1.0208
  134SAPE   C2314467   6.890   7.339   9.950  0.6960 -0.2539 -0.1386
  134SAPE   H3R14468   6.964   7.412   9.988  1.6701 -0.6647 -1.1918
  134SAPE   H3S14469   6.803   7.404   9.928 -0.1486 -0.7762  1.5220
  134SAPE   C2414470   6.942   7.282   9.807  0.0832  0.6014  0.5784
  134SAPE   H4R14471   7.049   7.255   9.820  0.5496  1.2625 -1.4879
  134SAPE   H4S14472   6.941   7.371   9.742 -1.1296 -1.3019 -2.2094
  134SAPE   C2514473   6.863   7.159   9.761  0.0271  0.0389 -0.1544
  134SAPE   H5R14474   6.837   7.086   9.839 -1.4605 -0.7996 -1.3782
  134SAPE   C2614475   6.819   7.139   9.640 -0.0963 -0.3432 -0.0056
  134SAPE   H6R14476   6.760   7.049   9.617 -1.5015  0.6387 -0.3673
  134SAPE   C2714477   6.831   7.233   9.524  0.0089 -0.5351  0.2767
  134SAPE   H7R14478   6.932   7.276   9.511  0.3323 -1.3315  0.0609
  134SAPE   H7S14479   6.767   7.322   9.542 -0.6817 -1.3307  2.0360
  134SAPE   C2814480   6.825   7.169   9.392  0.3303 -0.0314  0.0913
  134SAPE   H8R14481   6.782   7.069   9.379  1.7202 -0.6762  0.3247
  134SAPE   C2914482   6.866   7.215   9.274 -1.2883 -0.0464 -0.3534
  134SAPE   H9R14483   6.850   7.147   9.189 -0.4724 -1.2907  0.4588
  134SAPE  C21014484   6.948   7.336   9.252 -0.0159 -0.1727  0.8234
  134SAPE  H10R14485   7.049   7.301   9.222  0.6999  1.8619  0.6461
  134SAPE  H10S14486   6.956   7.382   9.353 -2.0785 -0.2926  1.0793
  134SAPE  C21114487   6.929   7.448   9.149 -1.1049 -0.1231 -0.2369
  134SAPE  H11R14488   6.900   7.540   9.202 -1.1530  0.3766 -1.1099
  134SAPE  C21214489   6.920   7.433   9.014 -0.6783  0.0604  0.1592
  134SAPE  H12R14490   6.895   7.517   8.948  1.3720  0.2802 -0.4072
  134SAPE  C21314491   6.948   7.313   8.929  0.4373  0.1483 -1.0144
  134SAPE  H13R14492   6.903   7.225   8.980  2.5377 -0.6753 -0.4624
  134SAPE  H13S14493   7.057   7.297   8.942  0.3601  1.2838  1.6629
  134SAPE  C21414494   6.900   7.313   8.789  0.6106 -0.3344 -0.1458
  134SAPE  H14R14495   6.791   7.324   8.774  1.0967  1.1873 -3.5340
  134SAPE  C21514496   6.979   7.285   8.680 -0.1412  0.3502 -0.0826
  134SAPE  H15R14497   6.938   7.273   8.579  0.4646 -0.1107 -0.2838
  134SAPE  C21614498   7.132   7.270   8.677 -0.0356 -0.4503 -0.7463
  134SAPE  H16R14499   7.158   7.166   8.646  0.1995 -0.5645 -0.1726
  134SAPE  H16S14500   7.183   7.291   8.773 -1.9626  0.3332  0.1379
  134SAPE  C21714501   7.199   7.353   8.567  0.7750  0.0946 -1.1162
  134SAPE  H17R14502   7.160   7.323   8.467  0.3383  1.7953 -1.4860
  134SAPE  H17S14503   7.308   7.332   8.579  0.3213 -1.5903  0.3257
  134SAPE  C21814504   7.172   7.505   8.573  0.0550  0.5318 -0.6185
  134SAPE  H18R14505   7.222   7.545   8.664 -1.7542 -1.1938  1.2603
  134SAPE  H18S14506   7.065   7.528   8.593 -0.4031 -1.2229 -0.8908
  134SAPE  C21914507   7.228   7.578   8.447 -0.0726 -0.5054 -0.6539
  134SAPE  H19R14508   7.336   7.552   8.442 -0.4791 -2.5969  0.3289
  134SAPE  H19S14509   7.213   7.684   8.477 -2.2442 -1.5893  2.6065
  134SAPE  C22014510   7.161   7.549   8.318  0.1577  0.1323  0.4148
  134SAPE  H20R14511   7.222   7.603   8.242 -0.1606 -1.1627 -0.8064
  134SAPE  H20S14512   7.060   7.593   8.303  0.8251  1.3635 -0.7509
  134SAPE  H20T14513   7.169   7.444   8.284  0.0231  0.5747 -1.0861
  134SAPE   C3314514   7.333   7.496   9.961 -0.2366 -0.5215 -0.1365
  134SAPE   H3X14515   7.278   7.405   9.926 -0.1833 -1.6714  2.5163
  134SAPE   H3Y14516   7.434   7.457   9.984 -0.6503 -1.0868  0.8086
  134SAPE   C3414517   7.333   7.603   9.851  0.3441  0.5707  0.0575
  134SAPE   H4X14518   7.399   7.687   9.884 -0.2152  0.8156  0.5831
  134SAPE   H4Y14519   7.227   7.636   9.845 -0.0867 -0.5319  1.2588
  134SAPE   C3514520   7.390   7.540   9.723  0.7448  0.2051  0.3659
  134SAPE   H5X14521   7.379   7.430   9.732 -3.0444  0.3629 -0.9185
  134SAPE   H5Y14522   7.500   7.556   9.710 -0.0258  5.1966 -2.1026
  134SAPE   C3614523   7.317   7.597   9.602 -0.9363 -0.3727 -1.1196
  134SAPE   H6X14524   7.341   7.705   9.591  1.4049 -0.8516 -1.1518
  134SAPE   H6Y14525   7.206   7.602   9.606 -0.9488 -0.3458 -1.4702
  134SAPE   C3714526   7.361   7.526   9.467 -0.5759  0.0270  0.2092
  134SAPE   H7X14527   7.305   7.591   9.397 -1.0127 -1.1415 -0.5381
  134SAPE   H7Y14528   7.317   7.425   9.462 -0.0185 -0.1624 -1.7214
  134SAPE   C3814529   7.511   7.521   9.436  0.2643 -0.1757 -0.0936
  134SAPE   H8X14530   7.554   7.468   9.524  1.2503  1.2642  0.3241
  134SAPE   H8Y14531   7.559   7.621   9.433 -1.9446  0.9307 -0.5406
  134SAPE   C3914532   7.535   7.431   9.313  0.1891  0.0967  0.1548
  134SAPE   H9X14533   7.498   7.329   9.338 -0.7364  0.7730  1.7457
  134SAPE   H9Y14534   7.646   7.429   9.315  0.2445  0.1600 -1.7329
  134SAPE  C31014535   7.490   7.486   9.178 -0.0367 -0.1823  0.4858
  134SAPE  H10X14536   7.568   7.459   9.103  0.2544 -0.3756  0.8534
  134SAPE  H10Y14537   7.471   7.596   9.178  1.2123  0.0553 -0.0115
  134SAPE  C31114538   7.361   7.423   9.122  0.1961  0.4814  0.2930
  134SAPE  H11X14539   7.278   7.451   9.191 -0.0998  3.0961 -1.0090
  134SAPE  H11Y14540   7.365   7.312   9.126  1.5684  0.5514  2.1531
  134SAPE  C31214541   7.331   7.456   8.969  0.7573  0.4942 -0.2627
  134SAPE  H12X14542   7.314   7.565   8.954  0.2715  0.2028 -2.0879
  134SAPE  H12Y14543   7.237   7.399   8.956  0.7371  0.2662  0.8093
  134SAPE  C31314544   7.446   7.414   8.877  0.0656 -0.5154  0.1001
  134SAPE  H13X14545   7.534   7.479   8.897 -1.0061  1.9424 -2.5507
  134SAPE  H13Y14546   7.420   7.426   8.770  2.1515 -3.5573 -0.8873
  134SAPE  C31414547   7.487   7.268   8.883  0.2776 -0.0431 -0.6625
  134SAPE  H14X14548   7.394   7.208   8.878 -0.3666  0.9444 -0.6244
  134SAPE  H14Y14549   7.527   7.261   8.987 -1.7336 -1.4937  0.0874
  134SAPE  C31514550   7.578   7.218   8.775  0.2718  0.4031  0.5192
  134SAPE  H15X14551   7.659   7.293   8.758 -0.1336  0.4276 -1.5154
  134SAPE  H15Y14552   7.522   7.217   8.679  3.0028 -0.4289 -1.1807
  134SAPE  C31614553   7.636   7.075   8.792  0.0699 -0.0330 -0.4938
  134SAPE  H16X14554   7.546   7.011   8.781 -1.6292  2.4177 -1.7566
  134SAPE  H16Y14555   7.676   7.064   8.895 -1.6933 -0.4738  0.1687
  134SAPE  C31714556   7.728   7.031   8.684  0.2204 -0.1951 -0.1694
  134SAPE  H17X14557   7.829   7.076   8.695 -0.3389  1.0696 -0.0760
  134SAPE  H17Y14558   7.678   7.057   8.588 -0.7693 -4.8344 -1.1542
  134SAPE  C31814559   7.734   6.883   8.679 -0.0291  0.2958 -0.3108
  134SAPE  H18X14560   7.638   6.840   8.645  0.0903 -0.9420  0.8572
  134SAPE  H18Y14561   7.763   6.841   8.778 -1.5915 -0.7737 -0.2707
  134SAPE  H18Z14562   7.816   6.858   8.608  0.9393 -0.9029  1.1605
  135SAPE     N14563   6.114   0.040  10.698 -0.1104  0.1640 -0.4525
  135SAPE   HN114564   6.048  -0.020  10.752  0.8110  0.7929  1.4483
  135SAPE   HN214565   6.190  -0.024  10.667 -0.6393 -0.9811  0.5201
  135SAPE   HN314566   6.153   0.104  10.770 -0.1042 -1.9453  1.5570
  135SAPE   C1214567   6.057   0.108  10.577  0.0756  0.1424 -0.6157
  135SAPE  H12A14568   6.145   0.147  10.524 -0.3831  2.1147 -0.0134
  135SAPE  H12B14569   5.993   0.188  10.622 -1.3258 -1.7505  0.9971
  135SAPE   C1114570   5.990   0.017  10.474 -0.6836 -0.5265 -0.3048
  135SAPE  H11A14571   6.060  -0.056  10.428 -1.0088 -0.8555 -0.2829
  135SAPE  H11B14572   5.948   0.075  10.389  0.7712 -0.9992 -1.3957
  135SAPE     P14573   5.748  -0.019  10.564  0.3638 -0.3315  0.2132
  135SAPE   O1314574   5.669  -0.132  10.604 -0.7967 -0.6375 -0.3905
  135SAPE   O1414575   5.732   0.103  10.647 -0.3233 -0.0696 -0.2830
  135SAPE   O1214576   5.893  -0.067  10.540 -0.5131  0.1599 -0.1216
  135SAPE   O1114577   5.718   0.031  10.415 -0.1855  0.4373 -0.3213
  135SAPE    C114578   5.656  -0.046  10.316 -0.2364  0.2827 -0.3783
  135SAPE    HA14579   5.705  -0.143  10.292  0.0376 -0.0375  1.3548
  135SAPE    HB14580   5.552  -0.075  10.342  0.3261 -1.9411 -0.4357
  135SAPE    C214581   5.646   0.025  10.174  0.0218 -0.1697 -0.8583
  135SAPE    HS14582   5.570   0.104  10.188  0.3160  0.1612 -1.0915
  135SAPE   O2114583   5.615  -0.068  10.067  0.1277  0.2762 -0.0047
  135SAPE   C2114584   5.488  -0.099  10.058  0.0511 -0.2455 -0.4418
  135SAPE   O2214585   5.401  -0.043  10.121 -0.0653 -0.0667  0.3770
  135SAPE   C2214586   5.471  -0.223   9.977 -0.1876  0.2265  0.3920
  135SAPE   H2R14587   5.463  -0.301  10.056 -1.7400 -0.2434 -0.1827
  135SAPE   H2S14588   5.374  -0.221   9.922 -1.9236 -0.7223  3.2284
  135SAPE    C314589   5.781   0.096  10.135 -0.4642 -0.4902  0.7297
  135SAPE    HX14590   5.859   0.021  10.111  0.7129  1.5048 -2.3326
  135SAPE    HY14591   5.808   0.154  10.226 -0.5484 -1.0398  1.1083
  135SAPE   O3114592   5.763   0.179  10.011 -0.6716  0.2536 -0.4365
  135SAPE   C3114593   5.872   0.255   9.988  0.2040 -0.3874 -0.5094
  135SAPE   O3214594   5.971   0.274  10.054  0.2351  0.0165 -0.5152
  135SAPE   C3214595   5.846   0.318   9.850 -0.1311  0.4197  0.6878
  135SAPE   H2X14596   5.764   0.392   9.862  0.8313  1.8592 -1.0817
  135SAPE   H2Y14597   5.801   0.246   9.779 -1.4852  2.4125 -0.5993
  135SAPE   C2314598   5.588  -0.265   9.874  0.6412  0.1775 -0.0485
  135SAPE   H3R14599   5.679  -0.278   9.936  1.3022  2.5973 -0.3884
  135SAPE   H3S14600   5.621  -0.177   9.814 -0.4980 -0.3511 -1.5142
  135SAPE   C2414601   5.540  -0.385   9.786 -0.5494  0.4350 -0.6366
  135SAPE   H4R14602   5.460  -0.351   9.717  0.0664 -2.4315 -2.9469
  135SAPE   H4S14603   5.500  -0.469   9.847 -0.4646  0.1354 -0.9898
  135SAPE   C2514604   5.663  -0.438   9.712 -0.7231  0.3235 -0.0507
  135SAPE   H5R14605   5.748  -0.452   9.780 -1.8897 -0.1187  1.3580
  135SAPE   C2614606   5.661  -0.491   9.589 -0.1408  0.3324  0.6967
  135SAPE   H6R14607   5.759  -0.533   9.564  0.0727  0.1018  1.8572
  135SAPE   C2714608   5.548  -0.511   9.491  0.8695 -0.5094 -0.1671
  135SAPE   H7R14609   5.540  -0.430   9.415 -0.2528 -2.6676 -2.4962
  135SAPE   H7S14610   5.448  -0.513   9.541  1.1059  0.6163  0.3912
  135SAPE   C2814611   5.565  -0.643   9.418 -0.0218 -0.0060 -0.0334
  135SAPE   H8R14612   5.556  -0.735   9.478  1.2731 -0.6562 -0.8122
  135SAPE   C2914613   5.571  -0.661   9.289  0.3816 -0.3417  0.0169
  135SAPE   H9R14614   5.569  -0.767   9.257 -0.5921 -1.1311  2.4221
  135SAPE  C21014615   5.580  -0.555   9.181  0.6514  0.2609  0.3141
  135SAPE  H10R14616   5.645  -0.472   9.217  0.7027 -0.5450  2.2056
  135SAPE  H10S14617   5.478  -0.513   9.185  0.4677 -0.1123 -0.3576
  135SAPE  C21114618   5.617  -0.605   9.048  0.3755 -0.3064 -0.3948
  135SAPE  H11R14619   5.598  -0.712   9.033  0.5240 -0.2329 -1.1164
  135SAPE  C21214620   5.681  -0.546   8.942  0.5720  0.8191 -0.6894
  135SAPE  H12R14621   5.703  -0.597   8.847  1.3225 -1.0226  0.4230
  135SAPE  C21314622   5.737  -0.401   8.927  0.5834  0.1379 -0.3917
  135SAPE  H13R14623   5.840  -0.409   8.885  0.4434  0.6566 -0.8459
  135SAPE  H13S14624   5.749  -0.361   9.030 -0.1690 -0.3095 -0.1234
  135SAPE  C21414625   5.659  -0.305   8.846 -0.5085  0.1895  0.2041
  135SAPE  H14R14626   5.570  -0.267   8.899  0.0481  1.5032  0.2384
  135SAPE  C21514627   5.694  -0.261   8.723 -0.1152  0.3428  0.3849
  135SAPE  H15R14628   5.625  -0.193   8.671  0.2116  0.9948  0.7877
  135SAPE  C21614629   5.807  -0.312   8.634 -0.2340  0.0839 -0.2324
  135SAPE  H16R14630   5.771  -0.353   8.537 -2.2259  1.7238 -0.2564
  135SAPE  H16S14631   5.854  -0.399   8.686 -1.0732 -0.3379 -0.1544
  135SAPE  C21714632   5.924  -0.229   8.599 -0.9710 -0.2651 -0.5047
  135SAPE  H17R14633   5.995  -0.295   8.546  0.6980 -1.5090  2.9840
  135SAPE  H17S14634   5.974  -0.190   8.691  1.4697  0.4706 -2.0468
  135SAPE  C21814635   5.892  -0.099   8.525 -0.4923 -0.1006  0.8167
  135SAPE  H18R14636   5.983  -0.035   8.521 -0.9936  0.6393  1.0853
  135SAPE  H18S14637   5.810  -0.044   8.575 -0.7169  0.2661  0.0684
  135SAPE  C21914638   5.850  -0.127   8.374  0.5604 -0.2162  0.6072
  135SAPE  H19R14639   5.777  -0.210   8.389  1.8058 -1.4789 -0.0279
  135SAPE  H19S14640   5.943  -0.161   8.324  0.3947 -0.5335  0.5159
  135SAPE  C22014641   5.799  -0.008   8.299 -0.2121 -0.7108  0.3013
  135SAPE  H20R14642   5.692   0.013   8.322 -1.6294 -1.6619 -4.3115
  135SAPE  H20S14643   5.800  -0.030   8.190  0.3248  1.1608 -0.0971
  135SAPE  H20T14644   5.863   0.078   8.326 -2.4920  1.0254  0.4549
  135SAPE   C3314645   5.979   0.380   9.793 -0.0769 -0.5628  0.3360
  135SAPE   H3X14646   6.045   0.293   9.773 -0.0043 -0.8907  1.8722
  135SAPE   H3Y14647   6.027   0.453   9.861  1.1093 -1.4281  0.4591
  135SAPE   C3414648   5.950   0.461   9.660  0.2064 -0.2855 -0.0874
  135SAPE   H4X14649   6.045   0.516   9.648  0.3304 -0.0238  1.6956
  135SAPE   H4Y14650   5.866   0.534   9.660  1.7837  1.7119  2.4184
  135SAPE   C3514651   5.942   0.366   9.543 -0.2301 -0.2557  0.6919
  135SAPE   H5X14652   5.864   0.287   9.551  1.9682 -3.0332 -2.4476
  135SAPE   H5Y14653   6.035   0.306   9.537  0.2641  0.4868  0.7635
  135SAPE   C3614654   5.924   0.438   9.407  0.2914  0.3975 -0.6027
  135SAPE   H6X14655   6.002   0.516   9.392 -0.2968  0.9379 -0.9187
  135SAPE   H6Y14656   5.836   0.506   9.403  0.2276  0.3401 -0.1752
  135SAPE   C3714657   5.923   0.335   9.296 -0.0959 -0.2233  0.0323
  135SAPE   H7X14658   5.826   0.281   9.294  0.2103 -1.0093 -4.1551
  135SAPE   H7Y14659   6.000   0.258   9.320 -0.4187 -0.4908  0.2197
  135SAPE   C3814660   5.944   0.395   9.156  1.1111  0.0395  0.1664
  135SAPE   H8X14661   5.957   0.323   9.072 -0.5053 -0.0067 -0.0696
  135SAPE   H8Y14662   6.038   0.454   9.156  0.6289  0.8856 -1.3357
  135SAPE   C3914663   5.841   0.505   9.108 -0.3428  0.3281  0.1114
  135SAPE   H9X14664   5.763   0.507   9.188  0.4112 -0.2957  0.8815
  135SAPE   H9Y14665   5.790   0.469   9.016  1.4661 -1.8140 -0.1472
  135SAPE  C31014666   5.909   0.648   9.088  0.0649  0.9771 -0.0286
  135SAPE  H10X14667   5.992   0.665   9.159 -0.2462 -0.5453  0.7439
  135SAPE  H10Y14668   5.835   0.730   9.098 -1.2784 -0.0641 -0.9817
  135SAPE  C31114669   5.948   0.672   8.938  0.4452  0.3363  0.1391
  135SAPE  H11X14670   5.853   0.671   8.881 -1.0747 -2.8315  2.4207
  135SAPE  H11Y14671   6.018   0.595   8.898 -0.2739  1.3422 -3.4156
  135SAPE  C31214672   6.005   0.817   8.899 -0.6076  0.6299 -0.4914
  135SAPE  H12X14673   6.080   0.818   8.982  0.3449 -1.8169 -1.2304
  135SAPE  H12Y14674   5.919   0.886   8.914  1.1169  2.4136  2.0302
  135SAPE  C31314675   6.050   0.824   8.753  0.3159 -0.8412 -0.0535
  135SAPE  H13X14676   5.980   0.785   8.676 -0.6080  1.3505 -0.4166
  135SAPE  H13Y14677   6.135   0.753   8.754 -0.3448 -1.6350  1.1213
  135SAPE  C31414678   6.090   0.967   8.712 -0.0973 -0.0516 -0.0646
  135SAPE  H14X14679   6.180   0.987   8.773 -1.6091  0.7861  2.0072
  135SAPE  H14Y14680   6.009   1.030   8.756  0.0573 -1.1647  1.9072
  135SAPE  C31514681   6.122   0.981   8.564 -0.2385 -0.8089  0.2219
  135SAPE  H15X14682   6.143   1.089   8.555 -0.7204 -0.8706 -2.5579
  135SAPE  H15Y14683   6.049   0.944   8.488  1.8407 -1.6419 -1.4992
  135SAPE  C31614684   6.260   0.911   8.508  0.0971 -0.3881  0.0840
  135SAPE  H16X14685   6.254   0.802   8.524 -0.3362 -0.1604  1.6070
  135SAPE  H16Y14686   6.348   0.957   8.556 -0.1081 -0.0894  0.1830
  135SAPE  C31714687   6.275   0.942   8.359 -0.0077  0.4887  0.1121
  135SAPE  H17X14688   6.384   0.943   8.337  0.1505  2.6243  0.6947
  135SAPE  H17Y14689   6.238   1.045   8.341 -1.1034  0.0702 -0.1267
  135SAPE  C31814690   6.191   0.844   8.279  0.4879  0.8581  0.0254
  135SAPE  H18X14691   6.094   0.818   8.327 -0.1628  0.4239 -1.4695
  135SAPE  H18Y14692   6.255   0.756   8.256  0.8707  0.9873  0.5822
  135SAPE  H18Z14693   6.160   0.887   8.181 -2.0662 -0.4491  0.1781
  136SAPE     N14694   1.925   5.182  10.931  0.3150 -0.8497  0.4294
  136SAPE   HN114695   1.976   5.133  11.007 -0.2245 -0.8571  0.7931
  136SAPE   HN214696   1.868   5.265  10.961 -1.7037 -2.0005 -0.0434
  136SAPE   HN314697   1.850   5.118  10.900 -1.0350  1.6440 -1.8717
  136SAPE   C1214698   2.011   5.229  10.811 -0.0998  0.1011 -0.2506
  136SAPE  H12A14699   1.957   5.208  10.716  0.2642 -2.8912  0.1041
  136SAPE  H12B14700   2.094   5.157  10.797  1.6823  1.8285  0.8804
  136SAPE   C1114701   2.070   5.371  10.813 -0.1801 -0.0488  0.1304
  136SAPE  H11A14702   2.125   5.389  10.718  0.5717 -0.6270  0.4414
  136SAPE  H11B14703   2.151   5.376  10.888 -0.8987 -1.5534  1.0427
  136SAPE     P14704   1.938   5.598  10.776  0.1416 -0.1076 -0.2306
  136SAPE   O1314705   1.793   5.621  10.774 -0.4411  0.2796  0.1298
  136SAPE   O1414706   2.022   5.685  10.856 -0.0636  0.5378  0.2762
  136SAPE   O1214707   1.957   5.457  10.838  0.3161  0.4276  0.2202
  136SAPE   O1114708   1.987   5.574  10.626  0.2057 -0.6183  0.1407
  136SAPE    C114709   1.928   5.483  10.534 -0.5216  0.2437 -0.1573
  136SAPE    HA14710   1.978   5.385  10.547 -0.6750  0.2357  0.4148
  136SAPE    HB14711   1.822   5.466  10.563 -0.3687 -1.4038 -0.4848
  136SAPE    C214712   1.924   5.535  10.387  0.0659  0.2883 -0.0012
  136SAPE    HS14713   1.881   5.450  10.330  0.6252  1.0943 -1.6774
  136SAPE   O2114714   2.054   5.565  10.330  0.8658 -0.3025 -0.3690
  136SAPE   C2114715   2.123   5.454  10.287 -0.5834 -0.0342  0.0992
  136SAPE   O2214716   2.094   5.340  10.315 -0.5520 -0.0278 -0.1290
  136SAPE   C2214717   2.265   5.508  10.236 -0.2373  0.0831  0.5552
  136SAPE   H2R14718   2.240   5.595  10.171 -1.0306 -0.1997  0.4767
  136SAPE   H2S14719   2.321   5.521  10.331 -0.2446 -0.2441  0.6063
  136SAPE    C314720   1.827   5.648  10.370 -0.2948 -0.3815  0.4532
  136SAPE    HX14721   1.867   5.742  10.413 -1.1684  0.3612 -0.3179
  136SAPE    HY14722   1.726   5.630  10.411 -1.4939  1.8638 -1.3082
  136SAPE   O3114723   1.813   5.678  10.228 -0.0061  0.1893 -0.6767
  136SAPE   C3114724   1.739   5.592  10.157  0.3340  0.0558 -0.3936
  136SAPE   O3214725   1.683   5.495  10.207 -0.0079 -0.4414  0.3126
  136SAPE   C3214726   1.747   5.633  10.007  0.3050  0.7727 -0.6859
  136SAPE   H2X14727   1.766   5.742  10.007  0.4479  0.7594  0.2727
  136SAPE   H2Y14728   1.651   5.595   9.966 -0.9275  2.1782  0.7566
  136SAPE   C2314729   2.329   5.400  10.149  0.0059 -0.3224  0.5529
  136SAPE   H3R14730   2.334   5.306  10.209 -0.0512  0.8188  2.4444
  136SAPE   H3S14731   2.433   5.426  10.122  0.4866 -1.2890  1.3857
  136SAPE   C2414732   2.251   5.370  10.015  0.3581 -0.1207  0.0887
  136SAPE   H4R14733   2.145   5.362  10.046  0.9207 -0.7580  1.9556
  136SAPE   H4S14734   2.283   5.271   9.976  0.9529  0.5500 -1.1649
  136SAPE   C2514735   2.272   5.487   9.914 -0.1131  0.5493 -0.2270
  136SAPE   H5R14736   2.195   5.565   9.920  0.0034  0.7824 -1.3835
  136SAPE   C2614737   2.360   5.489   9.813 -0.4368 -0.0230  1.0608
  136SAPE   H6R14738   2.374   5.573   9.744 -0.2220 -1.2120 -0.3898
  136SAPE   C2714739   2.467   5.379   9.787  0.0088 -0.5178 -0.1189
  136SAPE   H7R14740   2.511   5.331   9.878  1.0146 -0.7592 -0.7193
  136SAPE   H7S14741   2.557   5.421   9.736  1.2267 -0.9286  1.5837
  136SAPE   C2814742   2.417   5.271   9.700  0.5555 -0.1040  0.4922
  136SAPE   H8R14743   2.390   5.181   9.758  0.0907 -1.2914 -1.4855
  136SAPE   C2914744   2.374   5.282   9.573 -0.2797 -1.0860  1.2182
  136SAPE   H9R14745   2.336   5.195   9.517  0.9509 -0.3494 -0.8784
  136SAPE  C21014746   2.371   5.406   9.485  0.5403 -0.8531  0.9231
  136SAPE  H10R14747   2.470   5.456   9.490 -0.4161  1.3826 -0.5657
  136SAPE  H10S14748   2.312   5.490   9.526 -2.3255 -1.1514 -2.0899
  136SAPE  C21114749   2.325   5.375   9.342 -0.5082 -0.1245 -0.7941
  136SAPE  H11R14750   2.256   5.293   9.315  0.2993  0.1063 -3.9385
  136SAPE  C21214751   2.373   5.437   9.232  0.2033  0.5132 -0.4968
  136SAPE  H12R14752   2.346   5.390   9.137  0.9666 -1.1360  0.0582
  136SAPE  C21314753   2.478   5.548   9.219 -0.0593  0.2526  0.4752
  136SAPE  H13R14754   2.577   5.500   9.226 -0.4355 -0.5071  0.6692
  136SAPE  H13S14755   2.472   5.619   9.304 -0.5992  0.2566  0.4378
  136SAPE  C21414756   2.453   5.617   9.085 -0.2900  0.2442  0.7973
  136SAPE  H14R14757   2.399   5.712   9.097  0.6148  0.8344  0.3164
  136SAPE  C21514758   2.495   5.572   8.967  0.1793  0.0591  0.2322
  136SAPE  H15R14759   2.501   5.640   8.881 -1.5443  0.4229  0.3680
  136SAPE  C21614760   2.562   5.439   8.937 -0.0819  0.2256  1.0953
  136SAPE  H16R14761   2.561   5.370   9.025  0.7021  0.3989  1.2478
  136SAPE  H16S14762   2.663   5.467   8.900 -0.6667  2.4556  1.0400
  136SAPE  C21714763   2.493   5.361   8.817 -0.5214  0.3621  0.4772
  136SAPE  H17R14764   2.467   5.424   8.729  2.1650  1.4546  0.3773
  136SAPE  H17S14765   2.404   5.318   8.868 -0.2593 -1.3279 -0.3896
  136SAPE  C21814766   2.559   5.228   8.767 -0.5201 -0.1227  0.5921
  136SAPE  H18R14767   2.640   5.267   8.701 -1.1845  0.2150 -0.0467
  136SAPE  H18S14768   2.491   5.177   8.696 -0.4745 -1.7646  1.6777
  136SAPE  C21914769   2.597   5.128   8.876  0.5494  0.7030  0.2387
  136SAPE  H19R14770   2.505   5.098   8.929  0.8245  2.5499  1.8721
  136SAPE  H19S14771   2.665   5.168   8.954 -1.0282  2.5597  0.7422
  136SAPE  C22014772   2.669   5.015   8.809 -0.4953  0.5174 -0.2300
  136SAPE  H20R14773   2.763   5.053   8.763 -0.2154 -0.4269 -0.4445
  136SAPE  H20S14774   2.607   4.974   8.726  1.0554 -0.1962 -1.0859
  136SAPE  H20T14775   2.692   4.931   8.878 -1.7609  0.3134 -0.0409
  136SAPE   C3314776   1.864   5.557   9.939 -0.4326  0.4102 -0.3903
  136SAPE   H3X14777   1.867   5.456   9.985 -0.4269  0.1772 -0.8962
  136SAPE   H3Y14778   1.954   5.622   9.951 -1.3857  1.4847  1.2572
  136SAPE   C3414779   1.836   5.547   9.791  0.3334  0.1964  0.3492
  136SAPE   H4X14780   1.839   5.650   9.750  1.1077  0.0211 -0.0715
  136SAPE   H4Y14781   1.733   5.514   9.764  0.4348  1.4727 -1.8388
  136SAPE   C3514782   1.948   5.475   9.714  1.0682  0.7847 -0.7415
  136SAPE   H5X14783   1.966   5.378   9.764  1.4613  1.6330  0.8381
  136SAPE   H5Y14784   2.034   5.545   9.719  0.4378  1.5105  1.1006
  136SAPE   C3614785   1.896   5.441   9.575  0.0326  0.0246  0.5127
  136SAPE   H6X14786   1.877   5.538   9.524 -0.1877  1.3046  2.9007
  136SAPE   H6Y14787   1.802   5.384   9.593  0.9817 -0.7908  3.4668
  136SAPE   C3714788   1.977   5.350   9.484 -0.0754  0.8820 -0.2559
  136SAPE   H7X14789   2.034   5.274   9.542 -0.0392 -0.8885 -2.4584
  136SAPE   H7Y14790   2.055   5.406   9.429 -0.7530 -0.2896 -2.5566
  136SAPE   C3814791   1.887   5.273   9.388 -0.4183 -0.0668 -0.0855
  136SAPE   H8X14792   1.785   5.274   9.431 -0.5665  0.0042 -0.4412
  136SAPE   H8Y14793   1.906   5.167   9.359  0.6000  0.2395 -0.5895
  136SAPE   C3914794   1.893   5.344   9.250 -0.1082 -0.0058 -0.1172
  136SAPE   H9X14795   1.999   5.349   9.216 -0.1708  0.4879 -0.2610
  136SAPE   H9Y14796   1.857   5.449   9.262  3.0453  1.5442 -2.5801
  136SAPE  C31014797   1.823   5.270   9.136 -0.3970 -0.4858 -0.2736
  136SAPE  H10X14798   1.715   5.267   9.160 -0.4721  0.1781 -0.4997
  136SAPE  H10Y14799   1.864   5.167   9.140 -1.0507 -0.7382  0.0013
  136SAPE  C31114800   1.835   5.336   9.004 -0.2266 -0.8457  0.6580
  136SAPE  H11X14801   1.943   5.351   8.982 -0.4823 -0.6241 -0.5473
  136SAPE  H11Y14802   1.779   5.432   9.011  0.3523 -0.5657  1.6443
  136SAPE  C31214803   1.774   5.259   8.885  0.1982 -0.4758 -0.0370
  136SAPE  H12X14804   1.817   5.156   8.886  1.0772 -0.1373  1.8208
  136SAPE  H12Y14805   1.800   5.313   8.792  2.6212  1.4960  1.6609
  136SAPE  C31314806   1.616   5.249   8.896 -0.4630  0.3982  0.1224
  136SAPE  H13X14807   1.568   5.335   8.843 -1.3190  0.0399  0.3007
  136SAPE  H13Y14808   1.580   5.243   9.000  0.8951 -2.1138  0.5179
  136SAPE  C31414809   1.566   5.120   8.827 -0.4307 -0.5446  0.3218
  136SAPE  H14X14810   1.637   5.035   8.836 -0.3071 -0.7435 -1.8649
  136SAPE  H14Y14811   1.563   5.151   8.720  0.8050  0.4644  0.5561
  136SAPE  C31514812   1.414   5.084   8.859 -1.2013  0.0907 -0.4759
  136SAPE  H15X14813   1.356   5.179   8.860 -1.6859 -0.2015 -0.3403
  136SAPE  H15Y14814   1.404   5.028   8.954 -0.7963  1.1838  0.2314
  136SAPE  C31614815   1.363   4.987   8.749 -0.4393 -0.6467  0.0734
  136SAPE  H16X14816   1.257   4.965   8.775 -0.6927 -2.7940 -2.3354
  136SAPE  H16Y14817   1.428   4.897   8.749 -0.0712 -0.4005 -0.8017
  136SAPE  C31714818   1.350   5.047   8.611  0.1191 -0.1416  0.4786
  136SAPE  H17X14819   1.446   5.055   8.556  0.5121 -0.0790  1.1641
  136SAPE  H17Y14820   1.305   5.147   8.629 -3.0099 -1.4397  0.6891
  136SAPE  C31814821   1.263   4.961   8.519  0.1936 -0.1313  0.6884
  136SAPE  H18X14822   1.234   4.997   8.418 -1.6729 -4.3729 -0.5168
  136SAPE  H18Y14823   1.164   4.938   8.565 -0.2420  0.8890  0.2957
  136SAPE  H18Z14824   1.312   4.862   8.504 -1.5189 -0.7304 -1.4811
  137SAPE     N14825   0.862   1.881  10.994  0.3527  0.0258  0.3238
  137SAPE   HN114826   0.873   1.858  11.095 -2.3009  0.4147  0.7646
  137SAPE   HN214827   0.863   1.793  10.939 -0.6648 -1.9053  3.1922
  137SAPE   HN314828   0.938   1.941  10.955 -0.7478  0.4269 -1.2979
  137SAPE   C1214829   0.735   1.948  10.973 -0.6461 -0.2592 -0.5257
  137SAPE  H12A14830   0.750   2.013  10.884  0.8456  0.9009  0.5360
  137SAPE  H12B14831   0.718   2.006  11.066  0.1150 -0.6064 -0.1595
  137SAPE   C1114832   0.611   1.851  10.947  0.0476 -0.3415  0.0009
  137SAPE  H11A14833   0.622   1.756  11.004 -0.1399 -1.2479 -1.4136
  137SAPE  H11B14834   0.615   1.821  10.840 -1.5704 -0.2759 -0.0993
  137SAPE     P14835   0.419   2.022  10.894  0.1623 -0.1072 -0.1799
  137SAPE   O1314836   0.278   2.044  10.927 -0.4715 -0.3438 -0.3370
  137SAPE   O1414837   0.501   2.146  10.895  0.3946  0.0254 -0.2526
  137SAPE   O1214838   0.484   1.912  10.978 -0.0064 -0.6692 -0.5834
  137SAPE   O1114839   0.431   1.964  10.747  0.0242 -0.4006  0.1596
  137SAPE    C114840   0.312   1.914  10.681 -0.0781  0.5607 -0.0731
  137SAPE    HA14841   0.282   1.823  10.736 -0.5124  1.3069  0.9648
  137SAPE    HB14842   0.224   1.982  10.684 -0.0836  0.5855 -0.6375
  137SAPE    C214843   0.337   1.879  10.533  0.4867 -0.0949 -0.3503
  137SAPE    HS14844   0.383   1.778  10.524 -2.1529 -1.2431 -2.1012
  137SAPE   O2114845   0.413   1.983  10.470 -0.0084 -0.6306 -0.4324
  137SAPE   C2114846   0.475   1.952  10.355  0.2819 -0.3007  0.3168
  137SAPE   O2214847   0.476   1.845  10.301  0.5816  0.1506  0.2099
  137SAPE   C2214848   0.526   2.082  10.306 -0.3949 -0.3046  0.4640
  137SAPE   H2R14849   0.477   2.172  10.349  0.6992 -0.3946  1.9692
  137SAPE   H2S14850   0.629   2.092  10.348  0.1271  0.2297 -0.8952
  137SAPE    C314851   0.196   1.867  10.469 -0.3838  0.0981 -0.1409
  137SAPE    HX14852   0.142   1.963  10.484  0.3132  0.7247 -1.4646
  137SAPE    HY14853   0.149   1.786  10.529  1.6484 -2.2832 -1.6125
  137SAPE   O3114854   0.210   1.814  10.337  0.8123  0.2379 -0.4427
  137SAPE   C3114855   0.109   1.831  10.254  0.1450 -0.4947 -0.3693
  137SAPE   O3214856  -0.004   1.867  10.282 -0.1249 -0.5597  0.1017
  137SAPE   C3214857   0.161   1.791  10.114  0.0563 -0.5708 -1.0107
  137SAPE   H2X14858   0.111   1.694  10.091  1.8408 -1.5972 -0.7200
  137SAPE   H2Y14859   0.272   1.787  10.124  0.0876  0.8151 -0.6602
  137SAPE   C2314860   0.531   2.082  10.150 -0.3805  0.0410  0.0773
  137SAPE   H3R14861   0.439   2.045  10.100 -0.5033 -0.2501  0.5158
  137SAPE   H3S14862   0.601   2.001  10.122 -0.0182  0.1743  0.5898
  137SAPE   C2414863   0.570   2.211  10.078  0.2070  0.2617  0.0066
  137SAPE   H4R14864   0.540   2.302  10.134 -2.0286 -0.5161  0.1892
  137SAPE   H4S14865   0.515   2.215   9.982 -1.5590 -0.1174  0.9548
  137SAPE   C2514866   0.719   2.235  10.064 -0.3760 -0.3856  0.0690
  137SAPE   H5R14867   0.762   2.255  10.163  0.2895 -0.8505 -0.1160
  137SAPE   C2614868   0.792   2.234   9.952  0.5553  1.0081  0.5402
  137SAPE   H6R14869   0.900   2.246   9.967  1.1935 -1.6580 -1.2704
  137SAPE   C2714870   0.742   2.207   9.808 -0.8525  0.1816 -0.4128
  137SAPE   H7R14871   0.656   2.274   9.786 -2.3166 -1.4463  0.1537
  137SAPE   H7S14872   0.701   2.104   9.812 -1.2228  0.3655  0.8335
  137SAPE   C2814873   0.849   2.221   9.702 -0.3907 -0.1994  0.1179
  137SAPE   H8R14874   0.954   2.200   9.730 -0.1999  1.9275  1.1666
  137SAPE   C2914875   0.836   2.273   9.578 -0.0076  0.4669  0.1663
  137SAPE   H9R14876   0.922   2.289   9.511  1.2629 -2.1926  1.0125
  137SAPE  C21014877   0.698   2.306   9.519  0.4935  0.2797 -0.1216
  137SAPE  H10R14878   0.705   2.381   9.438 -0.1928  0.4230 -0.0556
  137SAPE  H10S14879   0.630   2.364   9.585  0.3747  0.6844 -0.5944
  137SAPE  C21114880   0.630   2.184   9.455 -0.3219 -0.9549  0.1606
  137SAPE  H11R14881   0.561   2.127   9.519 -1.1576 -0.2186 -0.0686
  137SAPE  C21214882   0.643   2.137   9.330 -0.5246  0.2095  0.2785
  137SAPE  H12R14883   0.587   2.044   9.314  0.2792 -0.3868  0.8795
  137SAPE  C21314884   0.727   2.192   9.217 -1.0583 -0.0827  0.2512
  137SAPE  H13R14885   0.775   2.108   9.163  2.0182  1.0827  1.0013
  137SAPE  H13S14886   0.816   2.226   9.274  0.1725 -4.8228  1.6020
  137SAPE  C21414887   0.663   2.297   9.128 -0.2973 -0.2672  0.6683
  137SAPE  H14R14888   0.618   2.385   9.176  2.5326  0.4554  2.2064
  137SAPE  C21514889   0.670   2.288   8.990  0.8510 -0.2595 -0.3349
  137SAPE  H15R14890   0.595   2.351   8.941  1.1805  0.3486 -0.0645
  137SAPE  C21614891   0.735   2.183   8.903 -0.4963 -0.4553  0.1411
  137SAPE  H16R14892   0.660   2.161   8.825 -2.8386  2.4338  1.4108
  137SAPE  H16S14893   0.775   2.095   8.957 -0.8081 -0.1300  0.9156
  137SAPE  C21714894   0.865   2.246   8.842  0.1800  0.4788  0.2434
  137SAPE  H17R14895   0.943   2.228   8.918 -0.9636  0.9925  1.5826
  137SAPE  H17S14896   0.852   2.350   8.804 -1.9423 -1.0235 -3.7473
  137SAPE  C21814897   0.908   2.171   8.721 -0.5492  0.2765 -0.5046
  137SAPE  H18R14898   0.828   2.170   8.645 -2.2615 -1.1888  1.2167
  137SAPE  H18S14899   0.926   2.063   8.738  0.3167  0.0367 -2.6375
  137SAPE  C21914900   1.036   2.238   8.647  0.7622  0.0140  0.2364
  137SAPE  H19R14901   1.121   2.238   8.718  0.5682  3.8309  0.6451
  137SAPE  H19S14902   1.022   2.346   8.626  2.7218  0.6611  1.9529
  137SAPE  C22014903   1.085   2.157   8.521 -0.1266 -0.5490 -0.2339
  137SAPE  H20R14904   1.181   2.210   8.503  0.0770  0.1927  2.6178
  137SAPE  H20S14905   1.026   2.162   8.427  0.5497 -0.4178 -0.6601
  137SAPE  H20T14906   1.122   2.056   8.549  1.6359  0.1605  0.1449
  137SAPE   C3314907   0.125   1.906  10.008  0.5506  0.3765 -0.5576
  137SAPE   H3X14908   0.153   2.009  10.037 -1.4367  1.8225 -3.3391
  137SAPE   H3Y14909   0.015   1.912   9.996  0.5282 -0.7623 -1.1137
  137SAPE   C3414910   0.205   1.892   9.872  0.4726  0.2391 -1.4754
  137SAPE   H4X14911   0.135   1.826   9.817 -0.4439 -0.3220  0.2791
  137SAPE   H4Y14912   0.302   1.840   9.887 -1.5469 -3.2081  1.1455
  137SAPE   C3514913   0.221   2.033   9.806  0.0390  0.4444 -0.0588
  137SAPE   H5X14914   0.281   2.101   9.870  1.3758  1.3245 -2.1436
  137SAPE   H5Y14915   0.117   2.068   9.793 -0.4976 -1.3041 -0.7947
  137SAPE   C3614916   0.309   2.022   9.683  0.0687 -0.5936 -0.3121
  137SAPE   H6X14917   0.407   1.975   9.706  0.8694  1.3315  0.3360
  137SAPE   H6Y14918   0.322   2.126   9.647  0.5037 -0.9170 -1.1340
  137SAPE   C3714919   0.236   1.937   9.584  0.2707  0.2088  0.0288
  137SAPE   H7X14920   0.127   1.955   9.590  0.2172 -0.2710  0.7223
  137SAPE   H7Y14921   0.259   1.833   9.617 -0.6778 -0.1197 -0.3080
  137SAPE   C3814922   0.279   1.958   9.439  0.0388 -0.2919  0.3232
  137SAPE   H8X14923   0.214   1.893   9.376 -1.4891  1.7173 -0.2546
  137SAPE   H8Y14924   0.385   1.927   9.424  0.5018  1.9920 -1.7577
  137SAPE   C3914925   0.250   2.092   9.373 -0.3871 -0.5651 -0.1974
  137SAPE   H9X14926   0.312   2.179   9.405 -0.5262 -0.6476  0.2891
  137SAPE   H9Y14927   0.148   2.120   9.406 -0.3528 -0.4221 -0.2105
  137SAPE  C31014928   0.250   2.094   9.219  0.1038 -0.1011 -0.1545
  137SAPE  H10X14929   0.191   2.010   9.176  1.5053 -0.7547 -0.8708
  137SAPE  H10Y14930   0.355   2.076   9.187 -0.0855  1.7365 -2.0483
  137SAPE  C31114931   0.216   2.226   9.153 -0.5917 -0.2495  0.1222
  137SAPE  H11X14932   0.271   2.299   9.217  2.7137 -0.8604 -1.8226
  137SAPE  H11Y14933   0.106   2.236   9.167 -0.3947  0.8083  1.0530
  137SAPE  C31214934   0.270   2.241   9.003 -0.6552  0.0047  0.0634
  137SAPE  H12X14935   0.239   2.154   8.940  0.1135  0.8025 -1.4629
  137SAPE  H12Y14936   0.380   2.238   9.015 -0.4661 -1.0771 -1.6141
  137SAPE  C31314937   0.211   2.365   8.934 -0.5234 -0.4814 -0.3194
  137SAPE  H13X14938   0.240   2.448   9.002  3.8567 -1.1809 -1.0751
  137SAPE  H13Y14939   0.102   2.344   8.944 -0.9201  1.0958 -0.9423
  137SAPE  C31414940   0.258   2.394   8.791  0.9087  0.2602  0.4149
  137SAPE  H14X14941   0.224   2.332   8.706  1.3775  1.0313 -0.3550
  137SAPE  H14Y14942   0.368   2.387   8.781  1.1978  0.5092  2.8223
  137SAPE  C31514943   0.227   2.542   8.747  0.6459 -0.1257 -0.2941
  137SAPE  H15X14944   0.259   2.609   8.829  0.0009 -1.4040  1.0360
  137SAPE  H15Y14945   0.117   2.546   8.733  0.2729 -0.1977  2.2322
  137SAPE  C31614946   0.309   2.597   8.632 -0.7009  0.0125 -0.6532
  137SAPE  H16X14947   0.306   2.518   8.554  1.3795 -1.1634  0.3657
  137SAPE  H16Y14948   0.411   2.606   8.676 -0.0012  2.0417 -2.5435
  137SAPE  C31714949   0.268   2.737   8.587  0.1151  0.2583  0.1705
  137SAPE  H17X14950   0.269   2.816   8.665  2.7478  1.2274 -0.7551
  137SAPE  H17Y14951   0.166   2.735   8.541 -0.4542 -1.4171  1.3971
  137SAPE  C31814952   0.361   2.787   8.478 -0.2258  0.0087  0.0997
  137SAPE  H18X14953   0.338   2.892   8.453  0.8128 -0.0862 -1.3730
  137SAPE  H18Y14954   0.356   2.715   8.394  1.3141 -2.8860  2.2670
  137SAPE  H18Z14955   0.462   2.791   8.524 -0.2846  2.8682  0.1109
  138SAPE     N14956   3.897   2.037  10.538 -0.3875 -0.0522  0.1103
  138SAPE   HN114957   3.884   1.938  10.509  1.3014  0.2579 -1.9371
  138SAPE   HN214958   3.965   2.033  10.617  0.8770  0.1236 -0.9289
  138SAPE   HN314959   3.809   2.073  10.580 -0.9561  0.3121 -1.3199
  138SAPE   C1214960   3.948   2.129  10.434 -0.5085 -0.1618  0.1624
  138SAPE  H12A14961   3.885   2.113  10.344  0.8501 -1.4289 -0.6064
  138SAPE  H12B14962   4.048   2.088  10.410  0.2104 -1.3542  4.3177
  138SAPE   C1114963   3.950   2.273  10.492 -0.1466 -0.2257  0.0752
  138SAPE  H11A14964   3.847   2.281  10.534 -0.1689 -0.5787  0.0900
  138SAPE  H11B14965   3.957   2.349  10.411 -0.8913 -0.2964 -0.0653
  138SAPE     P14966   4.042   2.403  10.693  0.0998 -0.7536 -0.8341
  138SAPE   O1314967   3.988   2.357  10.825  0.0029  0.1427  0.0178
  138SAPE   O1414968   4.171   2.478  10.703 -0.3921  0.2785 -0.6750
  138SAPE   O1214969   4.053   2.282  10.591  0.3073 -0.3751 -0.2484
  138SAPE   O1114970   3.936   2.502  10.618  0.3174 -0.4812 -0.0353
  138SAPE    C114971   4.001   2.613  10.554  0.1608  0.4013  0.1422
  138SAPE    HA14972   4.040   2.685  10.629  1.1140  2.2915 -2.0752
  138SAPE    HB14973   4.092   2.583  10.499 -0.0134  0.7139 -0.3191
  138SAPE    C214974   3.895   2.679  10.462 -0.5966  0.6159  0.2241
  138SAPE    HS14975   3.812   2.717  10.526 -0.0513  1.0855  0.6633
  138SAPE   O2114976   3.855   2.576  10.378  0.0422  0.2342  0.8418
  138SAPE   C2114977   3.748   2.598  10.305  0.3295 -0.3080 -0.0392
  138SAPE   O2214978   3.680   2.698  10.297 -0.2211  0.0575  0.5752
  138SAPE   C2214979   3.720   2.475  10.219  0.3586 -0.6755  0.3329
  138SAPE   H2R14980   3.786   2.391  10.250  0.0998  0.1957  3.5301
  138SAPE   H2S14981   3.615   2.455  10.252  0.1404 -2.0409 -1.0589
  138SAPE    C314982   3.951   2.802  10.392 -1.1358 -0.2499 -0.1525
  138SAPE    HX14983   4.013   2.857  10.467 -0.5954 -0.9258 -0.0936
  138SAPE    HY14984   3.863   2.858  10.355 -1.5437 -0.5729  0.3264
  138SAPE   O3114985   4.053   2.774  10.286  0.1018  0.2199 -0.0884
  138SAPE   C3114986   4.093   2.883  10.232 -0.6531  0.3615 -0.1631
  138SAPE   O3214987   4.050   2.992  10.257  0.2763 -0.1224 -0.2858
  138SAPE   C3214988   4.191   2.849  10.122 -0.1704 -0.5996  0.5753
  138SAPE   H2X14989   4.221   2.743  10.138  0.7192  0.0032  3.4130
  138SAPE   H2Y14990   4.290   2.891  10.147  0.3348 -1.8071  0.6935
  138SAPE   C2314991   3.716   2.516  10.069 -0.1472 -0.4959 -0.4899
  138SAPE   H3R14992   3.647   2.602  10.057  0.9284  0.4609 -0.0552
  138SAPE   H3S14993   3.694   2.437   9.995  1.3000 -1.8925  0.5044
  138SAPE   C2414994   3.861   2.569  10.026  0.3626  0.8669 -0.1439
  138SAPE   H4R14995   3.893   2.656  10.086 -0.3552 -0.1776  1.8382
  138SAPE   H4S14996   3.857   2.614   9.924  5.1298  1.6481 -0.1860
  138SAPE   C2514997   3.948   2.447  10.026 -0.2506 -0.2506  0.3259
  138SAPE   H5R14998   3.976   2.410  10.126 -0.8093 -1.2196  0.1378
  138SAPE   C2614999   3.971   2.365   9.917  0.2124  0.1196 -0.4182
  138SAPE   H6R15000   4.035   2.278   9.936 -0.4469 -0.4064 -0.5497
  138SAPE   C2715001   3.924   2.391   9.774  0.2933 -0.3466 -0.4659
  138SAPE   H7R15002   3.960   2.495   9.759  0.9298 -0.5898 -0.6986
  138SAPE   H7S15003   3.814   2.382   9.777  0.3098 -0.4488 -0.0449
  138SAPE   C2815004   3.987   2.298   9.672 -0.1159  0.7522 -0.0589
  138SAPE   H8R15005   4.046   2.218   9.720  0.6301  2.3127  1.7864
  138SAPE   C2915006   3.975   2.319   9.541  0.2342 -0.2701  0.1649
  138SAPE   H9R15007   4.028   2.254   9.469 -0.8616 -0.1022 -0.8183
  138SAPE  C21015008   3.886   2.426   9.478  0.3036  0.2792  0.2046
  138SAPE  H10R15009   3.877   2.501   9.560 -0.8437  0.0831  0.2805
  138SAPE  H10S15010   3.785   2.379   9.468  1.0523 -0.9884 -2.1000
  138SAPE  C21115011   3.918   2.498   9.353  0.1857 -0.2718  0.1143
  138SAPE  H11R15012   3.969   2.595   9.369 -0.1948 -0.1166  0.3971
  138SAPE  C21215013   3.898   2.456   9.224 -0.5277  1.0181 -0.2560
  138SAPE  H12R15014   3.946   2.512   9.142 -0.2747 -0.3294 -1.0621
  138SAPE  C21315015   3.849   2.330   9.185  0.5142  0.4888 -0.2059
  138SAPE  H13R15016   3.884   2.261   9.265 -0.4651  1.3012  0.9496
  138SAPE  H13S15017   3.896   2.305   9.087 -0.5414  2.1516 -1.1828
  138SAPE  C21415018   3.700   2.320   9.172 -0.2884 -0.0740  0.0957
  138SAPE  H14R15019   3.648   2.414   9.149 -0.1198  0.4868  1.8774
  138SAPE  C21515020   3.636   2.203   9.174  0.2544  0.2510  0.3990
  138SAPE  H15R15021   3.527   2.218   9.175  0.1028 -0.5756 -0.7861
  138SAPE  C21615022   3.681   2.058   9.199 -0.7860 -0.2862 -0.1670
  138SAPE  H16R15023   3.791   2.067   9.210 -0.3376 -1.8182 -2.6330
  138SAPE  H16S15024   3.668   1.982   9.120  1.2407 -1.7224  0.7840
  138SAPE  C21715025   3.628   2.003   9.332  0.1849  0.4951  0.2094
  138SAPE  H17R15026   3.672   1.901   9.330  0.5765  0.6670 -0.6556
  138SAPE  H17S15027   3.519   1.989   9.320  0.0727  1.2361  0.2757
  138SAPE  C21815028   3.669   2.078   9.456 -1.0860  0.0717 -0.0972
  138SAPE  H18R15029   3.617   2.174   9.475  0.7345  1.0903 -0.0342
  138SAPE  H18S15030   3.778   2.097   9.451 -0.8219 -0.6762  1.9750
  138SAPE  C21915031   3.648   1.995   9.582  0.5164 -0.3367 -0.4638
  138SAPE  H19R15032   3.714   1.906   9.585 -0.6268 -1.2450 -0.9629
  138SAPE  H19S15033   3.547   1.947   9.584  0.9761 -1.4032 -1.4970
  138SAPE  C22015034   3.667   2.082   9.708 -0.2523 -0.0182 -0.5234
  138SAPE  H20R15035   3.652   2.011   9.792  1.3780  0.2405  0.0151
  138SAPE  H20S15036   3.595   2.166   9.708  0.2401  0.4288 -1.9880
  138SAPE  H20T15037   3.767   2.129   9.720 -0.5093  0.9111 -1.8707
  138SAPE   C3315038   4.146   2.885   9.981  0.4730 -0.7461 -0.1221
  138SAPE   H3X15039   4.109   2.989   9.981 -0.8302 -1.1829 -0.5645
  138SAPE   H3Y15040   4.054   2.826   9.961  0.8795 -1.2570 -0.5167
  138SAPE   C3415041   4.266   2.873   9.884  0.3500  0.1641  0.2126
  138SAPE   H4X15042   4.312   2.773   9.894 -0.1038 -0.0890 -0.2142
  138SAPE   H4Y15043   4.342   2.943   9.927 -0.2250 -0.5654  2.5872
  138SAPE   C3515044   4.233   2.900   9.739 -0.2657 -0.3274  0.2287
  138SAPE   H5X15045   4.324   2.916   9.677  0.4325  0.2434  1.3617
  138SAPE   H5Y15046   4.172   2.992   9.728 -0.5277 -0.4859  0.3585
  138SAPE   C3615047   4.166   2.776   9.684 -0.1754 -0.6300  0.3217
  138SAPE   H6X15048   4.060   2.779   9.719 -1.2011  0.3627 -2.5430
  138SAPE   H6Y15049   4.217   2.681   9.709  1.1769 -0.2379 -0.8371
  138SAPE   C3715050   4.161   2.785   9.534  0.3621 -0.0341 -0.1137
  138SAPE   H7X15051   4.145   2.889   9.500 -1.9346  0.1555  1.3050
  138SAPE   H7Y15052   4.079   2.720   9.498  0.3626  0.0648 -0.2902
  138SAPE   C3815053   4.291   2.735   9.464 -0.4177 -0.3150 -0.0547
  138SAPE   H8X15054   4.286   2.625   9.479 -1.1405 -0.0851  1.6286
  138SAPE   H8Y15055   4.385   2.777   9.505  0.5405  0.1110 -2.5115
  138SAPE   C3915056   4.294   2.750   9.310 -0.6207  0.0393  0.0899
  138SAPE   H9X15057   4.306   2.856   9.278 -3.5094 -0.0635 -1.6045
  138SAPE   H9Y15058   4.203   2.708   9.263 -1.2517 -0.5512  1.7499
  138SAPE  C31015059   4.421   2.692   9.236 -0.6916 -0.3590 -1.1534
  138SAPE  H10X15060   4.436   2.585   9.263  2.3477  0.0852 -0.7748
  138SAPE  H10Y15061   4.512   2.747   9.267 -2.3455  0.5098  2.7997
  138SAPE  C31115062   4.391   2.697   9.083  0.4557 -0.2142  0.6528
  138SAPE  H11X15063   4.354   2.797   9.053 -1.2562 -0.4023  1.9900
  138SAPE  H11Y15064   4.301   2.634   9.067 -0.4645  1.1342  0.3146
  138SAPE  C31215065   4.515   2.658   8.998  1.3887 -0.1486 -0.2487
  138SAPE  H12X15066   4.554   2.561   9.034 -2.0884 -1.5324  0.1894
  138SAPE  H12Y15067   4.600   2.721   9.031  0.1630  0.4761  1.9400
  138SAPE  C31315068   4.496   2.675   8.845 -0.9379  0.9699 -0.1282
  138SAPE  H13X15069   4.392   2.646   8.823 -0.4042 -0.7742 -0.5086
  138SAPE  H13Y15070   4.553   2.593   8.796 -1.9934  0.0078  0.2034
  138SAPE  C31415071   4.527   2.805   8.774 -0.2957  0.0607  0.7155
  138SAPE  H14X15072   4.627   2.837   8.812 -1.1602  0.2584  2.9715
  138SAPE  H14Y15073   4.446   2.871   8.810 -0.2754 -0.4221  1.7071
  138SAPE  C31515074   4.523   2.784   8.627  0.0808  0.1753 -0.6487
  138SAPE  H15X15075   4.421   2.749   8.599 -1.0535  2.1815  0.7173
  138SAPE  H15Y15076   4.601   2.712   8.595 -0.7522 -1.2273  0.3540
  138SAPE  C31615077   4.550   2.912   8.541 -0.2168  0.7666 -0.5940
  138SAPE  H16X15078   4.653   2.940   8.570  0.0944  0.8809 -1.7612
  138SAPE  H16Y15079   4.480   2.992   8.573 -1.9177 -1.1450  0.7216
  138SAPE  C31715080   4.547   2.892   8.391 -0.3499 -0.5757  0.7783
  138SAPE  H17X15081   4.444   2.869   8.358 -0.7869  1.1381  0.8514
  138SAPE  H17Y15082   4.611   2.805   8.363  3.0324  1.4515  1.5223
  138SAPE  C31815083   4.603   3.020   8.320  0.4617 -0.6850 -0.0689
  138SAPE  H18X15084   4.519   3.080   8.277  0.2974 -1.3606 -0.6930
  138SAPE  H18Y15085   4.670   3.008   8.233 -0.7025 -0.8443 -0.9631
  138SAPE  H18Z15086   4.645   3.090   8.396  0.0600  0.4442 -0.8594
  139SAPE     N15087   4.733   1.742  10.420  0.1589  0.4191 -0.0327
  139SAPE   HN115088   4.664   1.818  10.407  1.0403  1.5654  1.5594
  139SAPE   HN215089   4.719   1.708  10.517 -0.8382  1.1248  0.0799
  139SAPE   HN315090   4.828   1.786  10.421 -0.1893  1.1788  0.3253
  139SAPE   C1215091   4.738   1.633  10.311 -0.0136  0.5519  0.2198
  139SAPE  H12A15092   4.755   1.692  10.219 -0.3134  1.7854  0.9248
  139SAPE  H12B15093   4.642   1.578  10.303  0.7904 -0.9802  0.7032
  139SAPE   C1115094   4.854   1.533  10.342  0.1571 -0.0156 -0.3101
  139SAPE  H11A15095   4.950   1.582  10.315 -1.1506  1.8713 -1.7757
  139SAPE  H11B15096   4.829   1.444  10.279 -0.9152 -0.4406  0.6726
  139SAPE     P15097   4.792   1.362  10.539  0.2443  0.0202  0.2597
  139SAPE   O1315098   4.843   1.334  10.673  0.4504 -0.3455 -0.0095
  139SAPE   O1415099   4.643   1.349  10.524  0.1867  0.1054 -0.3001
  139SAPE   O1215100   4.855   1.499  10.482 -1.0145 -0.2657  0.4239
  139SAPE   O1115101   4.847   1.260  10.440 -0.0712  0.2111 -0.0212
  139SAPE    C115102   4.795   1.134  10.417 -0.0165  0.2140  0.0260
  139SAPE    HA15103   4.844   1.064  10.488  0.6191  0.9919  0.3779
  139SAPE    HB15104   4.685   1.129  10.426 -0.0553  1.5744  0.5552
  139SAPE    C215105   4.836   1.083  10.279  0.2576  0.5991 -0.7583
  139SAPE    HS15106   4.943   1.102  10.257  0.5587 -0.3287 -0.1418
  139SAPE   O2115107   4.751   1.144  10.177  0.3046  0.3428  0.0464
  139SAPE   C2115108   4.813   1.198  10.075 -0.6965 -0.3371  0.1110
  139SAPE   O2215109   4.934   1.207  10.061  0.6435  0.1207 -0.6398
  139SAPE   C2215110   4.710   1.261   9.978  0.6041 -0.2816  0.5527
  139SAPE   H2R15111   4.627   1.188   9.971  1.6871 -1.4047 -2.0602
  139SAPE   H2S15112   4.685   1.354  10.034  0.4515  0.4222 -0.6391
  139SAPE    C315113   4.817   0.924  10.269  0.1610 -0.3410  0.2000
  139SAPE    HX15114   4.725   0.899  10.325 -0.6335  3.7865  1.0729
  139SAPE    HY15115   4.900   0.871  10.320 -0.1586 -4.1211 -2.7938
  139SAPE   O3115116   4.801   0.873  10.132  0.0172 -0.5130 -0.1278
  139SAPE   C3115117   4.911   0.832  10.074 -0.3205  0.3319  0.4822
  139SAPE   O3215118   5.025   0.858  10.109 -0.2955  0.1218  0.1557
  139SAPE   C3215119   4.883   0.732   9.961  0.7760  0.2749  0.5238
  139SAPE   H2X15120   4.806   0.779   9.895 -0.6500 -2.0991  0.4003
  139SAPE   H2Y15121   4.836   0.645  10.012 -2.0391  1.4061  0.0839
  139SAPE   C2315122   4.768   1.291   9.842 -0.2240 -0.0829 -0.2017
  139SAPE   H3R15123   4.832   1.205   9.810  0.2446  0.3775 -0.5262
  139SAPE   H3S15124   4.837   1.378   9.839 -0.0063 -0.2412  0.0724
  139SAPE   C2415125   4.667   1.316   9.730 -0.0245  0.1815  0.5190
  139SAPE   H4R15126   4.624   1.416   9.749 -0.7537  0.5355 -2.4911
  139SAPE   H4S15127   4.586   1.241   9.742 -1.2247  0.7959 -2.7536
  139SAPE   C2515128   4.720   1.316   9.595 -0.0335 -0.9403  0.3212
  139SAPE   H5R15129   4.727   1.402   9.527  1.1685 -2.5699 -1.7330
  139SAPE   C2615130   4.743   1.205   9.525  0.6369 -0.2736  0.3130
  139SAPE   H6R15131   4.781   1.221   9.423 -0.0276 -0.0870  0.0934
  139SAPE   C2715132   4.714   1.066   9.574 -0.0414  0.1706  0.1014
  139SAPE   H7R15133   4.625   1.030   9.517  0.0937  1.5040 -0.9970
  139SAPE   H7S15134   4.676   1.057   9.678  1.3696 -0.9678  0.5446
  139SAPE   C2815135   4.837   0.988   9.554  0.3282 -0.6476  0.2781
  139SAPE   H8R15136   4.932   1.029   9.590 -1.1905  1.1210  2.5628
  139SAPE   C2915137   4.849   0.868   9.489 -0.1975 -0.1096 -0.6181
  139SAPE   H9R15138   4.948   0.819   9.490  0.5121  1.2078 -1.8389
  139SAPE  C21015139   4.733   0.788   9.433 -0.4116  0.4315 -0.5002
  139SAPE  H10R15140   4.660   0.761   9.512 -1.8821  1.5638 -1.4162
  139SAPE  H10S15141   4.784   0.694   9.406 -2.8148 -0.6396 -1.6455
  139SAPE  C21115142   4.671   0.840   9.311  0.1644 -0.8457 -0.6470
  139SAPE  H11R15143   4.590   0.914   9.322 -1.3185 -2.5696  1.0041
  139SAPE  C21215144   4.708   0.827   9.186  0.4570  0.5095 -0.2190
  139SAPE  H12R15145   4.646   0.863   9.103 -1.2186 -2.5860 -0.4765
  139SAPE  C21315146   4.816   0.730   9.139 -0.2498 -0.0626 -0.7533
  139SAPE  H13R15147   4.804   0.628   9.180  0.1174  0.7262  1.5055
  139SAPE  H13S15148   4.916   0.764   9.175 -1.6740  0.8317  2.7960
  139SAPE  C21415149   4.826   0.720   8.988  0.4769 -0.0802  0.3749
  139SAPE  H14R15150   4.865   0.806   8.933 -0.6314  1.4714  1.9179
  139SAPE  C21515151   4.787   0.612   8.911 -0.2044  0.2315  0.4828
  139SAPE  H15R15152   4.796   0.632   8.803  0.1999 -0.5985  0.3489
  139SAPE  C21615153   4.730   0.477   8.945  0.6188  0.1865  0.2836
  139SAPE  H16R15154   4.619   0.474   8.939  0.6356  1.6219 -1.9313
  139SAPE  H16S15155   4.764   0.445   9.046  0.5499 -3.4260 -0.6721
  139SAPE  C21715156   4.784   0.375   8.853  0.2143 -0.7357 -0.0375
  139SAPE  H17R15157   4.786   0.276   8.902 -0.7227 -0.8007 -0.1115
  139SAPE  H17S15158   4.891   0.395   8.831  0.6530 -2.1547  0.7105
  139SAPE  C21815159   4.717   0.343   8.717 -0.0263 -0.8681  0.0874
  139SAPE  H18R15160   4.725   0.440   8.663  0.3753 -0.9183  0.0499
  139SAPE  H18S15161   4.611   0.317   8.736 -0.5874  2.2466  2.0508
  139SAPE  C21915162   4.801   0.239   8.633  0.0221  0.2481  0.5356
  139SAPE  H19R15163   4.908   0.263   8.648 -0.2289  1.6287  0.2287
  139SAPE  H19S15164   4.775   0.257   8.526 -1.1812  0.5679  0.8662
  139SAPE  C22015165   4.766   0.089   8.671  0.0046  0.5706  1.1200
  139SAPE  H20R15166   4.667   0.056   8.632  1.5582 -2.7245 -0.4590
  139SAPE  H20S15167   4.786   0.067   8.778 -1.9411  2.2596  1.9072
  139SAPE  H20T15168   4.840   0.036   8.608 -1.3160 -0.3201  0.2727
  139SAPE   C3315169   5.006   0.687   9.879  0.2795  0.5738 -0.6446
  139SAPE   H3X15170   5.081   0.647   9.950 -0.3864 -0.7019 -0.6384
  139SAPE   H3Y15171   5.060   0.778   9.846  0.1976  1.0625  0.4919
  139SAPE   C3415172   4.969   0.588   9.777 -0.4582 -0.8076 -0.7657
  139SAPE   H4X15173   5.060   0.527   9.757  0.5851  0.1854  0.7519
  139SAPE   H4Y15174   4.938   0.642   9.684 -0.5448 -1.9728 -1.4307
  139SAPE   C3515175   4.860   0.478   9.809  0.4987  0.2175  0.4415
  139SAPE   H5X15176   4.764   0.527   9.832  0.9706  1.8746 -0.9210
  139SAPE   H5Y15177   4.891   0.421   9.900  0.9664 -1.0456 -0.4796
  139SAPE   C3615178   4.827   0.388   9.688 -0.2247 -0.0681  0.3403
  139SAPE   H6X15179   4.739   0.431   9.636  0.5659  0.7530 -0.3647
  139SAPE   H6Y15180   4.808   0.285   9.724  0.7030 -1.1148 -1.9552
  139SAPE   C3715181   4.941   0.364   9.585 -0.0790  0.4161 -1.1615
  139SAPE   H7X15182   5.024   0.314   9.638 -1.4097 -1.6372 -0.9295
  139SAPE   H7Y15183   4.966   0.463   9.541  0.2486 -0.3959 -2.8887
  139SAPE   C3815184   4.893   0.265   9.480  0.0155 -0.0158  0.0219
  139SAPE   H8X15185   4.801   0.312   9.439 -2.5229 -1.2345  3.7523
  139SAPE   H8Y15186   4.874   0.168   9.530 -1.0725  0.0272 -0.2908
  139SAPE   C3915187   4.997   0.247   9.371 -0.2612  0.0592 -0.5097
  139SAPE   H9X15188   5.087   0.196   9.412  0.2545 -0.3886 -2.1026
  139SAPE   H9Y15189   5.026   0.342   9.320  0.2638  0.1929  0.0258
  139SAPE  C31015190   4.939   0.155   9.266 -0.0202 -0.5097 -0.2134
  139SAPE  H10X15191   4.878   0.212   9.192  0.5886  0.7790  0.2424
  139SAPE  H10Y15192   4.872   0.085   9.321 -0.6036 -0.3417 -0.6936
  139SAPE  C31115193   5.048   0.072   9.190 -0.3949  0.2368  0.3382
  139SAPE  H11X15194   5.112   0.004   9.250  1.8118 -1.0599 -3.2065
  139SAPE  H11Y15195   5.118   0.148   9.149 -1.8990  0.6934 -1.5409
  139SAPE  C31215196   4.998  -0.025   9.083  0.3183  0.0401  0.0073
  139SAPE  H12X15197   4.922   0.026   9.020  0.5088 -0.4864 -0.6522
  139SAPE  H12Y15198   4.952  -0.110   9.137 -1.7803  1.3995  0.5040
  139SAPE  C31315199   5.132  -0.064   9.006  0.6867 -0.0039  0.1153
  139SAPE  H13X15200   5.093  -0.147   8.942  1.7396  0.2767 -0.9077
  139SAPE  H13Y15201   5.212  -0.091   9.078  0.2565  0.9641  0.9923
  139SAPE  C31415202   5.192   0.044   8.921 -0.2784  0.0931 -0.1349
  139SAPE  H14X15203   5.278   0.000   8.865 -0.4834  1.9550 -2.0425
  139SAPE  H14Y15204   5.237   0.128   8.978  1.5588  0.4011 -1.8947
  139SAPE  C31515205   5.100   0.099   8.817  0.6848  0.0716  0.3403
  139SAPE  H15X15206   5.027   0.170   8.863  4.1521  2.5317  2.5625
  139SAPE  H15Y15207   5.045   0.016   8.769  0.2789  1.1883 -1.2043
  139SAPE  C31615208   5.181   0.179   8.706 -0.0544 -0.4038 -0.7366
  139SAPE  H16X15209   5.110   0.246   8.652 -0.4363  0.1373  0.3959
  139SAPE  H16Y15210   5.249   0.245   8.764 -0.6161  0.0764 -0.6110
  139SAPE  C31715211   5.256   0.090   8.601  0.0370  0.4890  0.0264
  139SAPE  H17X15212   5.174   0.032   8.554  2.0782 -0.5892 -2.4346
  139SAPE  H17Y15213   5.320   0.015   8.652 -0.5882 -0.1202 -0.0664
  139SAPE  C31815214   5.329   0.179   8.500  0.2583 -0.3855  0.1933
  139SAPE  H18X15215   5.260   0.229   8.430 -0.8028 -2.1669 -0.0894
  139SAPE  H18Y15216   5.393   0.119   8.432 -0.0451  0.4921 -0.8887
  139SAPE  H18Z15217   5.401   0.247   8.550 -0.4064  1.0485 -0.7664
  140SAPE     N15218   6.570   5.843  10.962 -0.2833  0.3468  0.1083
  140SAPE   HN115219   6.561   5.890  10.869  0.6720 -0.1113 -0.2217
  140SAPE   HN215220   6.518   5.908  11.025 -3.4323 -1.1717 -0.7104
  140SAPE   HN315221   6.665   5.816  10.992 -0.8601  0.5581  2.2680
  140SAPE   C1215222   6.494   5.718  10.936  0.5904 -0.4150 -0.1884
  140SAPE  H12A15223   6.410   5.750  10.871  0.3708  2.4021  1.3590
  140SAPE  H12B15224   6.467   5.678  11.036  0.0338  1.8384  0.6023
  140SAPE   C1115225   6.569   5.612  10.861  0.3054 -0.8189 -0.3612
  140SAPE  H11A15226   6.602   5.655  10.764  2.2702 -0.7477  0.3006
  140SAPE  H11B15227   6.499   5.532  10.828  0.1735 -1.5246  1.5547
  140SAPE     P15228   6.695   5.437  10.997  0.2229 -0.4959  0.0349
  140SAPE   O1315229   6.813   5.433  11.084 -0.2619 -0.0688 -0.6056
  140SAPE   O1415230   6.561   5.418  11.061 -0.0786 -0.0820 -0.2426
  140SAPE   O1215231   6.692   5.569  10.922 -0.1162  0.4353 -0.2307
  140SAPE   O1115232   6.698   5.322  10.884  0.0294  0.2177  0.7041
  140SAPE    C115233   6.754   5.335  10.751  0.5213 -0.0423 -0.9876
  140SAPE    HA15234   6.803   5.434  10.739 -1.9458  1.3898 -0.0556
  140SAPE    HB15235   6.830   5.257  10.733  0.1979 -0.7423  0.5279
  140SAPE    C215236   6.653   5.323  10.637  0.4749 -0.2032 -0.6772
  140SAPE    HS15237   6.561   5.367  10.681  0.3818 -0.8557 -0.2056
  140SAPE   O2115238   6.633   5.184  10.607  0.1832 -0.4604 -0.6808
  140SAPE   C2115239   6.511   5.147  10.577  0.4018  0.0328  0.6298
  140SAPE   O2215240   6.410   5.220  10.576  1.1616 -0.3767 -0.4132
  140SAPE   C2215241   6.511   4.999  10.536  1.0146 -0.4100  0.3853
  140SAPE   H2R15242   6.610   4.955  10.559  1.4441  1.3622  2.2344
  140SAPE   H2S15243   6.432   4.948  10.595  0.2349  0.0678 -0.2152
  140SAPE    C315244   6.685   5.407  10.509  0.0834 -0.4004 -0.4247
  140SAPE    HX15245   6.780   5.372  10.463 -1.2710 -2.1018 -2.0936
  140SAPE    HY15246   6.711   5.510  10.543 -1.0498 -0.9672  2.3639
  140SAPE   O3115247   6.584   5.401  10.411  0.1180 -0.3809  0.4090
  140SAPE   C3115248   6.488   5.487  10.428 -0.4822 -0.0104  0.4264
  140SAPE   O3215249   6.466   5.550  10.535  0.4388 -0.3116  0.2544
  140SAPE   C3215250   6.395   5.477  10.309  0.6567 -0.0045 -0.1848
  140SAPE   H2X15251   6.310   5.416  10.346  0.8479 -0.5503 -0.6265
  140SAPE   H2Y15252   6.432   5.416  10.224 -0.0424 -2.0237  0.8990
  140SAPE   C2315253   6.484   4.985  10.382 -0.1489  0.9133 -1.2479
  140SAPE   H3R15254   6.379   5.004  10.352 -0.3196  0.6913 -0.8052
  140SAPE   H3S15255   6.508   4.877  10.370  0.6295  0.1416  4.3685
  140SAPE   C2415256   6.579   5.059  10.287  0.3300  0.4571 -0.4824
  140SAPE   H4R15257   6.538   5.162  10.280 -1.9627 -0.2575  1.1429
  140SAPE   H4S15258   6.551   5.023  10.185  0.8982 -1.8150  0.1222
  140SAPE   C2515259   6.731   5.065  10.301  0.2588  0.1718  0.0386
  140SAPE   H5R15260   6.780   5.158  10.335 -0.6925  0.4155  0.7725
  140SAPE   C2615261   6.823   4.976  10.255  0.4942 -0.5560 -0.0278
  140SAPE   H6R15262   6.927   4.999  10.283  0.2913 -0.7174  0.8638
  140SAPE   C2715263   6.800   4.840  10.202 -0.1137  0.3425  0.3209
  140SAPE   H7R15264   6.868   4.824  10.116 -0.9300  2.0584 -0.6870
  140SAPE   H7S15265   6.697   4.827  10.163 -0.6125  1.1301  1.3228
  140SAPE   C2815266   6.835   4.732  10.303 -0.3285  0.0720  0.1535
  140SAPE   H8R15267   6.827   4.758  10.409  2.1047  0.3317  0.3412
  140SAPE   C2915268   6.886   4.615  10.270  0.3546 -0.0826 -0.0675
  140SAPE   H9R15269   6.900   4.539  10.348  1.5615 -1.2208 -1.3591
  140SAPE  C21015270   6.911   4.567  10.135  0.6993  0.6389 -0.1495
  140SAPE  H10R15271   6.824   4.602  10.076  0.0907  1.0618  0.9719
  140SAPE  H10S15272   6.922   4.458  10.115 -0.0017  0.7007 -0.9189
  140SAPE  C21115273   7.035   4.616  10.073 -0.3393  0.1118 -0.3308
  140SAPE  H11R15274   7.117   4.621  10.147  0.3305 -0.8203 -0.9804
  140SAPE  C21215275   7.061   4.634   9.941  0.2349 -0.5362 -0.2872
  140SAPE  H12R15276   7.154   4.686   9.915 -0.1282  0.6078  0.5935
  140SAPE  C21315277   6.966   4.609   9.829 -0.2619 -0.3565 -0.6306
  140SAPE  H13R15278   6.872   4.555   9.854  0.0519  0.2801  2.2822
  140SAPE  H13S15279   7.016   4.529   9.770  1.0209  0.3868 -0.5976
  140SAPE  C21415280   6.954   4.729   9.735 -0.3459  0.0673 -0.4617
  140SAPE  H14R15281   6.936   4.827   9.781 -0.8759 -0.9556  1.5971
  140SAPE  C21515282   6.963   4.731   9.599  0.4552  0.2787  1.0421
  140SAPE  H15R15283   6.956   4.826   9.543  3.1197  0.7646  1.4101
  140SAPE  C21615284   6.994   4.613   9.508  0.7536  0.0479 -0.6362
  140SAPE  H16R15285   6.944   4.617   9.410 -0.0359 -2.6731 -0.4217
  140SAPE  H16S15286   6.961   4.523   9.564  0.2343 -0.1140 -1.1909
  140SAPE  C21715287   7.143   4.590   9.475 -0.8317 -0.3187  0.4529
  140SAPE  H17R15288   7.201   4.563   9.565  0.3283 -1.6990 -0.6709
  140SAPE  H17S15289   7.189   4.686   9.443 -0.4863 -1.1310 -1.6459
  140SAPE  C21815290   7.153   4.490   9.361  0.1511 -0.3395 -0.1642
  140SAPE  H18R15291   7.083   4.410   9.392  1.5360 -1.2054  0.8701
  140SAPE  H18S15292   7.251   4.436   9.363  1.9679  2.6189 -1.8805
  140SAPE  C21915293   7.129   4.536   9.223 -0.5147  0.6003 -0.0299
  140SAPE  H19R15294   7.183   4.633   9.215 -1.6095  1.9212  5.0146
  140SAPE  H19S15295   7.019   4.552   9.228 -0.6113 -0.4679  2.9369
  140SAPE  C22015296   7.163   4.437   9.112 -0.5969 -0.0152  0.7526
  140SAPE  H20R15297   7.145   4.463   9.006  1.1767  1.2005  0.7130
  140SAPE  H20S15298   7.110   4.342   9.133 -2.8443  0.7970 -0.7904
  140SAPE  H20T15299   7.270   4.409   9.107 -0.8702 -0.8845 -0.7373
  140SAPE   C3315300   6.334   5.605  10.250 -0.5088 -0.2843  0.9016
  140SAPE   H3X15301   6.322   5.682  10.329  1.4756  1.5255 -0.4134
  140SAPE   H3Y15302   6.239   5.585  10.195 -0.5068 -0.9652  1.1419
  140SAPE   C3415303   6.426   5.656  10.130 -0.1907 -0.9572  0.3957
  140SAPE   H4X15304   6.395   5.598  10.041 -1.0964  0.5671 -0.3237
  140SAPE   H4Y15305   6.530   5.628  10.157  1.0005  1.4988 -1.2263
  140SAPE   C3515306   6.403   5.808  10.103 -0.2749 -0.2004 -0.5828
  140SAPE   H5X15307   6.412   5.854  10.203 -1.2252 -0.0879 -0.5348
  140SAPE   H5Y15308   6.300   5.833  10.070 -0.3995 -0.9687 -0.8025
  140SAPE   C3615309   6.512   5.877  10.009 -0.7572  0.6275  0.4848
  140SAPE   H6X15310   6.619   5.860  10.031 -1.0058  0.2412  1.4630
  140SAPE   H6Y15311   6.494   5.987  10.013 -0.4864  0.7782 -1.5962
  140SAPE   C3715312   6.481   5.851   9.858  0.1579  0.1836 -0.0701
  140SAPE   H7X15313   6.396   5.919   9.834  0.7809  1.3071  0.8104
  140SAPE   H7Y15314   6.444   5.747   9.841 -1.3352  0.7647 -0.6090
  140SAPE   C3815315   6.600   5.889   9.766  0.2462 -0.1666  0.3725
  140SAPE   H8X15316   6.684   5.828   9.805 -0.1003 -1.2011 -0.4499
  140SAPE   H8Y15317   6.641   5.991   9.782 -1.4279  0.3758  1.5312
  140SAPE   C3915318   6.576   5.870   9.613  0.3415 -0.4942  0.3825
  140SAPE   H9X15319   6.495   5.941   9.584  0.9842  0.0319 -0.1623
  140SAPE   H9Y15320   6.535   5.768   9.597  0.6893 -0.3441 -1.6456
  140SAPE  C31015321   6.697   5.905   9.530  0.4533  0.0484  0.3725
  140SAPE  H10X15322   6.785   5.851   9.571 -0.3431 -1.2623  0.4112
  140SAPE  H10Y15323   6.704   6.016   9.540 -0.2642  0.1475 -0.1404
  140SAPE  C31115324   6.699   5.882   9.374  0.2232  0.5107 -0.5166
  140SAPE  H11X15325   6.772   5.952   9.329  1.5285 -0.0431  0.6792
  140SAPE  H11Y15326   6.596   5.908   9.339  0.3789  1.3464 -0.3812
  140SAPE  C31215327   6.740   5.741   9.340 -0.1283 -0.7590  0.0691
  140SAPE  H12X15328   6.667   5.668   9.381 -0.9647 -0.1327 -0.2898
  140SAPE  H12Y15329   6.832   5.722   9.400 -0.1711  0.8966  0.7206
  140SAPE  C31315330   6.776   5.732   9.193  0.0740  0.3336 -0.6189
  140SAPE  H13X15331   6.812   5.627   9.179  2.3641  0.7713  1.2729
  140SAPE  H13Y15332   6.856   5.808   9.181  0.5982  0.5494  3.0592
  140SAPE  C31415333   6.660   5.749   9.100  0.3985 -0.0958 -1.0189
  140SAPE  H14X15334   6.629   5.855   9.091  0.3346 -0.0354 -0.1403
  140SAPE  H14Y15335   6.576   5.682   9.127  1.7146 -1.4005 -0.0286
  140SAPE  C31515336   6.698   5.717   8.958  0.1584 -0.1134  0.0220
  140SAPE  H15X15337   6.602   5.729   8.902  0.9451 -1.4137 -1.6921
  140SAPE  H15Y15338   6.728   5.611   8.943  0.1858  0.1401 -1.9467
  140SAPE  C31615339   6.812   5.804   8.901 -0.2126 -0.0992 -1.0789
  140SAPE  H16X15340   6.910   5.787   8.952 -0.5465 -0.9645 -0.7112
  140SAPE  H16Y15341   6.784   5.909   8.922 -1.6026 -0.7197  0.4181
  140SAPE  C31715342   6.832   5.797   8.748 -0.1602  0.0787  0.1943
  140SAPE  H17X15343   6.761   5.860   8.690  1.5811  2.3061  0.3513
  140SAPE  H17Y15344   6.829   5.687   8.728  3.6929 -1.3565  5.2819
  140SAPE  C31815345   6.977   5.838   8.718  0.0171  0.0579 -0.0170
  140SAPE  H18X15346   7.041   5.773   8.781 -1.5097 -2.0440 -0.5376
  140SAPE  H18Y15347   6.987   5.941   8.757 -1.4810 -0.3045  1.4098
  140SAPE  H18Z15348   6.991   5.820   8.609 -2.2869  1.5275 -0.6066
  141SAPE     N15349   0.727   4.945  10.712 -0.1363  0.2315 -0.1323
  141SAPE   HN115350   0.695   4.932  10.614 -3.7833  0.0460  0.9466
  141SAPE   HN215351   0.745   5.047  10.725 -1.1985  0.4488 -0.2829
  141SAPE   HN315352   0.813   4.889  10.728 -0.5120 -0.4224 -0.3920
  141SAPE   C1215353   0.627   4.899  10.813 -0.2284  0.2651  0.4657
  141SAPE  H12A15354   0.678   4.847  10.897 -1.3367 -2.0205 -0.1859
  141SAPE  H12B15355   0.563   4.822  10.765 -1.0498  1.1569  0.1139
  141SAPE   C1115356   0.538   5.013  10.877  0.2627  0.6751 -0.3940
  141SAPE  H11A15357   0.591   5.074  10.953  0.2443 -0.9238  0.9546
  141SAPE  H11B15358   0.452   4.963  10.927  0.0940 -0.9577 -2.2046
  141SAPE     P15359   0.366   5.162  10.748  0.0321  0.2957 -0.1826
  141SAPE   O1315360   0.276   5.051  10.703 -0.3120  0.1614  0.2307
  141SAPE   O1415361   0.328   5.218  10.878 -0.7937  0.6717 -0.7977
  141SAPE   O1215362   0.511   5.104  10.769  0.3248 -0.4173 -0.1368
  141SAPE   O1115363   0.361   5.276  10.633 -0.6493 -0.0702 -0.4624
  141SAPE    C115364   0.470   5.309  10.553  0.7815 -0.1489  0.7375
  141SAPE    HA15365   0.512   5.405  10.587  0.4777  0.4061 -0.3866
  141SAPE    HB15366   0.552   5.234  10.563  1.7811  0.9944  1.2745
  141SAPE    C215367   0.427   5.299  10.406 -0.2821 -0.3151  0.3218
  141SAPE    HS15368   0.507   5.339  10.341  0.5085  0.7774  1.8919
  141SAPE   O2115369   0.304   5.367  10.393  0.2052 -0.0609  0.8093
  141SAPE   C2115370   0.280   5.416  10.274  0.2073  0.6657  0.2502
  141SAPE   O2215371   0.361   5.440  10.190 -0.2415  0.8398  0.5593
  141SAPE   C2215372   0.133   5.431  10.267  0.5156 -0.1213  0.6391
  141SAPE   H2R15373   0.086   5.330  10.267 -0.6207  0.3904  1.5475
  141SAPE   H2S15374   0.089   5.489  10.350  1.1873  1.0915  0.1629
  141SAPE    C315375   0.401   5.150  10.362 -0.4691 -0.3480 -0.2204
  141SAPE    HX15376   0.320   5.115  10.430 -0.2770 -2.4034 -0.9865
  141SAPE    HY15377   0.487   5.084  10.385  1.8155  2.2114 -0.9381
  141SAPE   O3115378   0.355   5.144  10.227 -0.3796 -0.1649  0.3242
  141SAPE   C3115379   0.448   5.137  10.134 -0.2267  0.0763 -0.1462
  141SAPE   O3215380   0.567   5.144  10.159 -0.1421 -0.2215 -0.0107
  141SAPE   C3215381   0.380   5.118   9.997  1.1009  0.3106 -0.5692
  141SAPE   H2X15382   0.355   5.221   9.967 -0.1906  0.2627  0.2838
  141SAPE   H2Y15383   0.294   5.048  10.005  1.9070 -0.7577 -0.8139
  141SAPE   C2315384   0.087   5.491  10.128  0.0983  1.0172  0.5282
  141SAPE   H3R15385   0.136   5.428  10.051  1.4109 -0.5653  2.5180
  141SAPE   H3S15386   0.134   5.591  10.114 -0.2953  1.1187 -0.0846
  141SAPE   C2415387  -0.063   5.497  10.112  0.5663  0.0371 -0.0271
  141SAPE   H4R15388  -0.110   5.576  10.175  0.0669 -1.6752  1.8572
  141SAPE   H4S15389  -0.109   5.415  10.172  1.5071 -1.1111 -0.8450
  141SAPE   C2515390  -0.134   5.507   9.974 -0.0627  0.4984  0.4108
  141SAPE   H5R15391  -0.179   5.603   9.947 -1.5199  0.4660  2.4795
  141SAPE   C2615392  -0.172   5.397   9.902  0.0793 -0.3249  0.5469
  141SAPE   H6R15393  -0.201   5.407   9.797  1.6281 -0.4481  0.0795
  141SAPE   C2715394  -0.159   5.252   9.948 -0.5035 -0.1452  0.2564
  141SAPE   H7R15395  -0.255   5.197   9.945 -0.5277 -0.0796 -0.7286
  141SAPE   H7S15396  -0.129   5.251  10.055  1.9245 -1.1849 -0.3696
  141SAPE   C2815397  -0.049   5.187   9.869 -0.3182 -0.2594 -0.9774
  141SAPE   H8R15398   0.047   5.241   9.871 -0.2247 -0.4476  0.1345
  141SAPE   C2915399  -0.069   5.077   9.799 -0.0867 -0.6196 -0.5293
  141SAPE   H9R15400   0.018   5.043   9.740  0.5328 -1.6286  0.9250
  141SAPE  C21015401  -0.191   4.989   9.776  0.7814 -0.4178 -0.2848
  141SAPE  H10R15402  -0.263   5.004   9.859 -3.2613 -0.7423 -3.3677
  141SAPE  H10S15403  -0.164   4.882   9.769  2.0811 -0.1989  0.9416
  141SAPE  C21115404  -0.262   5.033   9.650 -0.3193 -0.1785  0.1331
  141SAPE  H11R15405  -0.271   5.142   9.637  1.9332  0.3399  2.0879
  141SAPE  C21215406  -0.305   4.959   9.545 -0.1023  0.0669 -0.5642
  141SAPE  H12R15407  -0.342   5.008   9.454  0.1406  1.7990  0.2337
  141SAPE  C21315408  -0.302   4.809   9.519  0.8268  0.1057 -0.4685
  141SAPE  H13R15409  -0.258   4.759   9.608  1.1607 -0.5816 -1.0024
  141SAPE  H13S15410  -0.224   4.792   9.441  1.7852 -2.1462  0.8773
  141SAPE  C21415411  -0.420   4.727   9.473 -0.5741  0.3032  0.1869
  141SAPE  H14R15412  -0.458   4.650   9.542  2.0606 -1.0974  0.2098
  141SAPE  C21515413  -0.483   4.734   9.356  0.4488 -0.6017  0.0262
  141SAPE  H15R15414  -0.557   4.656   9.330  1.4651 -1.4013 -0.5499
  141SAPE  C21615415  -0.448   4.814   9.232 -0.6296 -0.8072  0.2213
  141SAPE  H16R15416  -0.341   4.800   9.206 -0.0911  0.2940  1.7371
  141SAPE  H16S15417  -0.451   4.921   9.259  1.2682 -0.6973  0.1237
  141SAPE  C21715418  -0.528   4.783   9.106 -0.4534 -0.0283 -0.1891
  141SAPE  H17R15419  -0.505   4.676   9.089  0.5852 -0.1346  1.5985
  141SAPE  H17S15420  -0.499   4.852   9.025 -1.3040 -0.3733 -0.7947
  141SAPE  C21815421  -0.678   4.812   9.139 -0.1240 -0.4190  0.4509
  141SAPE  H18R15422  -0.684   4.922   9.153  1.3559 -0.3225  0.5163
  141SAPE  H18S15423  -0.716   4.755   9.227 -0.7560 -0.6070  0.0626
  141SAPE  C21915424  -0.764   4.762   9.027 -0.0026  0.2014 -0.0234
  141SAPE  H19R15425  -0.766   4.651   9.021 -1.5218  0.2490 -0.8938
  141SAPE  H19S15426  -0.724   4.789   8.926 -2.7699  0.4990 -1.1231
  141SAPE  C22015427  -0.907   4.813   9.035  0.9685  0.6406 -0.6826
  141SAPE  H20R15428  -0.958   4.765   9.121  0.9964 -3.5679 -2.7815
  141SAPE  H20S15429  -0.956   4.773   8.944  2.7801 -0.6014 -1.1498
  141SAPE  H20T15430  -0.918   4.924   9.038 -1.8692  0.4135 -0.3917
  141SAPE   C3315431   0.481   5.058   9.899 -0.3118  0.2724  0.5890
  141SAPE   H3X15432   0.505   4.952   9.922  1.0014  0.4770  0.2339
  141SAPE   H3Y15433   0.576   5.116   9.895  0.8985 -1.5786  1.0165
  141SAPE   C3415434   0.410   5.049   9.762  0.2159  0.0522  0.6380
  141SAPE   H4X15435   0.373   5.150   9.735 -2.5502 -0.5193  1.9014
  141SAPE   H4Y15436   0.319   4.986   9.763  0.3745 -0.1988 -0.2504
  141SAPE   C3515437   0.513   5.011   9.651 -0.4257  0.8705  0.5356
  141SAPE   H5X15438   0.559   4.915   9.683 -1.1468  0.2397 -0.2653
  141SAPE   H5Y15439   0.597   5.083   9.642  1.9116 -1.9293 -2.4416
  141SAPE   C3615440   0.447   4.997   9.516 -0.2200  0.2285 -0.1888
  141SAPE   H6X15441   0.399   5.095   9.496  0.2952  0.6218  0.4772
  141SAPE   H6Y15442   0.371   4.917   9.532  0.9321 -0.4499  2.3913
  141SAPE   C3715443   0.542   4.968   9.397 -0.4815 -0.4041 -0.3806
  141SAPE   H7X15444   0.582   4.865   9.406  1.7698  0.4446  0.0599
  141SAPE   H7Y15445   0.632   5.034   9.395  0.7359 -1.9861 -0.5048
  141SAPE   C3815446   0.466   4.987   9.259  0.2494 -0.3504 -1.5177
  141SAPE   H8X15447   0.413   5.084   9.261 -0.2898 -0.6017  1.2334
  141SAPE   H8Y15448   0.385   4.911   9.259  1.2371 -1.4325 -1.8503
  141SAPE   C3915449   0.550   4.956   9.136  0.0456 -0.2182 -0.3682
  141SAPE   H9X15450   0.631   4.884   9.161  0.3740 -0.2471 -1.4530
  141SAPE   H9Y15451   0.603   5.052   9.120 -1.5443  1.2510  2.4324
  141SAPE  C31015452   0.459   4.897   9.034 -0.1560  0.7520  0.4697
  141SAPE  H10X15453   0.381   4.966   8.996 -0.7567 -1.3309 -2.4575
  141SAPE  H10Y15454   0.419   4.803   9.078  1.4878 -0.0467  0.3235
  141SAPE  C31115455   0.531   4.838   8.908 -0.8461 -0.3686  0.0246
  141SAPE  H11X15456   0.608   4.762   8.934  0.6379  1.0889  0.1106
  141SAPE  H11Y15457   0.586   4.920   8.857 -2.4955  0.2554 -0.8162
  141SAPE  C31215458   0.443   4.791   8.794  0.1064  0.1271  0.3206
  141SAPE  H12X15459   0.518   4.760   8.719  0.6331  1.7498  0.1475
  141SAPE  H12Y15460   0.383   4.880   8.764  0.1659  0.3201  0.7531
  141SAPE  C31315461   0.349   4.672   8.827 -0.0457 -0.0088  0.1211
  141SAPE  H13X15462   0.293   4.712   8.914  0.2120  0.9363 -0.1247
  141SAPE  H13Y15463   0.406   4.584   8.864  0.1406 -0.4398 -1.1510
  141SAPE  C31415464   0.255   4.626   8.714 -0.2086  0.1304  0.7717
  141SAPE  H14X15465   0.186   4.708   8.685  2.8874  2.5386 -0.2564
  141SAPE  H14Y15466   0.190   4.542   8.748 -0.4924 -0.5310 -1.2857
  141SAPE  C31515467   0.333   4.569   8.596 -0.3633 -0.4223 -0.1670
  141SAPE  H15X15468   0.429   4.526   8.628 -0.0552  0.6778  0.4568
  141SAPE  H15Y15469   0.357   4.654   8.528 -1.8490  0.0167 -0.1962
  141SAPE  C31615470   0.254   4.470   8.509 -0.3544 -0.3788 -0.0792
  141SAPE  H16X15471   0.219   4.390   8.578  0.7074 -0.1234  0.7865
  141SAPE  H16Y15472   0.320   4.424   8.433 -0.3174 -1.6768  0.7110
  141SAPE  C31715473   0.139   4.541   8.439 -0.1453 -0.2939  0.2891
  141SAPE  H17X15474   0.180   4.607   8.360 -0.7158 -0.1521  0.1050
  141SAPE  H17Y15475   0.079   4.591   8.518  2.2056 -0.1910  2.1223
  141SAPE  C31815476   0.061   4.434   8.368 -0.5102 -0.0317 -0.5380
  141SAPE  H18X15477   0.023   4.353   8.435 -0.6053  1.1775  0.9195
  141SAPE  H18Y15478   0.133   4.395   8.294 -1.0443  1.8189 -2.1281
  141SAPE  H18Z15479  -0.019   4.479   8.306 -0.0498 -1.1835 -2.0167
  142SAPE     N15480   1.345   3.453  10.959  0.3060 -0.5925  0.0935
  142SAPE   HN115481   1.293   3.407  10.882  0.6007  0.6191 -0.8427
  142SAPE   HN215482   1.420   3.515  10.925  0.1004 -0.5937 -0.3755
  142SAPE   HN315483   1.392   3.369  10.999 -0.2395 -3.1399 -3.9825
  142SAPE   C1215484   1.249   3.514  11.065  0.4027 -0.5993  0.0957
  142SAPE  H12A15485   1.290   3.615  11.089  1.5677 -1.0931  0.2329
  142SAPE  H12B15486   1.245   3.446  11.152 -4.1277 -0.8107 -0.0326
  142SAPE   C1115487   1.113   3.530  10.997  0.2224 -0.3273  0.4233
  142SAPE  H11A15488   1.131   3.557  10.891 -2.0831 -0.8977 -0.1683
  142SAPE  H11B15489   1.070   3.618  11.051  0.6521 -1.8879  3.4901
  142SAPE     P15490   0.923   3.381  11.090 -0.1762 -0.2049 -0.2298
  142SAPE   O1315491   0.950   3.407  11.232 -0.5882 -0.0795  0.1301
  142SAPE   O1415492   0.811   3.454  11.034 -0.7033  0.0143  0.4180
  142SAPE   O1215493   1.052   3.404  11.003  0.4078  0.4274  0.5613
  142SAPE   O1115494   0.897   3.224  11.066 -0.1245 -0.0621 -0.6849
  142SAPE    C115495   0.994   3.137  11.007  0.6816  0.6778 -0.0210
  142SAPE    HA15496   1.094   3.153  11.053  2.1531 -2.2127 -1.9157
  142SAPE    HB15497   0.960   3.038  11.044 -0.2907  1.1662  0.4503
  142SAPE    C215498   1.007   3.139  10.854 -0.2731 -0.2297  0.1380
  142SAPE    HS15499   1.032   3.246  10.834 -0.3438 -0.0471  0.9944
  142SAPE   O2115500   0.884   3.099  10.786 -0.0360 -0.2578  0.2158
  142SAPE   C2115501   0.863   3.168  10.672  1.0780  0.3963  0.0684
  142SAPE   O2215502   0.932   3.253  10.629 -0.2422 -0.3687  0.2208
  142SAPE   C2215503   0.729   3.120  10.605 -0.0638  0.2465  0.2463
  142SAPE   H2R15504   0.663   3.088  10.688  1.2448 -0.9023  0.8703
  142SAPE   H2S15505   0.690   3.216  10.565 -2.3541 -0.5455  0.4607
  142SAPE    C315506   1.129   3.060  10.800  0.2444  0.8781  0.2567
  142SAPE    HX15507   1.121   2.950  10.811  0.1262  0.7924 -0.6074
  142SAPE    HY15508   1.213   3.098  10.862 -0.3136  3.0826 -0.2167
  142SAPE   O3115509   1.161   3.088  10.669 -0.1958  0.5587  0.4794
  142SAPE   C3115510   1.221   3.207  10.647  0.5799 -0.3342 -0.2933
  142SAPE   O3215511   1.263   3.287  10.733  0.2230 -0.2022 -0.0380
  142SAPE   C3215512   1.216   3.233  10.496 -0.4921  0.2527 -0.2600
  142SAPE   H2X15513   1.115   3.270  10.470 -0.5378  1.0227  0.9337
  142SAPE   H2Y15514   1.226   3.128  10.459 -1.3319 -0.3840  1.2167
  142SAPE   C2315515   0.733   3.013  10.488 -0.8985  0.3069  0.1991
  142SAPE   H3R15516   0.636   2.958  10.493  0.4457 -2.1846  0.4781
  142SAPE   H3S15517   0.812   2.938  10.505  0.7087  1.6174 -1.1495
  142SAPE   C2415518   0.744   3.082  10.351  0.4505 -0.1963  0.4361
  142SAPE   H4R15519   0.693   3.179  10.334  3.8656  1.4435 -1.4991
  142SAPE   H4S15520   0.706   3.011  10.275  0.5068 -0.9057  1.0536
  142SAPE   C2515521   0.882   3.109  10.305 -0.6038  0.1374 -0.9918
  142SAPE   H5R15522   0.929   3.188  10.365 -3.0595  0.1893  1.0203
  142SAPE   C2615523   0.960   3.051  10.203  0.2058  1.4036 -0.0021
  142SAPE   H6R15524   1.060   3.094  10.190  0.1221  2.0600  1.3121
  142SAPE   C2715525   0.905   2.951  10.104 -0.0986 -1.1620 -0.1923
  142SAPE   H7R15526   0.957   2.969  10.007  1.6848  0.9146  1.0646
  142SAPE   H7S15527   0.801   2.984  10.083 -0.2774 -2.5952 -1.8618
  142SAPE   C2815528   0.905   2.807  10.157 -0.3693 -0.0144 -0.2239
  142SAPE   H8R15529   0.963   2.795  10.250 -0.0648 -0.8838 -0.5153
  142SAPE   C2915530   0.843   2.710  10.089 -0.3774  0.9364 -0.4101
  142SAPE   H9R15531   0.857   2.612  10.136 -1.7467  1.2352  0.6935
  142SAPE  C21015532   0.772   2.713   9.951  0.4531  1.0909  0.2483
  142SAPE  H10R15533   0.765   2.819   9.919 -1.8266  0.6243 -0.9845
  142SAPE  H10S15534   0.663   2.692   9.946  0.7947 -0.7391 -0.3943
  142SAPE  C21115535   0.836   2.627   9.839  0.6811  0.7741  1.5223
  142SAPE  H11R15536   0.907   2.554   9.879  1.1747  0.0464 -0.5808
  142SAPE  C21215537   0.829   2.632   9.699 -0.2012 -0.2334 -0.2321
  142SAPE  H12R15538   0.893   2.570   9.635 -0.9830  1.1537 -2.4779
  142SAPE  C21315539   0.749   2.729   9.618 -0.6969 -0.6217 -0.3779
  142SAPE  H13R15540   0.675   2.787   9.678 -1.1050  0.5255 -1.9389
  142SAPE  H13S15541   0.681   2.668   9.555 -2.6906  0.2203  0.8703
  142SAPE  C21415542   0.831   2.834   9.555 -0.5766 -0.8225  0.2992
  142SAPE  H14R15543   0.885   2.898   9.628  2.9887 -2.9066 -0.2813
  142SAPE  C21515544   0.869   2.831   9.427  0.7103  0.8109  0.6683
  142SAPE  H15R15545   0.937   2.907   9.385  1.2054  0.0866  0.1359
  142SAPE  C21615546   0.839   2.726   9.328  0.0359  0.2889  0.1424
  142SAPE  H16R15547   0.837   2.756   9.221  2.8042 -1.4439 -0.5070
  142SAPE  H16S15548   0.742   2.677   9.350  0.3688 -0.6292 -0.3618
  142SAPE  C21715549   0.946   2.616   9.337 -0.2722  0.9336 -0.2890
  142SAPE  H17R15550   0.902   2.520   9.301  0.0287  0.5300  0.3972
  142SAPE  H17S15551   0.992   2.601   9.437  0.4631  0.4301 -0.6841
  142SAPE  C21815552   1.075   2.645   9.256 -0.4940 -0.1032  0.2229
  142SAPE  H18R15553   1.154   2.568   9.271  1.5480  2.3546  3.0865
  142SAPE  H18S15554   1.114   2.745   9.284 -0.5988  0.3599 -1.2241
  142SAPE  C21915555   1.065   2.639   9.100 -0.5122 -0.2176 -0.0635
  142SAPE  H19R15556   1.165   2.676   9.067 -0.2823 -0.0855  0.7441
  142SAPE  H19S15557   0.997   2.718   9.063 -0.4178 -0.5860 -1.0540
  142SAPE  C22015558   1.023   2.500   9.042  0.3886 -0.0458  0.0257
  142SAPE  H20R15559   1.069   2.411   9.090 -2.8250 -2.3796 -0.8598
  142SAPE  H20S15560   1.061   2.504   8.938  1.5277  1.5038  0.4695
  142SAPE  H20T15561   0.914   2.478   9.044  0.2989  0.2814 -0.9476
  142SAPE   C3315562   1.314   3.329  10.435  0.1240 -0.6296  0.1430
  142SAPE   H3X15563   1.413   3.298  10.474  0.5828 -1.4598 -1.5992
  142SAPE   H3Y15564   1.290   3.417  10.499 -1.6320  0.7763 -2.2632
  142SAPE   C3415565   1.316   3.339  10.276 -0.4081 -0.4459 -1.0855
  142SAPE   H4X15566   1.212   3.360  10.243 -1.6401 -4.2194 -0.1165
  142SAPE   H4Y15567   1.338   3.233  10.250  3.3076 -0.3331  0.9627
  142SAPE   C3515568   1.427   3.436  10.223  0.8459 -0.3433  0.4195
  142SAPE   H5X15569   1.498   3.450  10.307 -0.3104  0.0830  1.3709
  142SAPE   H5Y15570   1.391   3.540  10.206 -0.3872 -0.7976  0.0911
  142SAPE   C3615571   1.510   3.380  10.108 -0.2315  0.5207 -0.4429
  142SAPE   H6X15572   1.517   3.273  10.134  2.3886  0.6641 -0.2295
  142SAPE   H6Y15573   1.613   3.423  10.111  0.7887 -1.7532 -0.7770
  142SAPE   C3715574   1.454   3.395   9.970 -0.1450  0.6006  0.3955
  142SAPE   H7X15575   1.421   3.500   9.954 -0.1500  0.6249  0.5657
  142SAPE   H7Y15576   1.357   3.340   9.958 -1.0684  2.2920 -0.1907
  142SAPE   C3815577   1.546   3.348   9.852  0.4367 -0.4754 -0.1996
  142SAPE   H8X15578   1.576   3.241   9.857  0.3377 -0.4325  1.8489
  142SAPE   H8Y15579   1.640   3.408   9.854 -0.1800  0.7892 -3.1082
  142SAPE   C3915580   1.499   3.371   9.707 -0.1201  0.5050 -0.2967
  142SAPE   H9X15581   1.468   3.475   9.683 -0.0581  0.6644  0.2875
  142SAPE   H9Y15582   1.407   3.310   9.692  1.2219 -1.3197 -1.6523
  142SAPE  C31015583   1.609   3.324   9.614 -0.6225 -1.1673  0.2164
  142SAPE  H10X15584   1.644   3.220   9.622  0.2495 -0.9208 -0.3102
  142SAPE  H10Y15585   1.698   3.384   9.642 -1.8472  1.5603 -1.2874
  142SAPE  C31115586   1.578   3.353   9.466  0.2007 -0.0791  0.2026
  142SAPE  H11X15587   1.582   3.461   9.441  0.6525 -0.4026 -1.1716
  142SAPE  H11Y15588   1.474   3.317   9.449  0.7216 -1.1638 -0.7597
  142SAPE  C31215589   1.679   3.283   9.375  0.7665  0.1411  0.4723
  142SAPE  H12X15590   1.682   3.176   9.407 -0.5655  0.4284  1.6700
  142SAPE  H12Y15591   1.780   3.327   9.384  0.4749  1.2449 -1.1448
  142SAPE  C31315592   1.642   3.293   9.230  0.2078 -0.1652  0.2977
  142SAPE  H13X15593   1.636   3.401   9.206 -3.0637  0.1625  2.0815
  142SAPE  H13Y15594   1.535   3.266   9.215  0.3240 -0.9234  0.7730
  142SAPE  C31415595   1.747   3.226   9.135 -0.1222  0.8243  0.0216
  142SAPE  H14X15596   1.703   3.262   9.040  0.8536  1.7507 -0.0983
  142SAPE  H14Y15597   1.721   3.119   9.128  0.2959  0.6553  0.9102
  142SAPE  C31515598   1.893   3.260   9.153 -0.3835  0.0534  0.1762
  142SAPE  H15X15599   1.935   3.222   9.248 -0.3309  0.6811  0.4138
  142SAPE  H15Y15600   1.926   3.366   9.158 -0.2690 -0.0183  1.0123
  142SAPE  C31615601   1.968   3.215   9.029  0.4208  0.0412  0.6277
  142SAPE  H16X15602   1.914   3.266   8.947  1.4550  0.4900  0.2129
  142SAPE  H16Y15603   1.951   3.110   8.997  1.7694 -0.3288  1.0785
  142SAPE  C31715604   2.122   3.249   9.031  0.8700 -0.4071 -0.1388
  142SAPE  H17X15605   2.170   3.199   9.118  1.1315  0.4267  0.2120
  142SAPE  H17Y15606   2.129   3.358   9.054  2.4636 -0.6790  0.8949
  142SAPE  C31815607   2.208   3.207   8.915 -0.5909 -0.1360  0.0829
  142SAPE  H18X15608   2.311   3.237   8.943  0.4449 -1.7921 -1.7443
  142SAPE  H18Y15609   2.190   3.259   8.818  1.9381  1.7035  0.5136
  142SAPE  H18Z15610   2.220   3.100   8.890  0.4098 -0.3307  1.3425
  143SAPE     N15611   3.167   4.624  11.089  0.1333  0.2671 -0.2784
  143SAPE   HN115612   3.131   4.527  11.079 -1.3370  0.7305  0.2941
  143SAPE   HN215613   3.270   4.636  11.085  0.2676 -0.2073  1.1359
  143SAPE   HN315614   3.140   4.647  11.187  0.1647 -0.8964  0.0226
  143SAPE   C1215615   3.108   4.727  10.990 -0.3428 -0.0774 -0.3088
  143SAPE  H12A15616   3.137   4.690  10.890 -0.2019  0.3740 -0.4346
  143SAPE  H12B15617   3.138   4.833  11.002 -1.2266  0.0076  1.6643
  143SAPE   C1115618   2.956   4.709  10.995  0.2260  1.0725  0.5712
  143SAPE  H11A15619   2.912   4.765  10.910  1.0626  1.7775  0.5878
  143SAPE  H11B15620   2.909   4.760  11.081 -0.2740  1.2047  0.2250
  143SAPE     P15621   2.856   4.477  10.891  0.2218  0.3334  0.2561
  143SAPE   O1315622   2.947   4.370  10.851 -0.0859  0.9050  0.2213
  143SAPE   O1415623   2.725   4.435  10.945 -0.7918  0.6276  0.4432
  143SAPE   O1215624   2.921   4.574  11.003  0.0082  0.3590  0.2991
  143SAPE   O1115625   2.832   4.571  10.763  0.1540 -0.0460  0.2837
  143SAPE    C115626   2.904   4.555  10.641  0.1022  0.3654 -0.0367
  143SAPE    HA15627   3.014   4.569  10.654  0.7002 -0.2598 -3.4591
  143SAPE    HB15628   2.892   4.451  10.604 -1.7461  1.0213 -1.4536
  143SAPE    C215629   2.867   4.637  10.521 -0.2489 -0.1869  0.0462
  143SAPE    HS15630   2.862   4.745  10.545  0.2654 -0.0047 -0.6348
  143SAPE   O2115631   2.740   4.583  10.476  0.1180  0.0809  0.2926
  143SAPE   C2115632   2.663   4.680  10.430 -0.2912 -0.2800 -0.3450
  143SAPE   O2215633   2.711   4.786  10.394  0.4488 -0.1311 -0.7428
  143SAPE   C2215634   2.524   4.639  10.427  0.6003 -0.8185 -0.8665
  143SAPE   H2R15635   2.504   4.576  10.517  0.1472 -1.7962 -1.6393
  143SAPE   H2S15636   2.455   4.726  10.439 -1.0928 -2.2119  0.0702
  143SAPE    C315637   2.979   4.622  10.409 -0.4410  0.5144  0.1292
  143SAPE    HX15638   3.071   4.678  10.435  1.6269 -1.4343 -2.4613
  143SAPE    HY15639   2.936   4.669  10.318 -1.7863  0.4334  0.6980
  143SAPE   O3115640   3.009   4.481  10.384  0.0899  0.0072 -0.7655
  143SAPE   C3115641   3.110   4.467  10.303 -0.8286  0.0191  0.1982
  143SAPE   O3215642   3.183   4.556  10.269 -0.4494 -0.4378 -0.2754
  143SAPE   C3215643   3.133   4.329  10.262 -0.1585 -0.0310  0.1547
  143SAPE   H2X15644   3.104   4.268  10.350 -0.6243  2.9194  2.2129
  143SAPE   H2Y15645   3.242   4.318  10.243 -0.2093  1.6900 -1.5386
  143SAPE   C2315646   2.483   4.550  10.297  0.0826 -0.3475 -0.5034
  143SAPE   H3R15647   2.403   4.480  10.330 -0.6455  1.2412  1.3002
  143SAPE   H3S15648   2.575   4.497  10.267  0.7000 -0.4608  1.4578
  143SAPE   C2415649   2.429   4.635  10.180 -0.3013 -0.6677  0.1557
  143SAPE   H4R15650   2.431   4.574  10.087  0.1185  1.1136 -1.0682
  143SAPE   H4S15651   2.505   4.709  10.146 -2.7661  0.9379 -2.3067
  143SAPE   C2515652   2.293   4.694  10.212 -0.2090  0.2131  0.5511
  143SAPE   H5R15653   2.269   4.713  10.318 -1.8044 -0.1812  0.2850
  143SAPE   C2615654   2.197   4.707  10.121  0.4568  0.2332  0.3248
  143SAPE   H6R15655   2.105   4.758  10.154  0.2059 -0.8058  1.3200
  143SAPE   C2715656   2.203   4.671   9.974 -0.0688 -0.9207  0.3223
  143SAPE   H7R15657   2.288   4.603   9.950 -0.2673 -0.7124 -1.0096
  143SAPE   H7S15658   2.215   4.768   9.921  0.2997  0.0272  2.0583
  143SAPE   C2815659   2.077   4.597   9.929 -0.8627 -0.8952  0.4336
  143SAPE   H8R15660   2.000   4.581  10.006  0.2359  1.8048  2.2537
  143SAPE   C2915661   2.062   4.553   9.801  0.2990  0.1146 -0.4777
  143SAPE   H9R15662   1.975   4.487   9.792  2.0398 -2.4115  0.2618
  143SAPE  C21015663   2.163   4.556   9.686  0.0975  0.5392  0.4812
  143SAPE  H10R15664   2.201   4.451   9.688 -0.7051  0.2568  1.0774
  143SAPE  H10S15665   2.255   4.617   9.695  0.0983  0.9026 -1.4383
  143SAPE  C21115666   2.105   4.587   9.549  0.4158 -0.0613 -0.9942
  143SAPE  H11R15667   2.069   4.691   9.545  1.8434  0.7172  2.8486
  143SAPE  C21215668   2.091   4.515   9.439  0.6149 -0.3386  0.7420
  143SAPE  H12R15669   2.058   4.570   9.349  0.6611 -2.1340 -0.4292
  143SAPE  C21315670   2.120   4.367   9.424  0.3400  0.7307 -0.0984
  143SAPE  H13R15671   2.026   4.311   9.443 -0.6536  1.4504 -2.4579
  143SAPE  H13S15672   2.190   4.331   9.502 -0.7627  0.0150  0.5898
  143SAPE  C21415673   2.188   4.320   9.292  1.0425 -0.0364  0.1216
  143SAPE  H14R15674   2.283   4.370   9.266  1.4708 -1.2764 -0.7679
  143SAPE  C21515675   2.128   4.242   9.197 -0.0538 -0.1359  0.3442
  143SAPE  H15R15676   2.190   4.216   9.110 -1.8016  0.1444 -1.0530
  143SAPE  C21615677   1.993   4.176   9.203 -0.3413 -0.4707  0.3621
  143SAPE  H16R15678   1.950   4.182   9.305 -0.5110  0.2937  0.2536
  143SAPE  H16S15679   2.014   4.070   9.177 -0.4209 -0.0330 -1.6519
  143SAPE  C21715680   1.896   4.232   9.111  0.1358  0.2656  0.4605
  143SAPE  H17R15681   1.870   4.336   9.139 -1.3491  0.0816 -0.1482
  143SAPE  H17S15682   1.798   4.181   9.119  0.4514 -0.1915  1.6103
  143SAPE  C21815683   1.929   4.223   8.961  0.3743 -0.4920  0.1751
  143SAPE  H18R15684   1.946   4.118   8.928  2.6773  0.2945 -1.3977
  143SAPE  H18S15685   2.027   4.271   8.938 -0.8538  1.3191 -1.6817
  143SAPE  C21915686   1.827   4.298   8.863 -0.4493  0.2221 -0.3438
  143SAPE  H19R15687   1.882   4.297   8.766  3.9474  0.4214  1.8817
  143SAPE  H19S15688   1.806   4.404   8.889 -0.2023 -0.0333  0.9420
  143SAPE  C22015689   1.688   4.233   8.863 -0.0418  0.4398 -0.0772
  143SAPE  H20R15690   1.639   4.247   8.961  0.1190  0.0233  0.0640
  143SAPE  H20S15691   1.693   4.125   8.837 -2.1044  0.4239 -0.5885
  143SAPE  H20T15692   1.619   4.279   8.790  0.1510 -0.3759 -0.7958
  143SAPE   C3315693   3.052   4.286  10.135  0.7118  0.4242  0.3179
  143SAPE   H3X15694   2.943   4.288  10.160  0.6862  0.1040  0.2337
  143SAPE   H3Y15695   3.081   4.181  10.114  2.8045  0.9373  0.4290
  143SAPE   C3415696   3.068   4.367  10.014  0.0463 -0.3407 -0.0067
  143SAPE   H4X15697   3.176   4.363   9.988 -0.3872  0.9509 -2.3251
  143SAPE   H4Y15698   3.055   4.476  10.031  3.2769 -0.1399  2.2247
  143SAPE   C3515699   2.979   4.321   9.899 -0.4441 -0.2123 -0.8574
  143SAPE   H5X15700   2.882   4.371   9.920  0.6266  1.6026 -0.0104
  143SAPE   H5Y15701   2.968   4.211   9.888 -0.2158 -0.1601 -1.5985
  143SAPE   C3615702   3.038   4.359   9.763 -0.7379  0.4305 -0.2333
  143SAPE   H6X15703   3.082   4.269   9.716  2.0538  2.4380 -1.6963
  143SAPE   H6Y15704   3.115   4.435   9.788  0.5316 -0.4597 -1.3002
  143SAPE   C3715705   2.925   4.421   9.683  0.3239 -0.3196  0.2827
  143SAPE   H7X15706   2.893   4.513   9.737  0.8162  0.6440 -1.0178
  143SAPE   H7Y15707   2.832   4.360   9.679 -0.5811  1.0355 -0.7597
  143SAPE   C3815708   2.959   4.470   9.541 -0.2972  0.3171  0.1122
  143SAPE   H8X15709   3.042   4.540   9.563  0.7618 -1.1230  0.9088
  143SAPE   H8Y15710   2.872   4.520   9.495  0.2426  1.6573  0.5125
  143SAPE   C3915711   3.003   4.347   9.458  0.7291 -0.2628 -0.0418
  143SAPE   H9X15712   2.937   4.267   9.497  0.9602  0.5888  2.2152
  143SAPE   H9Y15713   3.109   4.316   9.465  1.4238  1.2469 -2.4644
  143SAPE  C31015714   2.969   4.359   9.311  1.0280 -0.0208 -0.4889
  143SAPE  H10X15715   2.860   4.379   9.316  1.2565  1.1870  0.0497
  143SAPE  H10Y15716   2.969   4.258   9.267 -1.0505 -0.1150 -0.3806
  143SAPE  C31115717   3.059   4.455   9.226 -0.4720  0.2556 -0.1522
  143SAPE  H11X15718   3.154   4.402   9.206  1.6633  4.4432 -2.5637
  143SAPE  H11Y15719   3.069   4.553   9.279 -0.8414  1.7379 -2.6521
  143SAPE  C31215720   3.002   4.498   9.094 -0.0096  0.6345  0.1447
  143SAPE  H12X15721   3.067   4.576   9.048 -0.4696  0.2671 -1.1496
  143SAPE  H12Y15722   2.906   4.546   9.121 -1.3920  0.1708 -3.4345
  143SAPE  C31315723   2.974   4.379   9.005 -0.3186 -0.4442 -0.6001
  143SAPE  H13X15724   2.907   4.309   9.059  0.8875 -2.3967 -1.5325
  143SAPE  H13Y15725   3.068   4.320   9.011 -0.4453 -0.5060  1.6790
  143SAPE  C31415726   2.919   4.411   8.869 -0.4327 -0.2214  0.1653
  143SAPE  H14X15727   2.991   4.485   8.829 -0.6555 -0.0797  0.0242
  143SAPE  H14Y15728   2.816   4.454   8.872 -0.3152  0.0105  1.7566
  143SAPE  C31515729   2.932   4.288   8.772  0.5721  0.0192  0.1118
  143SAPE  H15X15730   2.872   4.202   8.810  1.0893  0.6048  2.4108
  143SAPE  H15Y15731   3.040   4.264   8.759  0.7155  0.2796  0.8054
  143SAPE  C31615732   2.882   4.325   8.635 -0.0050 -0.0402  0.4942
  143SAPE  H16X15733   2.948   4.410   8.609 -0.6752  0.1052 -0.8055
  143SAPE  H16Y15734   2.771   4.339   8.631 -0.2480 -1.9250 -3.4341
  143SAPE  C31715735   2.903   4.212   8.531 -0.2928 -1.1683  0.3711
  143SAPE  H17X15736   2.820   4.139   8.541 -0.1795 -1.2298  0.8632
  143SAPE  H17Y15737   3.005   4.170   8.543  1.1711  1.1684 -2.6047
  143SAPE  C31815738   2.910   4.264   8.381 -0.6013  0.4658 -0.2800
  143SAPE  H18X15739   3.003   4.322   8.369 -0.8153  1.2971  1.6829
  143SAPE  H18Y15740   2.817   4.323   8.364 -0.1735  0.7463 -1.7960
  143SAPE  H18Z15741   2.932   4.179   8.313  0.6426  0.9472 -0.4927
  144SAPE     N15742   5.537   3.058  10.934 -0.2943 -0.3913  0.4306
  144SAPE   HN115743   5.598   2.977  10.955  0.8160  0.4909  0.6964
  144SAPE   HN215744   5.595   3.140  10.961  0.6278 -1.1741  0.8872
  144SAPE   HN315745   5.451   3.070  10.991 -0.0702 -0.7469  0.8460
  144SAPE   C1215746   5.485   3.055  10.789 -0.4696 -0.1501 -0.3240
  144SAPE  H12A15747   5.542   2.970  10.745 -1.5038 -0.4623 -1.0712
  144SAPE  H12B15748   5.501   3.159  10.753 -0.3645  0.3382  1.0457
  144SAPE   C1115749   5.335   3.047  10.783  0.3647 -0.3685  0.3987
  144SAPE  H11A15750   5.294   2.952  10.823 -0.0614  0.0932  1.0617
  144SAPE  H11B15751   5.300   3.056  10.678 -0.5641  1.9752  0.8607
  144SAPE     P15752   5.184   3.265  10.800  0.2945  0.4759 -0.0941
  144SAPE   O1315753   5.106   3.201  10.690  0.1975  0.6415  0.3989
  144SAPE   O1415754   5.108   3.327  10.913 -0.2284 -0.2912  0.4907
  144SAPE   O1215755   5.277   3.151  10.863 -0.4866 -0.5789 -0.0899
  144SAPE   O1115756   5.280   3.370  10.736  0.4707 -0.0074 -0.4734
  144SAPE    C115757   5.323   3.355  10.594 -0.8953 -0.5531  0.2972
  144SAPE    HA15758   5.434   3.350  10.595 -0.7955  0.5862 -1.3193
  144SAPE    HB15759   5.297   3.259  10.546 -0.7065 -0.1873 -0.5587
  144SAPE    C215760   5.276   3.478  10.504 -0.0393  0.6044  0.4856
  144SAPE    HS15761   5.359   3.552  10.510  1.8412 -1.4467  1.4762
  144SAPE   O2115762   5.145   3.521  10.540  0.4717 -0.0994 -0.1350
  144SAPE   C2115763   5.131   3.609  10.635  0.3091  0.7182  1.0197
  144SAPE   O2215764   5.223   3.669  10.689 -0.0945  0.0429  0.2128
  144SAPE   C2215765   4.986   3.628  10.682 -0.0862  0.3221  0.4799
  144SAPE   H2R15766   4.931   3.534  10.660 -0.7743  1.2494 -2.1344
  144SAPE   H2S15767   5.000   3.641  10.791  2.5206  0.8113  0.1654
  144SAPE    C315768   5.261   3.417  10.362 -0.7579 -0.7247 -0.0129
  144SAPE    HX15769   5.198   3.488  10.304 -1.4457 -0.7548  0.6685
  144SAPE    HY15770   5.208   3.321  10.381 -0.0276 -1.4188 -1.3667
  144SAPE   O3115771   5.383   3.381  10.293 -0.3169 -0.3205 -0.2512
  144SAPE   C3115772   5.428   3.457  10.190  0.4108  0.8646 -0.2290
  144SAPE   O3215773   5.370   3.555  10.150  0.3133 -0.1203 -0.5455
  144SAPE   C3215774   5.547   3.398  10.118 -0.4788 -0.2976  0.8910
  144SAPE   H2X15775   5.598   3.323  10.182 -0.5552 -1.6492 -0.5637
  144SAPE   H2Y15776   5.626   3.475  10.105 -2.8691  1.8766 -2.4332
  144SAPE   C2315777   4.902   3.741  10.612  0.0569 -0.0999  0.1097
  144SAPE   H3R15778   4.948   3.841  10.628  1.8106 -0.4764 -2.0665
  144SAPE   H3S15779   4.799   3.743  10.655  0.3503  0.4387  0.7997
  144SAPE   C2415780   4.873   3.702  10.466 -0.3872  0.3400 -0.1738
  144SAPE   H4R15781   4.790   3.771  10.440 -0.5231 -0.2882 -1.5241
  144SAPE   H4S15782   4.827   3.600  10.464  1.2558 -0.4347 -0.0690
  144SAPE   C2515783   4.979   3.714  10.362 -0.2413 -0.6197 -0.3949
  144SAPE   H5R15784   5.069   3.762  10.402 -0.5368 -1.0203  0.7828
  144SAPE   C2615785   4.969   3.664  10.241  0.1118 -0.1057  0.3199
  144SAPE   H6R15786   5.062   3.675  10.183 -1.9651 -1.1148 -3.5889
  144SAPE   C2715787   4.851   3.591  10.181 -0.2181  0.6741  0.4123
  144SAPE   H7R15788   4.835   3.650  10.089  1.0027  0.7441  0.2194
  144SAPE   H7S15789   4.758   3.596  10.242 -2.6097  0.1535 -2.9343
  144SAPE   C2815790   4.869   3.440  10.167  0.2408 -0.0074  0.2713
  144SAPE   H8R15791   4.914   3.393  10.255  0.0796  2.2055  1.6042
  144SAPE   C2915792   4.826   3.368  10.061  0.3413  0.2046  0.2155
  144SAPE   H9R15793   4.852   3.263  10.041  1.0819 -0.3156  3.3135
  144SAPE  C21015794   4.740   3.426   9.951 -0.4433  0.1726  0.1932
  144SAPE  H10R15795   4.798   3.451   9.860 -2.4305 -0.6200 -1.3528
  144SAPE  H10S15796   4.690   3.522   9.976  0.2929  0.8889 -1.0126
  144SAPE  C21115797   4.635   3.338   9.902  0.4251 -0.6741 -0.6792
  144SAPE  H11R15798   4.550   3.323   9.971 -0.3054 -1.9543 -1.8109
  144SAPE  C21215799   4.611   3.284   9.784  0.2547 -0.4423 -0.2998
  144SAPE  H12R15800   4.530   3.211   9.772  0.2278 -0.4238 -0.2310
  144SAPE  C21315801   4.692   3.295   9.658  0.3539  0.5473  0.1504
  144SAPE  H13R15802   4.708   3.190   9.625  1.3988  0.4031  1.0395
  144SAPE  H13S15803   4.799   3.325   9.671  0.5067  0.1755 -0.2151
  144SAPE  C21415804   4.633   3.375   9.541 -0.4753  0.4564 -0.4052
  144SAPE  H14R15805   4.648   3.484   9.541  1.9267  0.1860 -0.4336
  144SAPE  C21515806   4.566   3.317   9.434 -0.3866 -0.8039 -0.5089
  144SAPE  H15R15807   4.548   3.381   9.347 -0.6990  1.0030  0.8140
  144SAPE  C21615808   4.518   3.176   9.416  0.3303  0.4289 -0.3300
  144SAPE  H16R15809   4.407   3.173   9.408  0.3446  0.2791 -0.4841
  144SAPE  H16S15810   4.551   3.102   9.492  0.6844 -1.1319 -1.9213
  144SAPE  C21715811   4.591   3.108   9.302 -0.5241  0.0322  0.5731
  144SAPE  H17R15812   4.574   3.001   9.326  1.2058 -1.0534 -2.4768
  144SAPE  H17S15813   4.702   3.121   9.303 -0.5960  0.7935  0.1196
  144SAPE  C21815814   4.541   3.148   9.164  0.5834 -0.0765  0.7854
  144SAPE  H18R15815   4.545   3.259   9.154 -0.9909  0.1890  2.4991
  144SAPE  H18S15816   4.430   3.139   9.162  0.5801 -0.4121  1.8665
  144SAPE  C21915817   4.602   3.070   9.050  0.3183 -0.0282  0.3840
  144SAPE  H19R15818   4.569   2.964   9.058 -1.4993 -0.1606 -4.9717
  144SAPE  H19S15819   4.712   3.077   9.056  0.2675  4.4304 -0.6030
  144SAPE  C22015820   4.558   3.132   8.916 -0.1862 -0.7170 -0.3397
  144SAPE  H20R15821   4.588   3.239   8.914  1.5188 -1.1720 -0.7497
  144SAPE  H20S15822   4.447   3.132   8.907 -0.2158  0.1214 -0.1061
  144SAPE  H20T15823   4.616   3.074   8.842  2.6229 -1.6220  2.3534
  144SAPE   C3315824   5.512   3.331   9.985 -0.8167  0.8570  0.4296
  144SAPE   H3X15825   5.416   3.276   9.988 -1.4183  1.8939  0.5164
  144SAPE   H3Y15826   5.593   3.257   9.967 -1.0953  1.0064 -1.7659
  144SAPE   C3415827   5.523   3.435   9.875 -0.5956  0.0710 -0.5813
  144SAPE   H4X15828   5.618   3.494   9.875 -1.2347  1.1744 -2.0981
  144SAPE   H4Y15829   5.454   3.519   9.897 -0.1007  0.5409 -0.7868
  144SAPE   C3515830   5.491   3.383   9.736 -0.2758  0.2851 -0.5151
  144SAPE   H5X15831   5.387   3.345   9.746 -0.9137  1.5840 -1.8066
  144SAPE   H5Y15832   5.559   3.304   9.698  0.6180  0.9710 -0.3625
  144SAPE   C3615833   5.487   3.482   9.617  0.3986 -0.5678 -0.4652
  144SAPE   H6X15834   5.589   3.521   9.597  0.5440 -1.2775 -1.1496
  144SAPE   H6Y15835   5.415   3.561   9.649  2.2423  1.9248 -2.0599
  144SAPE   C3715836   5.445   3.414   9.489  0.2572 -0.0888 -0.7581
  144SAPE   H7X15837   5.334   3.404   9.499  0.0300  2.3006 -0.1068
  144SAPE   H7Y15838   5.483   3.311   9.475  1.0280 -0.0190  0.5830
  144SAPE   C3815839   5.463   3.493   9.356  0.5572  0.2122  0.0581
  144SAPE   H8X15840   5.571   3.518   9.341  0.8624 -0.1893  1.4007
  144SAPE   H8Y15841   5.411   3.590   9.369 -0.8714 -0.4967 -0.1640
  144SAPE   C3915842   5.413   3.416   9.237  0.6507  0.2585 -0.3626
  144SAPE   H9X15843   5.303   3.431   9.242  0.9175  3.2751 -1.5584
  144SAPE   H9Y15844   5.435   3.308   9.245 -0.0574  0.0208 -1.4601
  144SAPE  C31015845   5.482   3.478   9.117  0.2750 -0.5352  0.3843
  144SAPE  H10X15846   5.592   3.466   9.111  0.2678  0.0779 -1.6588
  144SAPE  H10Y15847   5.479   3.589   9.110 -2.6487 -0.5749 -0.4573
  144SAPE  C31115848   5.419   3.418   8.990  0.4503 -1.0708 -0.5126
  144SAPE  H11X15849   5.311   3.436   9.006  0.5750  0.6125 -1.4159
  144SAPE  H11Y15850   5.438   3.309   8.979 -1.6713 -1.2588 -3.5832
  144SAPE  C31215851   5.447   3.509   8.869  0.0442 -0.1725 -0.2724
  144SAPE  H12X15852   5.544   3.481   8.824  0.8103  1.4177  0.2870
  144SAPE  H12Y15853   5.452   3.615   8.902 -0.1007  0.1427 -1.2220
  144SAPE  C31315854   5.332   3.481   8.765  0.2426  0.0412 -0.5083
  144SAPE  H13X15855   5.239   3.538   8.785 -0.0554 -0.0492 -1.5814
  144SAPE  H13Y15856   5.310   3.372   8.768  1.5202 -0.2168  0.5170
  144SAPE  C31415857   5.367   3.508   8.620 -0.0487  0.1499 -0.0728
  144SAPE  H14X15858   5.455   3.447   8.590 -0.9643 -1.0573 -0.4057
  144SAPE  H14Y15859   5.401   3.614   8.618 -1.8528  0.7895  0.7249
  144SAPE  C31515860   5.270   3.477   8.512  0.8590  0.0680  0.5135
  144SAPE  H15X15861   5.170   3.520   8.536  1.3944  1.2596  0.6729
  144SAPE  H15Y15862   5.264   3.366   8.501  0.3231  0.0267  1.1376
  144SAPE  C31615863   5.325   3.538   8.382 -0.2550  0.0535 -0.5201
  144SAPE  H16X15864   5.435   3.517   8.381 -0.2999 -0.7414  2.3446
  144SAPE  H16Y15865   5.321   3.649   8.387  2.7948  0.2615 -0.4768
  144SAPE  C31715866   5.254   3.484   8.262  0.6570  0.7405  0.4915
  144SAPE  H17X15867   5.277   3.560   8.184 -1.5279  0.4109 -0.5564
  144SAPE  H17Y15868   5.145   3.484   8.284  0.2820 -0.9771 -1.0758
  144SAPE  C31815869   5.291   3.343   8.214  0.4233 -0.0042 -0.0244
  144SAPE  H18X15870   5.395   3.320   8.184  0.6171 -3.2435  2.4803
  144SAPE  H18Y15871   5.226   3.328   8.126  0.6325 -1.8752  0.0907
  144SAPE  H18Z15872   5.255   3.261   8.281 -0.7645 -1.4474 -2.2970
  145SAPE     N15873   1.885   3.803  11.089 -0.2509 -0.1893  0.6137
  145SAPE   HN115874   1.868   3.703  11.064 -1.6329  0.3564 -0.7823
  145SAPE   HN215875   1.828   3.862  11.026  1.1938  1.9079  1.1680
  145SAPE   HN315876   1.982   3.841  11.084  0.0331 -0.8447  0.9717
  145SAPE   C1215877   1.834   3.832  11.222 -0.3351  0.5428  0.0764
  145SAPE  H12A15878   1.915   3.821  11.298 -0.0619  1.2690 -0.1081
  145SAPE  H12B15879   1.768   3.751  11.262  2.3509 -1.8494 -0.0106
  145SAPE   C1115880   1.763   3.964  11.237  0.4023  0.0016 -0.3439
  145SAPE  H11A15881   1.699   3.982  11.326  1.1852  0.2087  0.1781
  145SAPE  H11B15882   1.692   3.966  11.151 -1.2217 -0.4894  0.9366
  145SAPE     P15883   1.819   4.222  11.232  0.1655 -0.4024  0.1569
  145SAPE   O1315884   1.729   4.241  11.346 -0.0777 -0.1747 -0.0735
  145SAPE   O1415885   1.941   4.307  11.230  0.7490  0.2735 -0.0925
  145SAPE   O1215886   1.852   4.071  11.223 -0.0170 -0.2870  0.3572
  145SAPE   O1115887   1.731   4.240  11.105  0.3787  0.1827  0.4789
  145SAPE    C115888   1.762   4.170  10.985 -0.5647  0.5503 -0.4564
  145SAPE    HA15889   1.844   4.096  10.996 -1.2377 -0.0936  0.3458
  145SAPE    HB15890   1.678   4.099  10.972 -0.3005 -0.2554  1.8858
  145SAPE    C215891   1.774   4.257  10.858 -0.3038  0.7290 -0.2550
  145SAPE    HS15892   1.852   4.332  10.879  0.8040 -0.3514 -0.3748
  145SAPE   O2115893   1.647   4.307  10.831 -0.3072 -0.1839 -0.0252
  145SAPE   C2115894   1.638   4.420  10.773  0.8081  0.2738  0.0423
  145SAPE   O2215895   1.724   4.506  10.761 -0.6713 -0.7591  0.2054
  145SAPE   C2215896   1.495   4.442  10.715 -0.9180 -1.0011 -0.6669
  145SAPE   H2R15897   1.422   4.436  10.799  0.7111  2.3890  1.1969
  145SAPE   H2S15898   1.489   4.548  10.680 -2.0130 -0.4537  1.0496
  145SAPE    C315899   1.817   4.170  10.734 -0.4126 -0.0078  0.2922
  145SAPE    HX15900   1.736   4.104  10.696 -0.2815  0.1278 -0.2305
  145SAPE    HY15901   1.903   4.109  10.768 -0.7360 -1.1099 -0.8140
  145SAPE   O3115902   1.850   4.250  10.627 -0.3895 -0.4576  0.9569
  145SAPE   C3115903   1.984   4.261  10.588  0.5592 -0.0632 -0.4263
  145SAPE   O3215904   2.069   4.179  10.605  0.0737  0.5236  0.0375
  145SAPE   C3215905   2.006   4.401  10.539  0.4875 -0.1084 -0.0561
  145SAPE   H2X15906   2.038   4.476  10.614 -0.6825  2.0980 -1.6574
  145SAPE   H2Y15907   1.912   4.448  10.504  0.4862  0.7171  0.9922
  145SAPE   C2315908   1.458   4.345  10.603 -0.0344  0.1293 -0.1183
  145SAPE   H3R15909   1.348   4.348  10.589  0.0289 -1.4591 -1.2148
  145SAPE   H3S15910   1.493   4.241  10.621 -0.1519  0.0485 -0.3648
  145SAPE   C2415911   1.523   4.379  10.468 -0.6594 -0.0500 -0.2743
  145SAPE   H4R15912   1.634   4.387  10.472 -0.7200  0.5290  0.5045
  145SAPE   H4S15913   1.490   4.485  10.463  0.0559  0.1439 -1.0025
  145SAPE   C2515914   1.455   4.306  10.354 -0.3208 -0.0324 -0.1445
  145SAPE   H5R15915   1.348   4.332  10.341 -0.6566 -1.7770 -1.1482
  145SAPE   C2615916   1.512   4.223  10.265  0.8929  0.3600  0.0898
  145SAPE   H6R15917   1.449   4.173  10.189 -0.4350  1.5037  0.3964
  145SAPE   C2715918   1.657   4.179  10.262  0.0926  0.2070  0.0449
  145SAPE   H7R15919   1.725   4.266  10.277  0.0410  0.5624 -1.6303
  145SAPE   H7S15920   1.670   4.141  10.159 -1.2047 -2.3302  0.7218
  145SAPE   C2815921   1.680   4.066  10.365  0.1635  0.0228 -0.4712
  145SAPE   H8R15922   1.657   4.099  10.467  2.5427  0.9282 -0.1492
  145SAPE   C2915923   1.747   3.948  10.341  0.7836 -0.1866 -0.7588
  145SAPE   H9R15924   1.757   3.876  10.423 -0.1944 -0.4928 -0.8968
  145SAPE  C21015925   1.797   3.895  10.210  0.5005 -0.5015  0.0944
  145SAPE  H10R15926   1.905   3.874  10.223  0.5040  0.6895  2.4965
  145SAPE  H10S15927   1.793   3.962  10.121  2.1188  0.2409  0.5505
  145SAPE  C21115928   1.707   3.779  10.161 -1.0183 -0.0832  0.3779
  145SAPE  H11R15929   1.602   3.792  10.191 -1.6141  2.1708 -2.1892
  145SAPE  C21215930   1.743   3.688  10.074 -1.1093  0.4982  0.0329
  145SAPE  H12R15931   1.665   3.619  10.037 -0.1863 -0.5355 -0.0428
  145SAPE  C21315932   1.881   3.662  10.011 -0.1818  0.1405  1.0139
  145SAPE  H13R15933   1.874   3.554   9.987 -1.0106  0.6797 -1.4937
  145SAPE  H13S15934   1.969   3.669  10.078  0.9993 -2.7564 -0.0657
  145SAPE  C21415935   1.915   3.733   9.879 -0.4781 -0.7662 -1.4870
  145SAPE  H14R15936   1.884   3.838   9.873  0.2527 -0.4223  0.1627
  145SAPE  C21515937   1.953   3.675   9.765 -0.1832  0.0411  0.1947
  145SAPE  H15R15938   1.961   3.736   9.674 -0.0849 -2.0010 -1.2262
  145SAPE  C21615939   1.964   3.522   9.745 -0.2045 -0.0803  1.0560
  145SAPE  H16R15940   1.877   3.475   9.794  0.3891 -1.2313  1.0391
  145SAPE  H16S15941   2.057   3.490   9.796  1.1229  0.6891 -0.7558
  145SAPE  C21715942   1.967   3.482   9.595 -0.7221  0.0794  0.0090
  145SAPE  H17R15943   1.897   3.534   9.527 -3.0428 -1.1329  1.3743
  145SAPE  H17S15944   1.941   3.374   9.588 -0.6002  0.1326 -2.3982
  145SAPE  C21815945   2.114   3.495   9.547  0.4489  0.0237 -1.0669
  145SAPE  H18R15946   2.189   3.437   9.605  1.1477 -0.0868 -2.0666
  145SAPE  H18S15947   2.146   3.600   9.536 -0.6318  0.1589 -3.4873
  145SAPE  C21915948   2.125   3.443   9.401  0.0553  0.2540  0.9391
  145SAPE  H19R15949   2.070   3.519   9.341 -2.0515 -1.9819 -0.1067
  145SAPE  H19S15950   2.079   3.343   9.387  0.0539  0.2593  0.9025
  145SAPE  C22015951   2.268   3.449   9.348 -0.4549 -0.1708 -0.2600
  145SAPE  H20R15952   2.344   3.409   9.418 -2.7393 -2.8265  0.8984
  145SAPE  H20S15953   2.304   3.550   9.321  1.4628 -0.3058  1.5622
  145SAPE  H20T15954   2.266   3.383   9.259  2.2012 -0.2453 -0.3321
  145SAPE   C3315955   2.107   4.401  10.423  0.0361 -0.2930 -0.0443
  145SAPE   H3X15956   2.206   4.366  10.461  1.2359  1.2087 -1.6179
  145SAPE   H3Y15957   2.112   4.507  10.389  2.3250 -0.2916  0.1294
  145SAPE   C3415958   2.058   4.326  10.297  0.2895  0.2349 -0.0779
  145SAPE   H4X15959   1.959   4.359  10.257  0.0420  1.8443  1.7258
  145SAPE   H4Y15960   2.034   4.220  10.323 -1.9568  1.1292  1.9142
  145SAPE   C3515961   2.161   4.305  10.189 -0.1234  0.0428  0.5514
  145SAPE   H5X15962   2.254   4.265  10.234 -0.5865 -2.5928 -0.6026
  145SAPE   H5Y15963   2.177   4.404  10.143  0.3733 -0.2383  0.1045
  145SAPE   C3615964   2.100   4.206  10.087 -0.4560 -0.6020  0.6007
  145SAPE   H6X15965   1.997   4.236  10.059 -0.0196 -1.3726 -2.2122
  145SAPE   H6Y15966   2.091   4.106  10.134 -1.8015  0.2609  2.2538
  145SAPE   C3715967   2.180   4.186   9.958  0.6680 -0.1859  0.5144
  145SAPE   H7X15968   2.283   4.151   9.979  0.6790 -0.7234 -0.4202
  145SAPE   H7Y15969   2.185   4.289   9.917  4.0176 -0.9666 -1.3477
  145SAPE   C3815970   2.112   4.092   9.859 -0.3816 -0.2759 -0.1152
  145SAPE   H8X15971   2.013   4.137   9.835 -0.5998  0.8078  2.4579
  145SAPE   H8Y15972   2.093   3.994   9.908  3.6571 -0.0823  2.2957
  145SAPE   C3915973   2.183   4.065   9.726  0.0316  0.2520  0.0355
  145SAPE   H9X15974   2.282   4.025   9.756 -0.0592 -1.9249 -2.1985
  145SAPE   H9Y15975   2.199   4.165   9.681 -3.2976  2.0955  2.4973
  145SAPE  C31015976   2.112   3.967   9.624  0.4857 -0.5308 -0.4146
  145SAPE  H10X15977   2.011   4.011   9.607  0.9866  0.6534 -0.4283
  145SAPE  H10Y15978   2.104   3.862   9.659 -2.2058  0.7046  3.2801
  145SAPE  C31115979   2.168   3.970   9.482  0.4367 -1.0896  0.6177
  145SAPE  H11X15980   2.276   3.948   9.489  0.5039 -1.2600 -0.7245
  145SAPE  H11Y15981   2.153   4.076   9.451  0.4947 -1.4029 -0.5288
  145SAPE  C31215982   2.114   3.871   9.380 -0.0373 -0.0227 -0.1401
  145SAPE  H12X15983   2.008   3.887   9.352 -0.5139 -3.8821 -1.1236
  145SAPE  H12Y15984   2.118   3.772   9.430  1.2091  0.9723  1.9088
  145SAPE  C31315985   2.195   3.873   9.249 -0.1950  0.6824 -0.0493
  145SAPE  H13X15986   2.294   3.830   9.275 -1.8392 -3.4606 -0.0004
  145SAPE  H13Y15987   2.206   3.972   9.199  1.7914 -0.3852 -1.8714
  145SAPE  C31415988   2.136   3.773   9.142 -0.1850 -0.1451 -0.0751
  145SAPE  H14X15989   2.159   3.671   9.180  0.7310  0.0251 -0.1484
  145SAPE  H14Y15990   2.175   3.778   9.038 -1.3232 -0.2924 -0.5275
  145SAPE  C31515991   1.985   3.783   9.116  0.3403  0.5074 -0.2911
  145SAPE  H15X15992   1.936   3.882   9.113 -0.5881  0.0552 -0.4298
  145SAPE  H15Y15993   1.938   3.727   9.199  1.3774  0.1667  0.0876
  145SAPE  C31615994   1.954   3.719   8.984  0.3371 -0.6327 -0.5960
  145SAPE  H16X15995   1.982   3.612   8.986 -1.5647 -1.2400  3.1802
  145SAPE  H16Y15996   2.013   3.760   8.899  2.4926 -3.5843 -0.6852
  145SAPE  C31715997   1.804   3.722   8.948  0.2106  0.2355  0.7132
  145SAPE  H17X15998   1.798   3.827   8.912  0.9269  0.1173  0.2149
  145SAPE  H17Y15999   1.746   3.700   9.040  1.8629 -0.5464  1.5984
  145SAPE  C31816000   1.768   3.626   8.836 -0.4760 -0.8815 -0.0034
  145SAPE  H18X16001   1.657   3.635   8.838 -0.5092 -1.3421  1.5572
  145SAPE  H18Y16002   1.785   3.517   8.848 -0.2971 -0.9733 -0.9653
  145SAPE  H18Z16003   1.811   3.665   8.741 -2.9010  2.6437  0.1564
  146SAPE     N16004   0.255   4.706  11.197 -0.0961 -0.6181 -0.2077
  146SAPE   HN116005   0.309   4.686  11.283 -0.0077 -1.4532 -0.4537
  146SAPE   HN216006   0.180   4.775  11.219 -1.0334 -0.4661 -3.3708
  146SAPE   HN316007   0.201   4.622  11.168 -0.3769 -0.5588  0.1304
  146SAPE   C1216008   0.323   4.765  11.082 -0.6381  0.4847  0.0114
  146SAPE  H12A16009   0.340   4.872  11.107 -0.5027  0.0737  1.8068
  146SAPE  H12B16010   0.261   4.750  10.991  1.4996 -1.9201 -1.1726
  146SAPE   C1116011   0.466   4.704  11.059  0.6813  0.2092 -0.2389
  146SAPE  H11A16012   0.526   4.703  11.153 -1.9878 -3.9249  1.7039
  146SAPE  H11B16013   0.515   4.768  10.983  0.0568  0.9561 -0.0284
  146SAPE     P16014   0.442   4.524  10.865  0.3356  0.1013 -0.4828
  146SAPE   O1316015   0.575   4.467  10.829 -0.5588  0.2858  0.7471
  146SAPE   O1416016   0.326   4.431  10.854  0.8970  0.0625 -0.2511
  146SAPE   O1216017   0.448   4.566  11.023 -0.2959 -0.4416 -0.1291
  146SAPE   O1116018   0.420   4.661  10.798 -0.4937  0.2089  0.1299
  146SAPE    C116019   0.299   4.705  10.732 -0.5837 -0.6468  0.4410
  146SAPE    HA16020   0.202   4.658  10.759 -1.7695  0.9484 -0.8574
  146SAPE    HB16021   0.283   4.814  10.743  0.2083  0.0720 -3.8130
  146SAPE    C216022   0.319   4.698  10.574 -0.1875  0.0271  0.1438
  146SAPE    HS16023   0.230   4.740  10.523  0.7598  0.6693 -1.0236
  146SAPE   O2116024   0.366   4.571  10.526  0.4708  0.1143 -0.0103
  146SAPE   C2116025   0.273   4.482  10.520  0.0048 -0.6121  0.8087
  146SAPE   O2216026   0.157   4.497  10.551  0.0159  0.3468 -0.0656
  146SAPE   C2216027   0.342   4.357  10.464 -0.6426 -0.8870 -0.4603
  146SAPE   H2R16028   0.451   4.366  10.481 -0.5944  1.4366 -1.5890
  146SAPE   H2S16029   0.306   4.282  10.538 -0.0623  0.5420  1.3526
  146SAPE    C316030   0.430   4.797  10.521  0.8929  0.2631 -0.2178
  146SAPE    HX16031   0.507   4.754  10.589 -0.4049 -1.5460  0.1841
  146SAPE    HY16032   0.396   4.900  10.544  0.9201 -0.2063  2.1616
  146SAPE   O3116033   0.458   4.780  10.378  0.2092  0.3711  0.0155
  146SAPE   C3116034   0.589   4.801  10.357  0.3896 -0.3859  0.1982
  146SAPE   O3216035   0.662   4.852  10.445  0.3420  0.0062  0.2848
  146SAPE   C3216036   0.636   4.768  10.214  0.7219  0.0868  0.0836
  146SAPE   H2X16037   0.739   4.728  10.226  0.6197  0.0124  0.7700
  146SAPE   H2Y16038   0.639   4.861  10.154  1.4458  0.5932  0.8803
  146SAPE   C2316039   0.313   4.314  10.324 -0.5666  0.0181  0.3516
  146SAPE   H3R16040   0.329   4.400  10.255 -0.9262 -0.1751  0.0239
  146SAPE   H3S16041   0.203   4.304  10.311 -0.4317 -0.6755 -0.3623
  146SAPE   C2416042   0.355   4.174  10.278 -0.3191  0.8575  0.6405
  146SAPE   H4R16043   0.267   4.132  10.223 -0.0987 -0.5025  1.2821
  146SAPE   H4S16044   0.370   4.110  10.367  0.2005 -0.0906 -0.1031
  146SAPE   C2516045   0.484   4.183  10.199  0.5585  0.4282  0.0349
  146SAPE   H5R16046   0.575   4.178  10.261 -0.6735 -0.2586  1.8568
  146SAPE   C2616047   0.496   4.188  10.067  0.3707  0.2115  0.4443
  146SAPE   H6R16048   0.601   4.185  10.034  0.4821  1.9974  0.5483
  146SAPE   C2716049   0.381   4.181   9.962 -0.6621  0.3423 -0.2575
  146SAPE   H7R16050   0.289   4.160  10.020  0.8179 -1.6228  1.5860
  146SAPE   H7S16051   0.395   4.093   9.895  0.0154 -0.0616  0.4047
  146SAPE   C2816052   0.366   4.306   9.876 -0.8614  0.2568 -1.2775
  146SAPE   H8R16053   0.382   4.390   9.945 -0.2034 -1.1479  0.3466
  146SAPE   C2916054   0.349   4.327   9.746 -0.4047  0.1204  0.2740
  146SAPE   H9R16055   0.332   4.429   9.709 -3.2375 -1.1465 -2.3990
  146SAPE  C21016056   0.325   4.213   9.649 -0.3078 -0.0948  0.0828
  146SAPE  H10R16057   0.238   4.243   9.587 -0.2169 -1.4197 -0.7181
  146SAPE  H10S16058   0.304   4.119   9.704 -2.0437 -0.6172 -1.3675
  146SAPE  C21116059   0.438   4.186   9.549 -0.2237 -0.5169 -0.5564
  146SAPE  H11R16060   0.535   4.232   9.576 -1.2820  0.7352  1.3220
  146SAPE  C21216061   0.435   4.106   9.439 -0.1109  0.3275  0.0428
  146SAPE  H12R16062   0.518   4.104   9.366 -1.9473 -3.8494 -2.2700
  146SAPE  C21316063   0.306   4.037   9.397 -0.2123 -0.0984  0.0126
  146SAPE  H13R16064   0.245   4.098   9.326 -1.3831 -1.1988  0.0459
  146SAPE  H13S16065   0.238   4.013   9.481 -3.4410  2.0471 -1.7481
  146SAPE  C21416066   0.336   3.905   9.336  0.2815 -0.1119  0.1358
  146SAPE  H14R16067   0.328   3.818   9.404  0.3737  0.4517  0.8810
  146SAPE  C21516068   0.381   3.880   9.208 -0.5926  0.1919  0.0969
  146SAPE  H15R16069   0.410   3.783   9.166  2.6249  0.8441  0.5660
  146SAPE  C21616070   0.400   3.994   9.109 -0.6973  1.0073 -0.2382
  146SAPE  H16R16071   0.403   4.089   9.165 -0.3015  1.1821 -0.5496
  146SAPE  H16S16072   0.311   4.002   9.043 -2.7583  2.2066  2.4984
  146SAPE  C21716073   0.529   3.981   9.021 -1.0845 -0.1964  0.1384
  146SAPE  H17R16074   0.513   3.883   8.971 -1.3201 -0.0378 -0.0952
  146SAPE  H17S16075   0.616   3.972   9.090 -2.7286 -1.0435  2.2204
  146SAPE  C21816076   0.558   4.101   8.931  1.2339  0.6291  0.0531
  146SAPE  H18R16077   0.663   4.078   8.902  0.4579 -2.5218 -0.6121
  146SAPE  H18S16078   0.560   4.202   8.978  1.8313  1.4553 -1.6409
  146SAPE  C21916079   0.458   4.101   8.813 -0.2886  0.1105  0.9546
  146SAPE  H19R16080   0.363   4.143   8.852  0.6489  2.4395  0.9175
  146SAPE  H19S16081   0.447   4.000   8.768  3.2093 -0.2847  0.6379
  146SAPE  C22016082   0.491   4.188   8.688 -0.7509 -0.0304  0.2812
  146SAPE  H20R16083   0.501   4.297   8.704 -0.8137  0.1300 -0.6778
  146SAPE  H20S16084   0.410   4.177   8.613 -0.7208  0.6595  0.1465
  146SAPE  H20T16085   0.585   4.149   8.643 -1.3317 -0.6891 -0.4056
  146SAPE   C3316086   0.541   4.659  10.142 -0.4858 -0.0300 -0.8522
  146SAPE   H3X16087   0.450   4.710  10.103 -1.4186  0.4386  1.7721
  146SAPE   H3Y16088   0.513   4.584  10.219  1.3734  0.9422  0.8856
  146SAPE   C3416089   0.623   4.584  10.036 -0.7399 -0.3477 -0.0133
  146SAPE   H4X16090   0.585   4.482  10.012  2.6141 -1.4088 -1.4499
  146SAPE   H4Y16091   0.720   4.562  10.087 -1.5634 -1.4523  1.1652
  146SAPE   C3516092   0.635   4.657   9.899 -0.3519 -0.1249 -0.1869
  146SAPE   H5X16093   0.721   4.728   9.902  2.6646 -3.3666 -1.4994
  146SAPE   H5Y16094   0.539   4.710   9.883  0.7131  1.0039 -4.0522
  146SAPE   C3616095   0.672   4.561   9.781  0.2818  0.1922 -0.3151
  146SAPE   H6X16096   0.595   4.482   9.768 -0.0371  0.2941  0.8472
  146SAPE   H6Y16097   0.777   4.527   9.790  0.3028 -0.1619 -1.7580
  146SAPE   C3716098   0.671   4.623   9.638 -0.1469  0.2238 -0.4123
  146SAPE   H7X16099   0.724   4.720   9.624 -1.6793  1.1551  0.0800
  146SAPE   H7Y16100   0.566   4.642   9.606 -0.5320 -0.5194  0.3852
  146SAPE   C3816101   0.727   4.529   9.530  0.4816  0.1662 -0.1959
  146SAPE   H8X16102   0.667   4.437   9.551 -0.8533  1.0961  0.2093
  146SAPE   H8Y16103   0.832   4.507   9.558  0.3808 -1.8340 -1.1594
  146SAPE   C3916104   0.707   4.574   9.390  0.0872  0.0405  0.1610
  146SAPE   H9X16105   0.766   4.668   9.388  0.6471 -0.1778  2.7367
  146SAPE   H9Y16106   0.601   4.601   9.373  0.1515  0.0655 -0.2281
  146SAPE  C31016107   0.755   4.474   9.293  0.9879 -0.1669  0.2597
  146SAPE  H10X16108   0.730   4.367   9.309 -1.5440  0.2105 -0.6820
  146SAPE  H10Y16109   0.864   4.494   9.283  1.0364 -0.7128 -0.3831
  146SAPE  C31116110   0.702   4.507   9.159  0.8068  0.6001 -0.3873
  146SAPE  H11X16111   0.722   4.615   9.140 -2.1107  1.0379 -1.5324
  146SAPE  H11Y16112   0.592   4.498   9.167  0.9779 -0.4630  1.0658
  146SAPE  C31216113   0.739   4.415   9.045  0.7228 -0.3512  0.3944
  146SAPE  H12X16114   0.656   4.441   8.976  1.5551 -0.8657 -0.8463
  146SAPE  H12Y16115   0.728   4.305   9.063 -1.3778 -0.6171 -1.8794
  146SAPE  C31316116   0.868   4.452   8.989 -0.2565  0.2713  1.8273
  146SAPE  H13X16117   0.945   4.398   9.048  1.2381 -0.2248 -0.4227
  146SAPE  H13Y16118   0.884   4.562   8.987  1.5756  0.0445  1.6742
  146SAPE  C31416119   0.889   4.406   8.842  0.5988 -0.5877  1.1300
  146SAPE  H14X16120   0.973   4.464   8.797  0.2746 -1.1292 -0.2208
  146SAPE  H14Y16121   0.799   4.434   8.782  0.7048 -0.1268  1.1812
  146SAPE  C31516122   0.914   4.258   8.828 -0.0054 -0.1738  0.1118
  146SAPE  H15X16123   0.816   4.211   8.851 -0.0794  0.0903  0.3476
  146SAPE  H15Y16124   0.981   4.221   8.908  0.2389 -0.4309 -0.2087
  146SAPE  C31616125   0.946   4.216   8.682  0.3086 -0.4815  0.4755
  146SAPE  H16X16126   0.981   4.291   8.608 -1.5854 -0.8140 -0.8219
  146SAPE  H16Y16127   0.847   4.198   8.636  0.5371  0.0283 -0.2291
  146SAPE  C31716128   1.031   4.088   8.687  0.6011 -0.3832 -0.0828
  146SAPE  H17X16129   1.034   4.043   8.585  2.7379 -0.0295 -0.2245
  146SAPE  H17Y16130   0.986   4.015   8.757 -0.0952  1.6001  1.6396
  146SAPE  C31816131   1.179   4.114   8.721 -0.4351  0.1349  0.5292
  146SAPE  H18X16132   1.202   4.127   8.829  1.2831  0.8243  0.0996
  146SAPE  H18Y16133   1.218   4.208   8.678 -0.6651 -0.3742 -0.8357
  146SAPE  H18Z16134   1.251   4.036   8.688  0.3142  1.9153 -2.4450
  147SAPE     N16135   6.212   0.248   6.274 -0.4480 -0.0359 -0.5750
  147SAPE   HN116136   6.271   0.174   6.231 -0.0416 -1.1321  1.7368
  147SAPE   HN216137   6.251   0.343   6.254 -0.7957  0.0514 -0.8605
  147SAPE   HN316138   6.214   0.224   6.375 -0.9485 -0.3962 -0.6471
  147SAPE   C1216139   6.065   0.231   6.252 -0.0609 -0.6189 -0.0942
  147SAPE  H12A16140   6.034   0.130   6.288  1.6977 -0.5382  1.8391
  147SAPE  H12B16141   6.043   0.252   6.145 -3.8472 -0.4767  0.5815
  147SAPE   C1116142   6.001   0.350   6.332 -0.3176  0.4043 -0.3280
  147SAPE  H11A16143   6.047   0.356   6.434 -0.0825 -0.5782 -0.3723
  147SAPE  H11B16144   5.892   0.351   6.349 -0.4663 -0.3343 -1.2108
  147SAPE     P16145   5.932   0.518   6.151  0.3533  0.4839  0.2023
  147SAPE   O1316146   5.989   0.638   6.094  0.5643 -0.4607 -0.5110
  147SAPE   O1416147   5.917   0.406   6.053  0.0336  0.0488 -0.5894
  147SAPE   O1216148   6.036   0.475   6.267 -0.2077 -0.0877 -0.5659
  147SAPE   O1116149   5.787   0.543   6.218  0.1243 -0.1937 -0.5864
  147SAPE    C116150   5.751   0.656   6.300  0.3463  0.0845  0.3442
  147SAPE    HA16151   5.806   0.747   6.269 -1.2521  2.1703  3.2176
  147SAPE    HB16152   5.643   0.680   6.286 -0.3192 -1.6212  2.0559
  147SAPE    C216153   5.762   0.638   6.456  1.1878 -0.2162  0.1171
  147SAPE    HS16154   5.868   0.619   6.479  0.4546 -3.1683  1.5904
  147SAPE   O2116155   5.679   0.522   6.493  0.0042 -0.0346 -1.0149
  147SAPE   C2116156   5.722   0.458   6.595  0.5420  0.2611  1.0284
  147SAPE   O2216157   5.827   0.470   6.651 -0.3849 -0.0541 -0.3018
  147SAPE   C2216158   5.613   0.366   6.640 -0.2256 -1.0414 -0.5218
  147SAPE   H2R16159   5.548   0.429   6.704  3.6958  0.5155  2.3832
  147SAPE   H2S16160   5.561   0.320   6.554 -2.9467  0.7933  0.0320
  147SAPE    C316161   5.725   0.777   6.523  0.9248 -0.7411 -0.3843
  147SAPE    HX16162   5.622   0.808   6.496  1.5893  1.3766 -0.6341
  147SAPE    HY16163   5.796   0.852   6.482 -0.1798  1.4072  1.4778
  147SAPE   O3116164   5.727   0.772   6.667 -0.5465  0.0602  0.1929
  147SAPE   C3116165   5.854   0.763   6.718 -0.1955  0.2650 -0.3134
  147SAPE   O3216166   5.959   0.776   6.664  0.4110  0.5742 -0.6900
  147SAPE   C3216167   5.839   0.720   6.864 -0.1647  0.5742  0.5872
  147SAPE   H2X16168   5.821   0.611   6.865 -0.8478  0.6199 -1.4739
  147SAPE   H2Y16169   5.751   0.770   6.910 -0.6459 -0.4000  0.7526
  147SAPE   C2316170   5.664   0.257   6.736 -0.2945 -0.0080 -0.1610
  147SAPE   H3R16171   5.707   0.316   6.820  1.3620 -1.0013 -0.2725
  147SAPE   H3S16172   5.745   0.192   6.696 -0.0533 -1.0794  1.9721
  147SAPE   C2416173   5.559   0.166   6.790  1.0117 -0.4086 -0.7298
  147SAPE   H4R16174   5.523   0.099   6.709 -1.1936 -0.5701  0.3103
  147SAPE   H4S16175   5.472   0.227   6.823 -0.3318 -0.6299 -3.5589
  147SAPE   C2516176   5.612   0.086   6.907 -0.8857 -0.1940 -0.2935
  147SAPE   H5R16177   5.663  -0.009   6.880  1.2230  1.4273 -2.5411
  147SAPE   C2616178   5.596   0.116   7.042  0.1832  0.3454  0.1012
  147SAPE   H6R16179   5.646   0.051   7.114 -0.6591  0.3524  0.7055
  147SAPE   C2716180   5.525   0.232   7.109 -0.0860 -0.5693  0.3694
  147SAPE   H7R16181   5.490   0.207   7.211  0.1023 -5.0969 -0.4659
  147SAPE   H7S16182   5.428   0.249   7.058  0.4943  1.5650 -0.1460
  147SAPE   C2816183   5.610   0.366   7.128  0.0557 -0.9309  0.3458
  147SAPE   H8R16184   5.596   0.444   7.052 -1.1179  0.2851  1.7435
  147SAPE   C2916185   5.669   0.401   7.246 -0.7993  0.1119  0.1574
  147SAPE   H9R16186   5.728   0.493   7.254 -0.0820 -0.4588  2.0958
  147SAPE  C21016187   5.678   0.318   7.374 -1.1469 -0.1998 -0.6534
  147SAPE  H10R16188   5.687   0.208   7.358  0.0805 -0.7217  2.6883
  147SAPE  H10S16189   5.578   0.333   7.420 -1.8564  1.5453 -2.6440
  147SAPE  C21116190   5.791   0.362   7.468  0.7898 -0.0958 -0.0860
  147SAPE  H11R16191   5.872   0.407   7.408  0.8766 -2.1945 -1.6539
  147SAPE  C21216192   5.781   0.373   7.601 -0.6380  1.4146  0.4661
  147SAPE  H12R16193   5.870   0.411   7.654 -0.9996  0.9773  1.4008
  147SAPE  C21316194   5.672   0.344   7.695 -0.1665 -0.0933  0.9681
  147SAPE  H13R16195   5.702   0.259   7.759 -1.3628 -0.0019  1.6795
  147SAPE  H13S16196   5.592   0.298   7.634  0.4238  2.1573 -1.7220
  147SAPE  C21416197   5.629   0.460   7.780  0.3381 -0.6037  0.0513
  147SAPE  H14R16198   5.565   0.530   7.725  0.4771 -0.6233 -0.1377
  147SAPE  C21516199   5.640   0.484   7.913  0.3686  0.0456  0.0549
  147SAPE  H15R16200   5.601   0.579   7.952 -0.9158 -0.6944  0.6052
  147SAPE  C21616201   5.705   0.394   8.022  0.2806  0.3132 -0.2746
  147SAPE  H16R16202   5.697   0.290   7.986 -1.4371  0.5221 -0.5700
  147SAPE  H16S16203   5.646   0.398   8.117  1.6450  2.0707  0.5782
  147SAPE  C21716204   5.854   0.431   8.060  0.6798  0.0393  0.1163
  147SAPE  H17R16205   5.866   0.534   8.101  1.3473  0.1213 -0.2733
  147SAPE  H17S16206   5.917   0.434   7.969  1.0331 -0.1813  0.3522
  147SAPE  C21816207   5.919   0.341   8.165 -0.2460 -0.4558 -0.4071
  147SAPE  H18R16208   5.916   0.242   8.116 -1.4112 -0.3369 -0.6009
  147SAPE  H18S16209   5.863   0.333   8.261  2.2717  1.6314  1.3896
  147SAPE  C21916210   6.064   0.383   8.209 -0.0728  0.2888 -0.3875
  147SAPE  H19R16211   6.048   0.465   8.283 -2.2971  2.0014 -2.5712
  147SAPE  H19S16212   6.120   0.414   8.118  0.6004  0.8863  0.2240
  147SAPE  C22016213   6.139   0.263   8.274  0.1406  0.0783  0.5605
  147SAPE  H20R16214   6.171   0.179   8.209  1.3962  0.6535  0.4131
  147SAPE  H20S16215   6.070   0.230   8.355  1.1547  0.0171  1.4252
  147SAPE  H20T16216   6.226   0.302   8.332  0.0985  0.0762  0.6249
  147SAPE   C3316217   5.974   0.749   6.933  0.5969 -0.9347  0.2949
  147SAPE   H3X16218   5.986   0.859   6.918  0.9736 -0.8436  1.1722
  147SAPE   H3Y16219   6.067   0.701   6.895  0.5824 -0.0957 -0.8439
  147SAPE   C3416220   5.988   0.716   7.081  0.2881  0.5066 -0.7404
  147SAPE   H4X16221   6.093   0.733   7.114 -0.7068  2.8740  1.5597
  147SAPE   H4Y16222   5.967   0.607   7.088  0.9835  0.2908 -1.7464
  147SAPE   C3516223   5.898   0.797   7.184 -0.0947  0.0292  0.1830
  147SAPE   H5X16224   5.798   0.838   7.159 -1.0340 -2.1294  0.1472
  147SAPE   H5Y16225   5.948   0.896   7.197 -2.0931  1.3545 -1.5671
  147SAPE   C3616226   5.897   0.731   7.329  0.0435 -0.4127 -0.8383
  147SAPE   H6X16227   6.001   0.696   7.348 -0.0533  0.0262  0.6488
  147SAPE   H6Y16228   5.827   0.646   7.344  1.0031 -0.7731  2.2302
  147SAPE   C3716229   5.846   0.822   7.451  0.3473 -0.0109  0.1436
  147SAPE   H7X16230   5.754   0.877   7.422  1.7202  2.2486 -0.1315
  147SAPE   H7Y16231   5.917   0.907   7.449  0.4318 -0.0704  0.6626
  147SAPE   C3816232   5.844   0.756   7.582 -0.1780 -0.0422 -1.0508
  147SAPE   H8X16233   5.869   0.649   7.568  0.6782  0.1541 -1.0572
  147SAPE   H8Y16234   5.739   0.768   7.617  0.5859  0.1701  1.4218
  147SAPE   C3916235   5.930   0.824   7.691  0.9376  0.0960  0.6440
  147SAPE   H9X16236   5.906   0.932   7.698  1.7700  0.2836  0.6804
  147SAPE   H9Y16237   6.036   0.835   7.660  0.7721 -0.1714 -0.0295
  147SAPE  C31016238   5.915   0.749   7.825  0.0019  0.0091  0.0777
  147SAPE  H10X16239   5.963   0.649   7.821  0.6535  0.3403 -0.7986
  147SAPE  H10Y16240   5.806   0.732   7.823  0.1967 -1.8070  1.9327
  147SAPE  C31116241   5.953   0.821   7.950 -0.5317  1.0407 -0.6613
  147SAPE  H11X16242   6.062   0.833   7.965 -0.3629 -1.0884  0.1720
  147SAPE  H11Y16243   5.935   0.752   8.035  0.1254 -2.6036 -3.1909
  147SAPE  C31216244   5.882   0.954   7.983 -0.2338 -0.3271 -0.7463
  147SAPE  H12X16245   5.781   0.947   7.938 -1.2012 -1.7410  1.4797
  147SAPE  H12Y16246   5.949   1.029   7.937 -1.5206  1.7837  0.6599
  147SAPE  C31316247   5.882   0.983   8.135 -0.0846 -0.3101  0.4032
  147SAPE  H13X16248   5.973   1.038   8.168 -0.9800  1.5241 -0.0280
  147SAPE  H13Y16249   5.880   0.886   8.189 -0.2722 -0.1529  0.6804
  147SAPE  C31416250   5.763   1.067   8.177  0.3040 -0.6615 -0.0054
  147SAPE  H14X16251   5.671   1.018   8.139  0.2953 -1.1101  0.5795
  147SAPE  H14Y16252   5.778   1.165   8.128  0.9906 -0.5073  0.4895
  147SAPE  C31516253   5.737   1.093   8.324  0.5050 -0.2246 -0.3951
  147SAPE  H15X16254   5.754   0.992   8.367  0.0750 -1.6673 -3.3541
  147SAPE  H15Y16255   5.635   1.136   8.338  0.4133 -0.7027  0.4934
  147SAPE  C31616256   5.826   1.191   8.395  0.5531 -0.2116 -0.8603
  147SAPE  H16X16257   5.832   1.285   8.336  0.8372  0.3845  0.0853
  147SAPE  H16Y16258   5.928   1.148   8.400  1.1659  0.9057 -2.6636
  147SAPE  C31716259   5.768   1.232   8.536  0.0732  0.2237  0.5281
  147SAPE  H17X16260   5.686   1.308   8.536  2.5982  3.2219 -1.5629
  147SAPE  H17Y16261   5.852   1.297   8.568 -0.4431  1.6604 -0.8911
  147SAPE  C31816262   5.737   1.115   8.634 -0.4651  0.4292  0.1690
  147SAPE  H18X16263   5.820   1.041   8.635  1.4748  2.4807 -0.0485
  147SAPE  H18Y16264   5.653   1.053   8.597  0.4787 -1.3838  0.9299
  147SAPE  H18Z16265   5.712   1.143   8.739  0.7988  0.3105  0.5230
  148SAPE     N16266   4.729   4.107   6.372 -0.7072 -0.1406  0.3538
  148SAPE   HN116267   4.809   4.042   6.376 -2.2517 -2.3070 -1.3968
  148SAPE   HN216268   4.648   4.050   6.341 -0.5841 -0.3682  0.4471
  148SAPE   HN316269   4.744   4.191   6.312 -1.7893 -0.3655 -0.2605
  148SAPE   C1216270   4.721   4.153   6.517  0.4303  0.7026  0.3852
  148SAPE  H12A16271   4.657   4.244   6.515 -0.7744 -0.1347 -0.8330
  148SAPE  H12B16272   4.823   4.188   6.543  1.5448 -0.7864 -1.6979
  148SAPE   C1116273   4.667   4.040   6.601  0.3833  0.7957 -0.5692
  148SAPE  H11A16274   4.651   4.069   6.707 -2.5258 -0.5672 -0.5422
  148SAPE  H11B16275   4.742   3.959   6.595  0.4952  0.7200  1.3518
  148SAPE     P16276   4.406   4.012   6.602 -0.0541 -0.3279  0.5156
  148SAPE   O1316277   4.340   4.124   6.533 -0.6244 -0.4611 -0.6882
  148SAPE   O1416278   4.341   3.881   6.605 -0.2370  0.1202 -0.8054
  148SAPE   O1216279   4.543   3.993   6.535 -0.2442 -0.4165  0.1153
  148SAPE   O1116280   4.437   4.050   6.750  0.1018 -0.4781  0.7609
  148SAPE    C116281   4.368   4.145   6.823  0.2838 -0.1566  0.2394
  148SAPE    HA16282   4.425   4.177   6.912 -1.4908  2.6704  0.4762
  148SAPE    HB16283   4.354   4.239   6.766  2.6671  0.7304  1.0280
  148SAPE    C216284   4.233   4.094   6.873  0.5301 -0.0856  0.0546
  148SAPE    HS16285   4.188   4.040   6.787  1.6972 -1.3832  0.2306
  148SAPE   O2116286   4.156   4.205   6.916  0.3810 -0.3875  0.0234
  148SAPE   C2116287   4.028   4.181   6.931 -0.4884 -0.0169 -0.1835
  148SAPE   O2216288   3.973   4.074   6.912 -0.5986 -0.3965 -0.0904
  148SAPE   C2216289   3.969   4.313   6.979 -0.1581 -0.0353 -0.0310
  148SAPE   H2R16290   4.046   4.361   7.042  1.1431 -0.5213 -1.2126
  148SAPE   H2S16291   3.963   4.376   6.887  0.2175 -1.0009 -0.7372
  148SAPE    C316292   4.239   3.982   6.981  0.0658  0.0073 -0.1287
  148SAPE    HX16293   4.325   3.914   6.959  1.4931  0.1869  4.0770
  148SAPE    HY16294   4.151   3.915   6.981  0.4027 -0.4804  1.5779
  148SAPE   O3116295   4.274   4.032   7.114  0.2316 -0.5592  0.8308
  148SAPE   C3116296   4.287   3.935   7.205 -0.2620  0.3233  0.4463
  148SAPE   O3216297   4.267   3.817   7.182 -0.0191  0.1969 -0.1942
  148SAPE   C3216298   4.312   3.992   7.342  0.6898  0.6695  0.2788
  148SAPE   H2X16299   4.238   4.075   7.354  0.8666  0.6294  1.7205
  148SAPE   H2Y16300   4.415   4.028   7.357  0.0712  1.4081  3.3234
  148SAPE   C2316301   3.842   4.310   7.080 -0.4346  0.6520  0.1973
  148SAPE   H3R16302   3.766   4.244   7.034  0.2137  1.2467 -1.8190
  148SAPE   H3S16303   3.799   4.411   7.091 -1.8473  0.2656 -1.4109
  148SAPE   C2416304   3.880   4.246   7.217 -0.0466  0.1884  0.1551
  148SAPE   H4R16305   3.942   4.156   7.198 -0.6688 -0.3361  0.5933
  148SAPE   H4S16306   3.789   4.212   7.270 -0.3118  0.8432  0.1251
  148SAPE   C2516307   3.960   4.328   7.315 -0.0527 -0.6854  0.0723
  148SAPE   H5R16308   4.057   4.366   7.281 -0.1013 -0.9171 -0.3331
  148SAPE   C2616309   3.945   4.335   7.448 -0.1545  0.0333 -0.3389
  148SAPE   H6R16310   4.016   4.401   7.500  0.0616 -1.7380  1.7517
  148SAPE   C2716311   3.841   4.267   7.538 -0.1143  0.3147 -0.7853
  148SAPE   H7R16312   3.791   4.181   7.489 -0.2350 -0.1391  0.1165
  148SAPE   H7S16313   3.765   4.345   7.561  1.3047  2.0195 -1.5937
  148SAPE   C2816314   3.916   4.207   7.652 -0.6677  0.3571  0.1747
  148SAPE   H8R16315   4.011   4.155   7.631 -0.4828  0.5334  0.5602
  148SAPE   C2916316   3.865   4.189   7.776  0.0580 -0.5583  0.0832
  148SAPE   H9R16317   3.920   4.130   7.851  0.2203  0.2567  0.6149
  148SAPE  C21016318   3.724   4.224   7.831 -0.0789 -0.1532  0.0024
  148SAPE  H10R16319   3.700   4.317   7.777  2.6442  1.5653  1.4817
  148SAPE  H10S16320   3.730   4.262   7.935  2.0686 -1.0050  0.2587
  148SAPE  C21116321   3.638   4.106   7.795  1.3829  0.0039  0.5044
  148SAPE  H11R16322   3.662   4.053   7.702 -0.5837  0.1039 -0.1041
  148SAPE  C21216323   3.522   4.085   7.862 -0.0171 -0.1421  0.1205
  148SAPE  H12R16324   3.468   3.995   7.829 -1.6574  0.3945  1.2164
  148SAPE  C21316325   3.465   4.149   7.985  0.7001 -0.9195  0.1095
  148SAPE  H13R16326   3.497   4.251   8.014  0.0234 -1.3909  2.8196
  148SAPE  H13S16327   3.492   4.091   8.076  0.6286  1.4199  1.7300
  148SAPE  C21416328   3.311   4.157   7.977  0.6279  0.3877  0.0940
  148SAPE  H14R16329   3.270   4.089   7.900  0.9010 -0.4285  0.6512
  148SAPE  C21516330   3.231   4.238   8.053 -1.2421  0.3656 -0.3449
  148SAPE  H15R16331   3.124   4.236   8.027 -1.2027 -1.1836 -0.4963
  148SAPE  C21616332   3.273   4.330   8.161  0.2855  0.2316 -0.5314
  148SAPE  H16R16333   3.381   4.332   8.187 -0.2747  1.0294  2.0508
  148SAPE  H16S16334   3.225   4.299   8.257  0.8008 -0.4014 -0.4693
  148SAPE  C21716335   3.233   4.474   8.125  1.2064 -0.0491  0.3470
  148SAPE  H17R16336   3.127   4.476   8.090  1.8266  0.9586 -1.5670
  148SAPE  H17S16337   3.296   4.517   8.045  0.4775  0.9763  0.3120
  148SAPE  C21816338   3.240   4.576   8.241  0.7139 -0.6801  0.1624
  148SAPE  H18R16339   3.323   4.564   8.314  1.6095 -0.0956 -0.7346
  148SAPE  H18S16340   3.143   4.558   8.293  0.3488  0.6691 -0.0135
  148SAPE  C21916341   3.243   4.724   8.186 -0.0528 -0.6327  0.3933
  148SAPE  H19R16342   3.151   4.744   8.126 -0.8109  2.5485  2.3403
  148SAPE  H19S16343   3.341   4.729   8.134  1.9354  3.3744  3.9488
  148SAPE  C22016344   3.251   4.836   8.290 -0.3960  0.5070  0.2104
  148SAPE  H20R16345   3.336   4.819   8.359  1.2226  1.0229 -1.5602
  148SAPE  H20S16346   3.157   4.842   8.348 -0.7733  1.6860 -0.4685
  148SAPE  H20T16347   3.279   4.938   8.253  0.4894  0.9910  2.1153
  148SAPE   C3316348   4.282   3.884   7.453 -0.7148 -0.3965 -0.3283
  148SAPE   H3X16349   4.339   3.790   7.437 -3.1450 -1.6831 -2.0765
  148SAPE   H3Y16350   4.178   3.843   7.449  0.0893 -2.6740  0.5126
  148SAPE   C3416351   4.284   3.928   7.601  0.7950 -0.1318 -0.7750
  148SAPE   H4X16352   4.223   4.019   7.620  1.2713 -0.0501  0.4071
  148SAPE   H4Y16353   4.388   3.950   7.633 -0.4804  0.7981  3.2094
  148SAPE   C3516354   4.240   3.808   7.686  0.4241 -0.5777  0.0618
  148SAPE   H5X16355   4.313   3.728   7.661  1.5230  0.7944 -1.3335
  148SAPE   H5Y16356   4.136   3.785   7.655 -0.1374  1.2415  0.4954
  148SAPE   C3616357   4.247   3.845   7.833 -0.0760 -0.1037  0.4235
  148SAPE   H6X16358   4.171   3.926   7.840 -1.2616 -0.8466 -2.2689
  148SAPE   H6Y16359   4.342   3.890   7.868 -0.7816  1.4418  0.4578
  148SAPE   C3716360   4.228   3.728   7.922 -0.9716  0.5450 -0.1290
  148SAPE   H7X16361   4.317   3.666   7.899 -0.8296  0.2887  1.0175
  148SAPE   H7Y16362   4.137   3.671   7.894 -1.2399  1.1200 -0.4344
  148SAPE   C3816363   4.224   3.773   8.074 -0.7117  0.2343 -0.1287
  148SAPE   H8X16364   4.330   3.790   8.103 -0.2682  0.3554 -1.7229
  148SAPE   H8Y16365   4.193   3.686   8.135  1.1452  0.7454  1.6419
  148SAPE   C3916366   4.123   3.883   8.107  0.4521 -0.0531 -0.0352
  148SAPE   H9X16367   4.151   3.984   8.071 -1.7574  0.1727 -1.2354
  148SAPE   H9Y16368   4.121   3.888   8.218  3.1919 -0.6447  0.1242
  148SAPE  C31016369   3.981   3.855   8.055 -0.0444  0.2848  0.3960
  148SAPE  H10X16370   3.936   3.759   8.089 -1.1492  0.1177 -1.4130
  148SAPE  H10Y16371   3.982   3.857   7.944  1.8684  2.7619  0.3943
  148SAPE  C31116372   3.885   3.963   8.111  0.2425 -0.2687 -0.4569
  148SAPE  H11X16373   3.791   3.947   8.054 -2.2257  1.8656  2.5900
  148SAPE  H11Y16374   3.922   4.065   8.087  0.4626 -0.9732 -3.4859
  148SAPE  C31216375   3.861   3.939   8.260  0.0871 -0.5883  0.0231
  148SAPE  H12X16376   3.948   3.964   8.325  1.3976  0.7028 -2.1078
  148SAPE  H12Y16377   3.838   3.831   8.266 -3.1870  0.0337  0.5642
  148SAPE  C31316378   3.733   4.001   8.319  0.3485 -0.0367  0.2464
  148SAPE  H13X16379   3.643   3.974   8.260 -1.1909 -0.7348  2.7240
  148SAPE  H13Y16380   3.740   4.112   8.307  1.9720 -0.1854 -0.4256
  148SAPE  C31416381   3.700   3.968   8.459  0.7498  0.1397 -0.1102
  148SAPE  H14X16382   3.647   3.872   8.471 -1.0053  1.1222  0.4631
  148SAPE  H14Y16383   3.620   4.037   8.495 -0.4996 -1.4236  0.1998
  148SAPE  C31516384   3.808   3.984   8.570  0.2286 -0.1665  0.3645
  148SAPE  H15X16385   3.840   4.091   8.576 -1.2401  0.4656 -1.7400
  148SAPE  H15Y16386   3.890   3.917   8.538  0.5850 -0.1832  1.2890
  148SAPE  C31616387   3.754   3.950   8.704 -0.6065  0.4943  0.0042
  148SAPE  H16X16388   3.706   3.851   8.715 -1.7648  0.8249 -1.5603
  148SAPE  H16Y16389   3.683   4.029   8.736 -1.1020  0.6465 -1.4088
  148SAPE  C31716390   3.870   3.957   8.813  0.9678  0.2568 -0.2687
  148SAPE  H17X16391   3.831   3.951   8.917 -0.0523 -0.7517 -0.6775
  148SAPE  H17Y16392   3.920   4.056   8.810  3.6071 -0.9842 -0.1469
  148SAPE  C31816393   3.975   3.844   8.787  0.1374 -0.0563 -0.5484
  148SAPE  H18X16394   4.034   3.871   8.696 -3.6268  3.4961 -2.3019
  148SAPE  H18Y16395   3.922   3.747   8.786 -0.9836  0.5387  0.1551
  148SAPE  H18Z16396   4.049   3.843   8.870 -1.4885 -1.5576  0.9511
  149SAPE     N16397   4.125   4.610   6.477 -0.2123 -0.3574  0.4432
  149SAPE   HN116398   4.176   4.522   6.499 -0.8989 -0.5974  1.1219
  149SAPE   HN216399   4.191   4.689   6.489  0.6443 -1.1211  0.9159
  149SAPE   HN316400   4.047   4.606   6.546  0.9980 -1.8059  1.8052
  149SAPE   C1216401   4.089   4.596   6.330 -0.1544  0.5451  0.2113
  149SAPE  H12A16402   4.034   4.500   6.320 -2.9496  1.8299  1.9487
  149SAPE  H12B16403   4.189   4.590   6.281  0.4762  1.5430  1.3192
  149SAPE   C1116404   4.010   4.712   6.285  1.0404  0.0776  0.0055
  149SAPE  H11A16405   3.917   4.723   6.344 -0.9639 -1.1556 -2.6862
  149SAPE  H11B16406   3.989   4.687   6.179 -1.4578  0.7870  0.2786
  149SAPE     P16407   4.029   4.968   6.317 -0.2525  0.0182 -0.0243
  149SAPE   O1316408   4.130   5.072   6.348 -0.2053  0.2665 -0.3559
  149SAPE   O1416409   3.937   4.988   6.206  0.3680  0.2035  0.4806
  149SAPE   O1216410   4.100   4.826   6.295  0.2427  0.6110 -0.2105
  149SAPE   O1116411   3.940   4.942   6.440  0.9455 -0.0437 -0.1584
  149SAPE    C116412   3.874   5.045   6.513  0.8866 -0.2618  0.1358
  149SAPE    HA16413   3.940   5.126   6.549 -1.8604  1.0185  2.7367
  149SAPE    HB16414   3.798   5.094   6.448 -0.0512  2.9670  3.3542
  149SAPE    C216415   3.790   4.999   6.638 -0.1897  0.1837 -0.0376
  149SAPE    HS16416   3.753   5.093   6.684  3.0434  2.1976 -1.1645
  149SAPE   O2116417   3.864   4.907   6.723 -0.3921 -0.3964 -0.2437
  149SAPE   C2116418   3.957   4.959   6.800 -0.1578 -0.5027  0.2908
  149SAPE   O2216419   3.969   5.077   6.821  0.4502 -0.8799 -0.0242
  149SAPE   C2216420   4.043   4.855   6.864 -0.2995 -0.2890 -0.1423
  149SAPE   H2R16421   4.066   4.768   6.799  1.9414 -0.0748  0.3087
  149SAPE   H2S16422   4.142   4.900   6.884 -0.6662  0.2031  0.6341
  149SAPE    C316423   3.658   4.923   6.597  0.0517 -0.7471  0.2749
  149SAPE    HX16424   3.684   4.828   6.545 -0.5167 -1.4735  1.2706
  149SAPE    HY16425   3.600   4.982   6.523 -0.7858 -1.7621  0.0961
  149SAPE   O3116426   3.576   4.903   6.709  0.9520  0.0207 -0.3892
  149SAPE   C3116427   3.586   4.793   6.769  0.4289 -0.1123  0.7330
  149SAPE   O3216428   3.656   4.700   6.738 -0.3925  0.1104 -0.1189
  149SAPE   C3216429   3.491   4.799   6.886 -0.2624  0.3387  0.1556
  149SAPE   H2X16430   3.385   4.801   6.851 -0.4465  1.1010  0.7119
  149SAPE   H2Y16431   3.512   4.898   6.932  1.3630  1.4423 -2.7396
  149SAPE   C2316432   3.982   4.811   6.996  0.8890  0.4527  0.4117
  149SAPE   H3R16433   3.895   4.744   6.978  2.5250 -1.2736 -1.5595
  149SAPE   H3S16434   3.944   4.898   7.053 -3.1655 -1.8918  1.7123
  149SAPE   C2416435   4.091   4.728   7.078 -0.0512 -0.3173 -0.2445
  149SAPE   H4R16436   4.181   4.789   7.097 -1.7245  1.3856  3.1036
  149SAPE   H4S16437   4.126   4.646   7.012 -2.4795 -0.5166 -1.4079
  149SAPE   C2516438   4.040   4.671   7.209  0.5142  0.1002  0.7887
  149SAPE   H5R16439   4.000   4.570   7.191 -0.8649  0.3155  2.3891
  149SAPE   C2616440   4.054   4.719   7.333  0.5246  0.1502 -0.4862
  149SAPE   H6R16441   4.017   4.653   7.413 -1.0060 -0.5502 -1.7199
  149SAPE   C2716442   4.118   4.851   7.372 -0.1378  0.3883  0.2664
  149SAPE   H7R16443   4.089   4.882   7.475 -1.7454  1.6837 -0.5284
  149SAPE   H7S16444   4.089   4.935   7.306 -0.9479  0.1805  0.3426
  149SAPE   C2816445   4.259   4.867   7.356 -0.3755  0.8197 -0.1023
  149SAPE   H8R16446   4.291   4.844   7.253  1.4951 -3.7560  1.2403
  149SAPE   C2916447   4.356   4.906   7.433  0.6876 -0.3376 -0.0599
  149SAPE   H9R16448   4.455   4.895   7.386  0.0038 -0.5312 -1.5304
  149SAPE  C21016449   4.357   4.956   7.574  0.2675 -0.0895 -0.4959
  149SAPE  H10R16450   4.457   4.938   7.618 -0.1076 -0.1170  0.3687
  149SAPE  H10S16451   4.295   4.895   7.644  3.2659  0.7391  3.2748
  149SAPE  C21116452   4.315   5.101   7.591 -0.1113  0.5071  0.3494
  149SAPE  H11R16453   4.324   5.164   7.501 -1.5074 -1.1711 -1.0409
  149SAPE  C21216454   4.281   5.150   7.706  0.4952 -0.2052 -0.2309
  149SAPE  H12R16455   4.247   5.255   7.701  2.8851  0.6133 -0.6856
  149SAPE  C21316456   4.273   5.074   7.841 -0.0806 -0.0410  0.3865
  149SAPE  H13R16457   4.300   5.143   7.923 -1.0561  0.1026  0.5933
  149SAPE  H13S16458   4.357   5.001   7.839 -1.0241 -1.1582  0.0484
  149SAPE  C21416459   4.142   5.008   7.866 -0.1823  0.2022 -0.3065
  149SAPE  H14R16460   4.057   5.073   7.892 -0.8745 -0.8018  0.0302
  149SAPE  C21516461   4.126   4.880   7.885  1.0651  0.8163  0.1733
  149SAPE  H15R16462   4.025   4.853   7.918  1.7628 -0.1334  1.6360
  149SAPE  C21616463   4.220   4.761   7.882 -0.4859  0.1588 -0.3553
  149SAPE  H16R16464   4.322   4.794   7.852 -0.6596  0.1689 -0.9473
  149SAPE  H16S16465   4.184   4.676   7.821  2.1788 -2.1524  1.0172
  149SAPE  C21716466   4.234   4.714   8.032 -0.4517  0.3639 -0.2231
  149SAPE  H17R16467   4.271   4.795   8.098  0.5841 -2.0387  2.3587
  149SAPE  H17S16468   4.317   4.641   8.035 -0.1896  0.6651 -0.0187
  149SAPE  C21816469   4.117   4.646   8.088 -0.2554  0.1303 -0.4828
  149SAPE  H18R16470   4.091   4.551   8.037 -0.9126 -0.2138  0.4594
  149SAPE  H18S16471   4.021   4.701   8.096 -1.0888 -1.4760  3.0539
  149SAPE  C21916472   4.155   4.598   8.238 -0.3402  0.3506 -0.7582
  149SAPE  H19R16473   4.194   4.683   8.297  0.9051 -0.1372 -0.8267
  149SAPE  H19S16474   4.245   4.533   8.226 -1.1796 -1.1046  0.4334
  149SAPE  C22016475   4.049   4.517   8.320 -0.2671 -0.1250  0.0768
  149SAPE  H20R16476   4.021   4.429   8.258  1.3534 -0.2626 -0.4911
  149SAPE  H20S16477   3.963   4.583   8.344  0.8189  1.7682 -1.0541
  149SAPE  H20T16478   4.084   4.478   8.419  0.4388  2.6364  0.9985
  149SAPE   C3316479   3.500   4.686   6.994 -0.2793  0.1049 -0.3530
  149SAPE   H3X16480   3.516   4.587   6.945  5.6564  1.5195 -2.0818
  149SAPE   H3Y16481   3.403   4.674   7.046 -0.2914 -0.9146 -0.5731
  149SAPE   C3416482   3.597   4.705   7.107 -0.1571 -0.1066 -0.9260
  149SAPE   H4X16483   3.569   4.798   7.162  0.2606 -1.3728  1.5638
  149SAPE   H4Y16484   3.700   4.735   7.076  0.7489 -0.3898  1.5410
  149SAPE   C3516485   3.599   4.585   7.208  0.2337 -0.3310  0.1879
  149SAPE   H5X16486   3.614   4.496   7.144  0.3228  0.4280 -0.8814
  149SAPE   H5Y16487   3.496   4.575   7.248 -0.3763 -2.1828 -1.7134
  149SAPE   C3616488   3.692   4.596   7.332  0.4696 -0.2461 -0.2507
  149SAPE   H6X16489   3.787   4.644   7.300  1.0571 -1.0606  0.2340
  149SAPE   H6Y16490   3.711   4.494   7.369  1.7285  0.6634  1.7946
  149SAPE   C3716491   3.624   4.673   7.447  0.2040 -0.2741  1.0020
  149SAPE   H7X16492   3.518   4.641   7.441  0.5485 -1.2078 -2.4474
  149SAPE   H7Y16493   3.625   4.782   7.422  3.4586 -0.9199 -2.6753
  149SAPE   C3816494   3.687   4.659   7.584 -0.1136 -0.3591 -0.6736
  149SAPE   H8X16495   3.780   4.719   7.584 -1.5838  2.1715  2.2253
  149SAPE   H8Y16496   3.716   4.553   7.605  0.0589 -0.0643  0.6525
  149SAPE   C3916497   3.592   4.681   7.708 -0.6781 -0.1061  0.4989
  149SAPE   H9X16498   3.491   4.634   7.706  0.2864 -2.2464  0.1235
  149SAPE   H9Y16499   3.577   4.791   7.706  2.0784  0.3210 -1.4929
  149SAPE  C31016500   3.671   4.652   7.836  0.1902 -0.2492 -0.0178
  149SAPE  H10X16501   3.761   4.716   7.834 -1.4006  2.2729  2.3153
  149SAPE  H10Y16502   3.697   4.544   7.840 -0.5145 -0.4125  0.3319
  149SAPE  C31116503   3.596   4.678   7.966  0.9791 -0.6625 -0.0789
  149SAPE  H11X16504   3.505   4.615   7.968  0.4656  0.0610  0.0055
  149SAPE  H11Y16505   3.566   4.785   7.962 -1.2851 -1.3011 -3.2790
  149SAPE  C31216506   3.684   4.643   8.088 -0.6581 -0.4713  0.8097
  149SAPE  H12X16507   3.778   4.701   8.075 -1.3081  0.1270 -1.5613
  149SAPE  H12Y16508   3.705   4.534   8.088 -1.2522 -0.6294 -1.3616
  149SAPE  C31316509   3.619   4.694   8.218  0.7091 -0.3689  0.7198
  149SAPE  H13X16510   3.516   4.655   8.229  0.5942 -1.1996 -2.4502
  149SAPE  H13Y16511   3.608   4.805   8.212 -1.5797 -0.4366  2.5054
  149SAPE  C31416512   3.697   4.669   8.344 -0.0302 -0.4201  0.5752
  149SAPE  H14X16513   3.789   4.732   8.345 -1.1826  1.3305 -0.3780
  149SAPE  H14Y16514   3.723   4.561   8.356 -0.4126 -0.6223 -0.3863
  149SAPE  C31516515   3.628   4.706   8.479 -0.6490 -0.0661 -0.1095
  149SAPE  H15X16516   3.535   4.646   8.492 -0.5850 -0.1508 -0.0357
  149SAPE  H15Y16517   3.599   4.811   8.457  0.0340 -0.5205 -3.6647
  149SAPE  C31616518   3.729   4.697   8.588 -0.0190  0.1451 -0.6198
  149SAPE  H16X16519   3.686   4.756   8.672 -0.1176 -3.5299  2.1462
  149SAPE  H16Y16520   3.828   4.736   8.558  0.5428  1.0294  2.1041
  149SAPE  C31716521   3.749   4.559   8.647 -0.6289 -0.3394 -0.1884
  149SAPE  H17X16522   3.833   4.561   8.720 -0.7080 -0.0283 -0.1049
  149SAPE  H17Y16523   3.786   4.495   8.564 -0.6149  1.0392 -1.2917
  149SAPE  C31816524   3.636   4.495   8.729 -0.1914 -0.4680  0.2067
  149SAPE  H18X16525   3.665   4.397   8.771 -0.6014 -1.0155 -0.7673
  149SAPE  H18Y16526   3.545   4.482   8.666 -0.7954  1.7518  0.5159
  149SAPE  H18Z16527   3.628   4.568   8.812 -1.5898 -1.6279  1.1359
  150SAPE     N16528   1.741   6.254   6.303  0.0017  0.3359  0.5667
  150SAPE   HN116529   1.800   6.268   6.219  0.6640 -0.6727  0.8558
  150SAPE   HN216530   1.758   6.158   6.337  0.3772 -0.7390 -2.3763
  150SAPE   HN316531   1.643   6.246   6.268 -0.7823  0.0832  2.6878
  150SAPE   C1216532   1.758   6.359   6.405 -0.0420  0.5972 -0.5074
  150SAPE  H12A16533   1.700   6.334   6.497  0.3852  2.7291  0.3899
  150SAPE  H12B16534   1.711   6.449   6.361 -0.9818  1.2388  1.6595
  150SAPE   C1116535   1.906   6.385   6.453 -0.4962  0.0560 -0.6918
  150SAPE  H11A16536   1.958   6.294   6.491 -1.5242 -0.9144 -1.5558
  150SAPE  H11B16537   1.911   6.459   6.536 -1.4356  1.2047 -1.6247
  150SAPE     P16538   1.982   6.590   6.308  0.0468 -0.3477  0.2129
  150SAPE   O1316539   2.065   6.610   6.182  1.0050  0.7585  0.1913
  150SAPE   O1416540   1.844   6.644   6.309 -0.8580 -0.2087 -0.2459
  150SAPE   O1216541   1.974   6.434   6.341  0.5996 -0.0980 -1.2222
  150SAPE   O1116542   2.058   6.655   6.431  0.5703  0.0199 -0.2801
  150SAPE    C116543   2.201   6.671   6.452  0.1928 -0.7048  0.4985
  150SAPE    HA16544   2.249   6.698   6.356  1.6450 -1.7851  0.8858
  150SAPE    HB16545   2.213   6.762   6.514  0.1171 -0.9583  0.8881
  150SAPE    C216546   2.270   6.557   6.532  0.1614 -0.2527  0.2549
  150SAPE    HS16547   2.249   6.465   6.474  1.4145 -0.9278  0.8405
  150SAPE   O2116548   2.210   6.553   6.662  0.3414  0.0618 -0.0056
  150SAPE   C2116549   2.195   6.429   6.705  0.0156 -0.1627  0.0536
  150SAPE   O2216550   2.220   6.327   6.644  0.0239 -0.1445  0.1349
  150SAPE   C2216551   2.151   6.438   6.847 -0.1840 -0.0120 -0.3999
  150SAPE   H2R16552   2.234   6.462   6.916 -0.4897 -1.2627  0.4404
  150SAPE   H2S16553   2.079   6.522   6.853 -0.4651 -0.2301 -0.7088
  150SAPE    C316554   2.425   6.564   6.530  0.0923 -0.3050 -0.1329
  150SAPE    HX16555   2.463   6.556   6.426  0.8907  1.8919 -0.0607
  150SAPE    HY16556   2.469   6.481   6.590  1.4291  1.4004  1.3736
  150SAPE   O3116557   2.461   6.689   6.587 -0.5652  0.5546  0.0823
  150SAPE   C3116558   2.565   6.687   6.677 -0.1000 -0.1798 -0.0078
  150SAPE   O3216559   2.620   6.588   6.726 -0.3738  0.1797  0.4418
  150SAPE   C3216560   2.603   6.840   6.706  0.8090 -0.3336 -0.1830
  150SAPE   H2X16561   2.529   6.885   6.777  1.3510  1.6231 -0.8005
  150SAPE   H2Y16562   2.597   6.901   6.613  2.5963  1.1155  0.5822
  150SAPE   C2316563   2.092   6.307   6.901 -0.6296  0.6683  0.0126
  150SAPE   H3R16564   2.166   6.225   6.887 -1.4354 -0.6465  2.7887
  150SAPE   H3S16565   1.999   6.284   6.843 -0.1740 -2.2898  0.2806
  150SAPE   C2416566   2.067   6.314   7.056 -0.1113  0.3323  0.3143
  150SAPE   H4R16567   2.002   6.403   7.073 -0.8680  0.1014 -1.1371
  150SAPE   H4S16568   2.161   6.337   7.111  0.1448  0.4798 -0.1736
  150SAPE   C2516569   2.012   6.183   7.109 -0.0131  0.0106 -0.3147
  150SAPE   H5R16570   2.085   6.101   7.100  0.5726  0.6695 -1.8285
  150SAPE   C2616571   1.904   6.167   7.187  1.0610  0.4714 -0.3016
  150SAPE   H6R16572   1.885   6.062   7.214 -0.6814  0.2433 -2.1723
  150SAPE   C2716573   1.807   6.270   7.228 -0.5594 -0.5753  0.2372
  150SAPE   H7R16574   1.738   6.299   7.146  2.3769  2.2289 -1.5309
  150SAPE   H7S16575   1.868   6.360   7.252 -1.0811 -0.5176  1.3670
  150SAPE   C2816576   1.725   6.231   7.350  0.0779  0.1406  0.1988
  150SAPE   H8R16577   1.618   6.211   7.330  0.0656 -1.9128  1.8911
  150SAPE   C2916578   1.766   6.222   7.481 -0.0926  0.0068  0.6524
  150SAPE   H9R16579   1.695   6.189   7.558 -0.5548 -0.8901 -0.1352
  150SAPE  C21016580   1.903   6.248   7.527  0.0081 -0.2492  0.3571
  150SAPE  H10R16581   1.985   6.248   7.452 -0.4780  1.1919 -0.1909
  150SAPE  H10S16582   1.928   6.167   7.600 -2.0944  0.0889  1.5094
  150SAPE  C21116583   1.908   6.375   7.615  0.0789  0.9552 -0.6837
  150SAPE  H11R16584   1.944   6.461   7.556 -3.2263  1.8446 -1.5843
  150SAPE  C21216585   1.881   6.380   7.752  0.1485  0.1091  0.6906
  150SAPE  H12R16586   1.871   6.481   7.795  0.1509 -0.0806  1.1368
  150SAPE  C21316587   1.843   6.268   7.843 -0.5965 -0.2821  0.1238
  150SAPE  H13R16588   1.939   6.223   7.875  0.6661  0.2835 -2.5407
  150SAPE  H13S16589   1.804   6.182   7.783 -0.1073 -0.9220  0.7043
  150SAPE  C21416590   1.744   6.324   7.953  0.2632  1.3071 -0.6437
  150SAPE  H14R16591   1.660   6.383   7.914 -0.8349 -2.4058 -4.7175
  150SAPE  C21516592   1.750   6.295   8.089  0.2098 -0.4958  0.1238
  150SAPE  H15R16593   1.680   6.335   8.163 -1.0554 -0.2931 -1.1365
  150SAPE  C21616594   1.870   6.217   8.155  0.0679  0.0020 -0.1132
  150SAPE  H16R16595   1.940   6.287   8.205  0.5841 -0.0123 -0.7943
  150SAPE  H16S16596   1.933   6.159   8.085 -0.2956 -2.5225  1.5341
  150SAPE  C21716597   1.840   6.104   8.258 -0.1460  0.8480  0.1079
  150SAPE  H17R16598   1.787   6.149   8.345  2.7638  0.4599  2.2400
  150SAPE  H17S16599   1.933   6.053   8.291 -0.9866 -0.2724  0.8364
  150SAPE  C21816600   1.746   5.997   8.205 -0.3660  0.3299 -0.3208
  150SAPE  H18R16601   1.796   5.952   8.117 -1.5556 -0.7846 -0.4515
  150SAPE  H18S16602   1.649   6.044   8.181 -1.3344 -3.1667 -4.3584
  150SAPE  C21916603   1.736   5.880   8.304  0.4260  0.1692  1.1025
  150SAPE  H19R16604   1.706   5.918   8.404 -1.0611  1.4269  0.2314
  150SAPE  H19S16605   1.829   5.820   8.309  0.4029 -0.0411 -0.3564
  150SAPE  C22016606   1.633   5.769   8.266 -0.8164 -0.0442  0.0200
  150SAPE  H20R16607   1.615   5.743   8.159 -1.2267 -1.6477  0.4439
  150SAPE  H20S16608   1.530   5.804   8.290 -1.5041 -1.5624 -0.5784
  150SAPE  H20T16609   1.659   5.673   8.317 -0.9862 -0.0569  0.0862
  150SAPE   C3316610   2.754   6.857   6.752  0.0124 -0.3584  0.2948
  150SAPE   H3X16611   2.774   6.962   6.721 -1.9556 -0.0140  0.0249
  150SAPE   H3Y16612   2.829   6.801   6.692 -0.3719 -2.6685  1.8404
  150SAPE   C3416613   2.770   6.835   6.902 -0.5468  0.0182 -0.2457
  150SAPE   H4X16614   2.879   6.827   6.920 -0.1972  0.9890 -1.7268
  150SAPE   H4Y16615   2.731   6.732   6.920  0.0729 -0.3565 -1.0134
  150SAPE   C3516616   2.712   6.952   6.991  0.0157 -0.2420 -0.8655
  150SAPE   H5X16617   2.606   6.973   6.963  0.2107  0.1522 -1.3203
  150SAPE   H5Y16618   2.768   7.043   6.962 -1.4752  0.8875 -0.3361
  150SAPE   C3616619   2.738   6.919   7.138  0.7046 -0.2861 -0.8982
  150SAPE   H6X16620   2.843   6.931   7.172  0.2177  0.8230  0.2806
  150SAPE   H6Y16621   2.704   6.817   7.166 -0.8942  0.8168  1.5091
  150SAPE   C3716622   2.656   7.015   7.230 -0.7353 -0.4866 -0.3471
  150SAPE   H7X16623   2.555   7.033   7.188 -0.6274  2.1147  0.2978
  150SAPE   H7Y16624   2.708   7.113   7.238  2.3048 -1.9753 -0.5749
  150SAPE   C3816625   2.622   6.951   7.369 -0.6849 -0.1669 -0.3169
  150SAPE   H8X16626   2.714   6.968   7.430  0.1842 -4.0811 -0.2747
  150SAPE   H8Y16627   2.607   6.841   7.369 -1.4775 -0.1151  1.7474
  150SAPE   C3916628   2.508   7.019   7.442  0.3363  0.9659  0.9581
  150SAPE   H9X16629   2.411   7.002   7.389 -0.1535  2.5697  1.2899
  150SAPE   H9Y16630   2.529   7.128   7.445 -0.3912  1.2362 -1.5179
  150SAPE  C31016631   2.491   6.953   7.589  0.0125  0.7412 -0.1281
  150SAPE  H10X16632   2.480   6.843   7.579 -1.1791  0.6542  1.5957
  150SAPE  H10Y16633   2.390   6.988   7.622  1.3002  3.0426  1.7245
  150SAPE  C31116634   2.603   6.987   7.685 -0.1090  0.2667 -0.3562
  150SAPE  H11X16635   2.621   7.096   7.698  1.2568  0.1901 -1.4072
  150SAPE  H11Y16636   2.689   6.941   7.632  0.8707  0.9339  0.6049
  150SAPE  C31216637   2.589   6.908   7.812 -0.3388  0.5461  0.3377
  150SAPE  H12X16638   2.609   6.800   7.794  3.0401  1.1959 -0.4454
  150SAPE  H12Y16639   2.494   6.932   7.865 -1.3003  1.4195 -1.6839
  150SAPE  C31316640   2.684   6.946   7.927 -0.8662 -0.4078 -0.1567
  150SAPE  H13X16641   2.647   7.042   7.966  0.6732  1.0600 -2.0992
  150SAPE  H13Y16642   2.786   6.971   7.892 -0.3667 -0.2339  1.3950
  150SAPE  C31416643   2.683   6.838   8.033  0.0248  0.3252  0.4454
  150SAPE  H14X16644   2.706   6.739   7.988 -1.3005  0.4841 -0.6441
  150SAPE  H14Y16645   2.582   6.834   8.078 -0.2743  0.8596 -0.1515
  150SAPE  C31516646   2.780   6.868   8.151 -0.1015  1.0400 -0.0227
  150SAPE  H15X16647   2.752   6.965   8.196 -0.7374  0.9137 -0.1298
  150SAPE  H15Y16648   2.887   6.868   8.119  0.6214 -1.3451  2.0155
  150SAPE  C31616649   2.771   6.761   8.267  0.3046  0.6106 -1.0134
  150SAPE  H16X16650   2.795   6.656   8.241 -0.4052 -0.6863  2.9070
  150SAPE  H16Y16651   2.663   6.762   8.295  0.3578  1.3702 -0.8047
  150SAPE  C31716652   2.855   6.801   8.388 -0.6112 -0.2085  0.1937
  150SAPE  H17X16653   2.806   6.758   8.478 -0.5315 -1.6690 -0.4231
  150SAPE  H17Y16654   2.850   6.910   8.409  1.7101  0.7525 -3.2744
  150SAPE  C31816655   3.001   6.760   8.372 -0.0258  0.2872 -0.2758
  150SAPE  H18X16656   3.011   6.655   8.337 -1.3944  0.5987 -1.7052
  150SAPE  H18Y16657   3.047   6.770   8.473 -3.1645  0.5954  1.2353
  150SAPE  H18Z16658   3.053   6.819   8.293 -1.6979  0.5511 -1.2400
  151SAPE     N16659   5.286   4.388   6.345 -0.3800  0.3325 -0.1549
  151SAPE   HN116660   5.383   4.380   6.307 -0.1386  0.5588  0.4074
  151SAPE   HN216661   5.238   4.462   6.289  0.8982 -0.7618 -2.9036
  151SAPE   HN316662   5.304   4.412   6.445 -1.0110 -2.3657  0.6726
  151SAPE   C1216663   5.213   4.258   6.315 -0.0760  0.9898  0.4992
  151SAPE  H12A16664   5.269   4.183   6.374 -0.3960 -1.5069 -2.1244
  151SAPE  H12B16665   5.231   4.233   6.208  1.2102 -0.3253  0.9905
  151SAPE   C1116666   5.060   4.269   6.337 -0.1994  0.3579  0.0749
  151SAPE  H11A16667   5.045   4.257   6.446  0.3969 -1.7905 -0.0342
  151SAPE  H11B16668   5.020   4.179   6.284  0.9899  0.5004 -1.1189
  151SAPE     P16669   4.855   4.420   6.283 -0.3309 -0.0336 -0.5300
  151SAPE   O1316670   4.833   4.555   6.237  0.0637 -0.2330  0.6432
  151SAPE   O1416671   4.790   4.308   6.214  0.8109  0.1012 -0.2163
  151SAPE   O1216672   5.016   4.394   6.288  0.2264  0.2240 -0.4122
  151SAPE   O1116673   4.821   4.422   6.436 -0.2200 -0.5970 -0.3328
  151SAPE    C116674   4.884   4.523   6.519 -0.1846  0.0907 -0.2641
  151SAPE    HA16675   4.986   4.542   6.479  0.1670 -0.9599  0.0852
  151SAPE    HB16676   4.837   4.622   6.507 -0.2177  0.2756  1.2060
  151SAPE    C216677   4.900   4.480   6.669  0.1589  0.1934 -0.4022
  151SAPE    HS16678   4.951   4.382   6.662 -0.0470 -0.1155  1.8588
  151SAPE   O2116679   4.763   4.474   6.724  0.2862  0.7533 -0.5854
  151SAPE   C2116680   4.741   4.388   6.818 -0.1019  0.8850  0.1984
  151SAPE   O2216681   4.816   4.300   6.858 -0.2861 -0.5163 -0.5582
  151SAPE   C2216682   4.598   4.402   6.869  0.3241  0.1385  0.1407
  151SAPE   H2R16683   4.532   4.420   6.782  0.2401 -1.0847 -0.0601
  151SAPE   H2S16684   4.574   4.304   6.915  0.6586 -0.1747 -0.3338
  151SAPE    C316685   4.978   4.585   6.749  0.2105 -0.4013 -0.3738
  151SAPE    HX16686   4.924   4.682   6.752 -0.3249 -0.7148  1.3390
  151SAPE    HY16687   5.077   4.596   6.699  1.7242 -1.8669  2.1079
  151SAPE   O3116688   4.998   4.549   6.889  0.1743  0.6759  0.0182
  151SAPE   C3116689   5.080   4.444   6.900  0.5152 -0.2970  0.3046
  151SAPE   O3216690   5.155   4.396   6.819  0.3341 -0.1803  0.5486
  151SAPE   C3216691   5.069   4.397   7.048  0.2521 -0.1072 -0.3324
  151SAPE   H2X16692   5.081   4.287   7.047  0.1941 -0.1129 -0.3783
  151SAPE   H2Y16693   4.972   4.434   7.087 -0.1024 -2.3474  1.0751
  151SAPE   C2316694   4.588   4.512   6.987  0.7359 -0.3068 -0.1042
  151SAPE   H3R16695   4.639   4.609   6.970 -1.1166  1.1203  1.8073
  151SAPE   H3S16696   4.646   4.468   7.070  1.4472  1.2108  0.2316
  151SAPE   C2416697   4.442   4.539   7.035  0.3515  0.4109 -0.3621
  151SAPE   H4R16698   4.382   4.597   6.962 -1.9597 -0.8920  0.4070
  151SAPE   H4S16699   4.442   4.591   7.133  0.1451 -1.4845  0.6868
  151SAPE   C2516700   4.361   4.410   7.057  0.2500 -0.0907  0.4476
  151SAPE   H5R16701   4.320   4.352   6.973  0.9735 -3.3456  2.1749
  151SAPE   C2616702   4.340   4.349   7.172 -0.6385 -0.5262  0.0020
  151SAPE   H6R16703   4.269   4.266   7.184 -1.2842 -0.1844 -1.2252
  151SAPE   C2716704   4.403   4.388   7.301 -0.2258  0.1914 -0.5116
  151SAPE   H7R16705   4.495   4.443   7.273 -0.2612  0.5385  0.0324
  151SAPE   H7S16706   4.441   4.296   7.353  3.0386  3.0962  2.8582
  151SAPE   C2816707   4.315   4.472   7.394  0.1254 -0.2991 -0.4921
  151SAPE   H8R16708   4.298   4.570   7.348  2.6775  0.5856  0.2950
  151SAPE   C2916709   4.273   4.444   7.523  0.2438 -1.0690  0.6690
  151SAPE   H9R16710   4.206   4.510   7.579  0.8664 -0.8492  1.1663
  151SAPE  C21016711   4.304   4.326   7.609  0.3665 -0.3486 -0.2834
  151SAPE  H10R16712   4.403   4.286   7.580  0.8944  0.4931  0.3002
  151SAPE  H10S16713   4.228   4.249   7.583 -1.2451  1.5654 -1.5513
  151SAPE  C21116714   4.290   4.358   7.759 -0.1844  0.0680  0.7991
  151SAPE  H11R16715   4.213   4.434   7.779  1.1816  1.3362  1.4854
  151SAPE  C21216716   4.356   4.325   7.863 -0.0778  0.3584 -0.4504
  151SAPE  H12R16717   4.313   4.343   7.962  2.6734 -0.8756  1.0776
  151SAPE  C21316718   4.475   4.231   7.857  0.1559 -0.5263 -0.2321
  151SAPE  H13R16719   4.513   4.217   7.754  0.6404  2.0872 -0.4883
  151SAPE  H13S16720   4.430   4.140   7.901 -2.0147  0.3602 -0.5216
  151SAPE  C21416721   4.599   4.266   7.943  0.1333  0.4491  0.1066
  151SAPE  H14R16722   4.691   4.273   7.884  2.0528  0.1829  2.8830
  151SAPE  C21516723   4.616   4.281   8.074 -0.2341  0.6955 -0.4871
  151SAPE  H15R16724   4.711   4.319   8.115  0.1680  0.1235 -0.8683
  151SAPE  C21616725   4.522   4.257   8.185  0.1860 -0.4230  0.1186
  151SAPE  H16R16726   4.448   4.178   8.162 -2.1891  1.5628  0.5364
  151SAPE  H16S16727   4.472   4.356   8.191  0.4130 -0.2713 -0.3798
  151SAPE  C21716728   4.574   4.231   8.338  0.2135  0.2066 -0.3231
  151SAPE  H17R16729   4.646   4.308   8.370 -2.2912  4.1831 -3.2736
  151SAPE  H17S16730   4.623   4.131   8.337  1.8708  0.9976  0.1829
  151SAPE  C21816731   4.454   4.225   8.424 -0.2983 -0.0527  0.0672
  151SAPE  H18R16732   4.390   4.148   8.376  1.5588 -1.0302 -0.9595
  151SAPE  H18S16733   4.385   4.311   8.405  0.6222  0.8717  0.8185
  151SAPE  C21916734   4.465   4.193   8.576  0.3910 -0.0346 -0.4400
  151SAPE  H19R16735   4.529   4.108   8.607 -0.2520 -0.5764 -0.5984
  151SAPE  H19S16736   4.364   4.167   8.612  0.1924  0.3328 -0.7230
  151SAPE  C22016737   4.521   4.314   8.650 -0.0589 -0.4235  0.0240
  151SAPE  H20R16738   4.627   4.337   8.624  0.0370 -1.2382 -0.3581
  151SAPE  H20S16739   4.466   4.406   8.623  1.3771  0.4955  0.1535
  151SAPE  H20T16740   4.515   4.314   8.761  1.7028  1.4881  0.1866
  151SAPE   C3316741   5.189   4.449   7.127 -0.0385  0.2860 -0.3540
  151SAPE   H3X16742   5.177   4.560   7.135 -1.2833  0.0589  2.4289
  151SAPE   H3Y16743   5.285   4.441   7.073 -0.6031 -0.0111 -1.3463
  151SAPE   C3416744   5.187   4.397   7.274 -0.1085  0.3812  0.6384
  151SAPE   H4X16745   5.205   4.288   7.283 -0.6293  0.2846  0.5104
  151SAPE   H4Y16746   5.092   4.425   7.324 -1.0447 -0.0375 -0.8528
  151SAPE   C3516747   5.302   4.468   7.350 -0.4638  0.3963  0.0770
  151SAPE   H5X16748   5.294   4.574   7.317  0.9942 -0.1324 -2.2227
  151SAPE   H5Y16749   5.398   4.433   7.306 -0.7794 -0.7280  0.2513
  151SAPE   C3616750   5.310   4.459   7.502  0.3870 -0.0315  0.0487
  151SAPE   H6X16751   5.286   4.351   7.514  2.2284 -0.4245  0.5980
  151SAPE   H6Y16752   5.226   4.514   7.550  1.4389 -0.3443  2.4179
  151SAPE   C3716753   5.448   4.491   7.557  0.2490  0.7112  0.0845
  151SAPE   H7X16754   5.454   4.602   7.569 -3.5898  1.0085  0.8326
  151SAPE   H7Y16755   5.530   4.458   7.490  0.5957  1.1577  0.2796
  151SAPE   C3816756   5.468   4.435   7.696 -0.5139  0.5824  1.4956
  151SAPE   H8X16757   5.465   4.324   7.689  0.0141  0.5972  0.9569
  151SAPE   H8Y16758   5.379   4.459   7.759 -0.5041  3.3213  0.6035
  151SAPE   C3916759   5.600   4.481   7.760 -0.0653  0.0811 -0.2605
  151SAPE   H9X16760   5.592   4.591   7.762 -0.8571  0.0890 -1.9553
  151SAPE   H9Y16761   5.677   4.446   7.687  0.0796  1.7717 -0.9738
  151SAPE  C31016762   5.619   4.420   7.899 -0.8245  0.5965 -0.1074
  151SAPE  H10X16763   5.729   4.412   7.915 -0.9994  1.6217  1.8947
  151SAPE  H10Y16764   5.566   4.323   7.901 -1.3844  0.9132  1.8744
  151SAPE  C31116765   5.563   4.509   8.008  0.3476 -0.0446 -0.2955
  151SAPE  H11X16766   5.466   4.476   8.049  0.7426  1.3837  1.9408
  151SAPE  H11Y16767   5.531   4.608   7.968 -0.6617 -0.0953  0.3637
  151SAPE  C31216768   5.655   4.537   8.129  0.0633 -0.3082  0.0316
  151SAPE  H12X16769   5.752   4.579   8.095  0.7462  0.4104  2.6724
  151SAPE  H12Y16770   5.687   4.443   8.179 -0.6988 -1.0332 -0.8082
  151SAPE  C31316771   5.583   4.620   8.235  0.7117  0.2281 -0.0068
  151SAPE  H13X16772   5.510   4.558   8.290 -0.2625  0.5899 -0.8537
  151SAPE  H13Y16773   5.535   4.708   8.186  0.4792 -0.6998 -1.5387
  151SAPE  C31416774   5.666   4.677   8.357  0.3219  0.1963  1.0634
  151SAPE  H14X16775   5.748   4.746   8.326 -0.2311 -0.1638 -1.4759
  151SAPE  H14Y16776   5.716   4.582   8.386  2.4460  1.6836  2.5791
  151SAPE  C31516777   5.573   4.732   8.464 -0.0156 -0.5086 -0.4245
  151SAPE  H15X16778   5.497   4.660   8.501  0.0279  0.4641  1.7674
  151SAPE  H15Y16779   5.520   4.820   8.421 -1.0866 -1.6121 -1.4267
  151SAPE  C31616780   5.657   4.775   8.591  0.1479 -0.0686  1.0338
  151SAPE  H16X16781   5.743   4.830   8.547 -0.3438 -1.7614 -2.4121
  151SAPE  H16Y16782   5.706   4.683   8.627  0.6004 -0.0510  0.4842
  151SAPE  C31716783   5.574   4.855   8.698 -0.3413  0.0727  0.1870
  151SAPE  H17X16784   5.494   4.784   8.727 -0.2819  0.5263  1.5389
  151SAPE  H17Y16785   5.531   4.949   8.657  0.2705  0.4023  0.2810
  151SAPE  C31816786   5.658   4.901   8.817 -0.2789  0.5634  0.2591
  151SAPE  H18X16787   5.671   4.816   8.888  0.2387 -0.7458 -1.3159
  151SAPE  H18Y16788   5.602   4.987   8.857 -0.3775  1.0762 -0.9424
  151SAPE  H18Z16789   5.760   4.938   8.792  0.4236 -1.0445  0.5887
  152SAPE     N16790   4.261   0.960   5.964  0.7040 -0.1518  0.3712
  152SAPE   HN116791   4.340   0.896   5.941  1.3874 -0.3190  2.8645
  152SAPE   HN216792   4.182   0.901   5.997  1.9692 -1.1285  1.7757
  152SAPE   HN316793   4.232   1.014   5.880 -0.3335  0.8809  1.3522
  152SAPE   C1216794   4.292   1.057   6.075 -0.6730  0.3886  0.5113
  152SAPE  H12A16795   4.372   1.130   6.048 -1.4540  1.7122  1.6109
  152SAPE  H12B16796   4.328   1.002   6.164 -0.4752  1.9012  1.4024
  152SAPE   C1116797   4.178   1.151   6.117  0.4490 -0.2811 -0.3915
  152SAPE  H11A16798   4.227   1.217   6.191 -1.0825  0.8543 -0.3366
  152SAPE  H11B16799   4.098   1.096   6.170  0.6564  1.2355  1.6114
  152SAPE     P16800   4.007   1.321   6.018  0.0630 -0.9267  0.4887
  152SAPE   O1316801   4.057   1.460   6.029  0.0653 -0.0109  0.3936
  152SAPE   O1416802   3.915   1.297   5.902 -0.7225  0.1241 -0.3722
  152SAPE   O1216803   4.132   1.222   6.004 -0.0618  0.4070  0.2147
  152SAPE   O1116804   3.937   1.288   6.158  0.3846  0.1195 -0.0313
  152SAPE    C116805   3.823   1.217   6.177  0.3727 -0.0903 -0.6680
  152SAPE    HA16806   3.740   1.253   6.113 -1.2028 -2.4188 -0.0633
  152SAPE    HB16807   3.831   1.111   6.144 -2.4746 -0.7735  0.4769
  152SAPE    C216808   3.782   1.215   6.326 -0.2358  0.6762  0.2404
  152SAPE    HS16809   3.671   1.208   6.328 -0.2549  0.0547 -1.4761
  152SAPE   O2116810   3.819   1.333   6.403 -0.0897  0.2329  0.2225
  152SAPE   C2116811   3.740   1.379   6.495 -0.3797 -0.0260  0.0969
  152SAPE   O2216812   3.627   1.342   6.517 -0.0385  0.4858  0.3773
  152SAPE   C2216813   3.821   1.467   6.590 -0.1733  0.2330  0.2800
  152SAPE   H2R16814   3.873   1.398   6.659 -2.8736 -0.5285  1.6877
  152SAPE   H2S16815   3.904   1.528   6.549 -1.0885  0.7633 -0.8445
  152SAPE    C316816   3.850   1.098   6.405  0.0169  0.2240 -0.2283
  152SAPE    HX16817   3.959   1.120   6.406 -0.3642  2.4369 -1.6839
  152SAPE    HY16818   3.823   1.003   6.352 -3.5696  0.4044  1.0222
  152SAPE   O3116819   3.791   1.095   6.539  0.4688 -0.4060  0.1418
  152SAPE   C3116820   3.843   0.997   6.613 -0.0197 -0.0335  0.3877
  152SAPE   O3216821   3.942   0.925   6.582 -0.2223 -0.2452  0.0489
  152SAPE   C3216822   3.760   0.971   6.740  0.6017 -1.3793  0.2319
  152SAPE   H2X16823   3.822   0.908   6.807 -1.2447 -0.6844  2.7321
  152SAPE   H2Y16824   3.666   0.921   6.708  0.3040 -0.6447 -0.0678
  152SAPE   C2316825   3.734   1.551   6.698 -0.6020 -0.5786  0.4693
  152SAPE   H3R16826   3.657   1.480   6.734  1.3588 -2.7222  0.6914
  152SAPE   H3S16827   3.688   1.642   6.655 -1.5770 -0.5995  1.4461
  152SAPE   C2416828   3.825   1.581   6.824  1.4468 -0.3324 -0.1268
  152SAPE   H4R16829   3.840   1.478   6.865 -2.6732 -0.1140  2.4372
  152SAPE   H4S16830   3.765   1.644   6.892  0.9515 -0.3287 -0.5597
  152SAPE   C2516831   3.951   1.661   6.805 -0.1578 -1.0509 -0.1296
  152SAPE   H5R16832   3.933   1.764   6.769  0.9858 -0.1316  1.8002
  152SAPE   C2616833   4.077   1.646   6.844 -0.2470 -0.0354  0.7748
  152SAPE   H6R16834   4.152   1.721   6.814 -0.3156 -0.5997 -0.8875
  152SAPE   C2716835   4.131   1.521   6.913 -0.5676  0.0260 -0.0837
  152SAPE   H7R16836   4.181   1.456   6.839 -0.5861  2.8126 -2.7534
  152SAPE   H7S16837   4.046   1.466   6.958  1.8529 -2.3163  1.9869
  152SAPE   C2816838   4.232   1.537   7.022 -0.3026  0.5054  0.1994
  152SAPE   H8R16839   4.335   1.529   6.985 -0.2705  2.6538 -0.3177
  152SAPE   C2916840   4.222   1.577   7.152  0.7584  0.0663  0.0993
  152SAPE   H9R16841   4.310   1.575   7.218  1.7199 -0.5368 -1.1691
  152SAPE  C21016842   4.094   1.601   7.223 -0.0397 -0.2256  0.5041
  152SAPE  H10R16843   4.003   1.591   7.161 -1.6255 -1.8139  2.9052
  152SAPE  H10S16844   4.081   1.710   7.242 -2.0971  0.1324 -2.3620
  152SAPE  C21116845   4.066   1.521   7.350  0.7629  0.4503  0.0086
  152SAPE  H11R16846   3.991   1.445   7.324  0.9018  0.7834 -1.4955
  152SAPE  C21216847   4.113   1.522   7.476  0.4855  0.1570 -0.0823
  152SAPE  H12R16848   4.073   1.452   7.551  0.8297  1.4302  1.3555
  152SAPE  C21316849   4.217   1.628   7.529 -0.0606  0.2747  0.1723
  152SAPE  H13R16850   4.247   1.694   7.445 -1.3972 -1.4278 -1.7418
  152SAPE  H13S16851   4.313   1.577   7.553  0.4374 -0.9785 -3.6490
  152SAPE  C21416852   4.167   1.716   7.633  0.3201 -0.0638 -0.3890
  152SAPE  H14R16853   4.118   1.810   7.604  1.1325  0.1934 -0.9697
  152SAPE  C21516854   4.174   1.699   7.767 -0.1333  0.0867  0.4539
  152SAPE  H15R16855   4.119   1.776   7.823 -0.3777  0.1072  0.1910
  152SAPE  C21616856   4.233   1.584   7.845 -0.1694 -0.2905  0.3109
  152SAPE  H16R16857   4.293   1.625   7.928  0.0965  0.9376 -0.4666
  152SAPE  H16S16858   4.302   1.530   7.777 -1.3433  3.5259 -4.4800
  152SAPE  C21716859   4.123   1.494   7.916 -0.7403 -0.0594  0.1243
  152SAPE  H17R16860   4.152   1.388   7.894 -1.7930  0.0826 -2.2574
  152SAPE  H17S16861   4.030   1.512   7.857 -0.3591 -0.2437 -0.5465
  152SAPE  C21816862   4.105   1.523   8.061  0.3797 -0.6117  0.4939
  152SAPE  H18R16863   4.045   1.616   8.058  2.7575  0.9969 -0.5635
  152SAPE  H18S16864   4.196   1.563   8.112  0.7280  0.8134 -1.1492
  152SAPE  C21916865   4.015   1.417   8.126 -0.0387 -0.2964 -0.6268
  152SAPE  H19R16866   4.085   1.331   8.135  1.5203  0.9218 -0.7361
  152SAPE  H19S16867   3.934   1.378   8.061  1.5968 -0.2788 -2.7704
  152SAPE  C22016868   3.963   1.451   8.265  0.4540  0.0811  0.9633
  152SAPE  H20R16869   3.906   1.368   8.312 -0.2052  0.6640  1.2147
  152SAPE  H20S16870   3.889   1.534   8.254 -1.5285 -1.5000  1.6315
  152SAPE  H20T16871   4.046   1.489   8.328  3.4155 -0.2703 -2.4364
  152SAPE   C3316872   3.709   1.110   6.793 -0.1401  0.4023 -0.0249
  152SAPE   H3X16873   3.624   1.090   6.862 -0.3314  0.4535 -0.2463
  152SAPE   H3Y16874   3.677   1.179   6.712  0.9240  1.4412  0.3984
  152SAPE   C3416875   3.820   1.174   6.876 -0.1492 -0.6913 -0.2437
  152SAPE   H4X16876   3.794   1.281   6.888  1.7128 -0.1537 -0.6466
  152SAPE   H4Y16877   3.920   1.166   6.828  0.2295 -0.3243  0.4557
  152SAPE   C3516878   3.835   1.111   7.021  0.2964 -0.5143 -0.5828
  152SAPE   H5X16879   3.853   1.001   7.017  0.5936 -0.4286 -2.0660
  152SAPE   H5Y16880   3.736   1.122   7.070  0.1073 -1.0589 -0.8319
  152SAPE   C3616881   3.954   1.172   7.098 -0.1820  0.8844 -0.5709
  152SAPE   H6X16882   3.950   1.283   7.098 -1.4715  0.8571 -0.2760
  152SAPE   H6Y16883   4.039   1.133   7.038  1.0817 -0.7401  2.1039
  152SAPE   C3716884   3.954   1.122   7.242 -0.1990 -0.8556  0.2925
  152SAPE   H7X16885   3.928   1.014   7.247 -0.5731 -0.7735  0.1507
  152SAPE   H7Y16886   3.875   1.182   7.293  1.4771  1.9022 -0.1650
  152SAPE   C3816887   4.086   1.145   7.315 -0.4434  0.2613  0.0612
  152SAPE   H8X16888   4.121   1.248   7.294 -1.7383  0.5556 -0.7783
  152SAPE   H8Y16889   4.163   1.072   7.280  1.2438  2.0535 -0.1281
  152SAPE   C3916890   4.056   1.138   7.471 -0.2686 -0.6176  0.4902
  152SAPE   H9X16891   4.001   1.044   7.495 -0.1828 -0.3209  1.9736
  152SAPE   H9Y16892   3.977   1.210   7.503  0.8724 -0.6112  3.6367
  152SAPE  C31016893   4.182   1.157   7.556  0.1004  0.0475  0.3886
  152SAPE  H10X16894   4.234   1.251   7.528  1.2129 -0.7243 -0.2394
  152SAPE  H10Y16895   4.259   1.077   7.544  1.6100  0.6164  4.5451
  152SAPE  C31116896   4.150   1.178   7.706  0.4581  0.1501  0.2475
  152SAPE  H11X16897   4.075   1.260   7.714 -0.5705 -0.6930 -0.5746
  152SAPE  H11Y16898   4.240   1.215   7.760 -1.0021  3.9141  0.4197
  152SAPE  C31216899   4.092   1.053   7.777 -0.2901 -0.6115 -0.4109
  152SAPE  H12X16900   4.154   0.969   7.740  1.8352  1.1084 -0.8932
  152SAPE  H12Y16901   3.990   1.029   7.740 -0.2807 -0.0350 -0.8235
  152SAPE  C31316902   4.100   1.077   7.932 -0.1838  0.5509 -0.0732
  152SAPE  H13X16903   4.036   1.163   7.962  0.4903  0.6336  1.1816
  152SAPE  H13Y16904   4.199   1.113   7.969 -0.3641  0.4333  0.5369
  152SAPE  C31416905   4.065   0.949   8.006  0.2536  0.2089  0.3220
  152SAPE  H14X16906   4.132   0.871   7.965 -2.4863 -1.3368 -1.5115
  152SAPE  H14Y16907   3.960   0.924   7.979  0.4411 -0.3158  0.0585
  152SAPE  C31516908   4.067   0.955   8.154 -0.0071 -0.0242  0.1232
  152SAPE  H15X16909   4.007   1.043   8.185 -1.3736 -1.3892  1.4938
  152SAPE  H15Y16910   4.175   0.965   8.181  0.1029 -1.1567  0.1240
  152SAPE  C31616911   4.012   0.832   8.233  0.2309  0.6146 -0.1914
  152SAPE  H16X16912   4.089   0.754   8.217  0.4841  0.8943 -0.3380
  152SAPE  H16Y16913   3.926   0.805   8.168 -0.4734  1.9916  0.1383
  152SAPE  C31716914   3.990   0.856   8.383 -0.1326  0.1547  0.0654
  152SAPE  H17X16915   4.004   0.760   8.437  3.2237  1.9324  2.7372
  152SAPE  H17Y16916   3.883   0.886   8.380 -0.3177 -0.2106  1.8277
  152SAPE  C31816917   4.084   0.962   8.440  0.1324  0.1296  0.4766
  152SAPE  H18X16918   4.190   0.932   8.431 -0.0024 -0.1524 -0.2011
  152SAPE  H18Y16919   4.058   0.981   8.547  2.4427  2.8648  0.6911
  152SAPE  H18Z16920   4.081   1.060   8.388  1.1826  0.0204  0.1985
  153SAPE     N16921   5.724   1.531   6.237 -0.1860  0.4746  0.4372
  153SAPE   HN116922   5.747   1.620   6.189  3.7235 -0.4947  0.1764
  153SAPE   HN216923   5.731   1.452   6.170  0.0872 -0.6126  1.7066
  153SAPE   HN316924   5.638   1.534   6.295 -0.2664  1.8788  0.2848
  153SAPE   C1216925   5.829   1.532   6.344  0.1521 -0.2272  0.2850
  153SAPE  H12A16926   5.913   1.570   6.281  1.5948 -1.3639  1.4505
  153SAPE  H12B16927   5.844   1.430   6.384 -0.4395  0.4264  2.2783
  153SAPE   C1116928   5.803   1.627   6.467  0.0822  0.8737  0.6580
  153SAPE  H11A16929   5.890   1.625   6.536  0.4017  0.0555  0.2455
  153SAPE  H11B16930   5.721   1.575   6.519 -0.3080 -0.3036 -1.0388
  153SAPE     P16931   5.867   1.867   6.398 -0.3112 -0.1272  0.0202
  153SAPE   O1316932   5.954   1.828   6.286 -0.6398  0.4607  0.1943
  153SAPE   O1416933   5.786   1.989   6.363 -0.0517 -0.0404 -0.0112
  153SAPE   O1216934   5.757   1.757   6.429 -0.0710  0.7676 -0.0645
  153SAPE   O1116935   5.940   1.875   6.537 -0.3478 -0.0128 -0.3096
  153SAPE    C116936   6.060   1.952   6.564 -0.0909  0.2088 -0.2251
  153SAPE    HA16937   6.124   1.942   6.474  2.1620 -2.6449  1.5026
  153SAPE    HB16938   6.029   2.052   6.601 -0.5340  0.7265 -1.9196
  153SAPE    C216939   6.150   1.896   6.676 -0.4465 -0.4676 -0.0908
  153SAPE    HS16940   6.194   1.803   6.634  0.7806  0.3201 -0.5936
  153SAPE   O2116941   6.066   1.869   6.793  0.0539 -0.4454  0.1921
  153SAPE   C2116942   6.011   1.756   6.803 -0.4225 -0.0817 -0.6649
  153SAPE   O2216943   6.037   1.658   6.733 -0.0140  0.2423 -0.0999
  153SAPE   C2216944   5.898   1.758   6.901  0.2572  0.8275 -0.0313
  153SAPE   H2R16945   5.866   1.863   6.922 -3.3885 -0.1841  0.1455
  153SAPE   H2S16946   5.813   1.712   6.846  0.5281  0.5162 -0.1896
  153SAPE    C316947   6.268   1.997   6.710 -0.3810  0.2699  0.0408
  153SAPE    HX16948   6.229   2.088   6.761 -2.8755 -1.1024  0.7608
  153SAPE    HY16949   6.326   2.023   6.619  0.6409 -1.1343  0.2554
  153SAPE   O3116950   6.346   1.930   6.813  0.1507 -0.1723 -0.1407
  153SAPE   C3116951   6.479   1.952   6.808 -0.0462 -1.0165 -0.5570
  153SAPE   O3216952   6.534   2.024   6.728 -0.1772  0.5169 -0.0575
  153SAPE   C3216953   6.555   1.877   6.916 -0.3758  0.7020 -0.5270
  153SAPE   H2X16954   6.495   1.790   6.953  0.9407  0.1096  0.2796
  153SAPE   H2Y16955   6.559   1.945   7.003  1.7483 -0.5110  0.4006
  153SAPE   C2316956   5.921   1.678   7.035  0.7074 -0.3976  0.7773
  153SAPE   H3R16957   5.966   1.579   7.013  0.2937 -0.5587  0.6427
  153SAPE   H3S16958   5.826   1.648   7.085 -0.3041 -0.0673 -0.8812
  153SAPE   C2416959   6.016   1.745   7.133  0.4588  0.3244 -0.1477
  153SAPE   H4R16960   6.109   1.748   7.073 -1.7412 -0.7542 -3.9317
  153SAPE   H4S16961   6.037   1.673   7.215 -0.1145 -0.9132 -1.0542
  153SAPE   C2516962   5.973   1.888   7.174 -0.0340  0.2018 -0.0844
  153SAPE   H5R16963   5.969   1.959   7.091 -0.4504  0.8329  0.4679
  153SAPE   C2616964   5.929   1.942   7.292  0.7619 -0.5976 -0.5308
  153SAPE   H6R16965   5.920   2.051   7.301 -0.7092 -0.8863  2.7275
  153SAPE   C2716966   5.904   1.859   7.420 -0.3439  0.1295  0.0309
  153SAPE   H7R16967   5.912   1.749   7.406  2.0783  0.3862 -1.1146
  153SAPE   H7S16968   5.802   1.893   7.449  0.1435  2.7375 -1.0243
  153SAPE   C2816969   5.999   1.899   7.532 -0.4194 -0.1376 -0.0784
  153SAPE   H8R16970   6.107   1.891   7.512 -0.6872 -0.1843 -1.6406
  153SAPE   C2916971   5.959   1.947   7.645  0.4151 -0.0635  0.0839
  153SAPE   H9R16972   6.029   1.989   7.720  1.3114  2.1409 -1.8633
  153SAPE  C21016973   5.818   1.970   7.698 -0.2283  0.3439  1.1281
  153SAPE  H10R16974   5.820   1.992   7.807  0.7651  0.3842  1.1189
  153SAPE  H10S16975   5.766   1.873   7.688 -1.5751  1.1756 -0.3896
  153SAPE  C21116976   5.727   2.070   7.634  0.7953  0.5011  0.1297
  153SAPE  H11R16977   5.709   2.048   7.527  1.2422 -1.8301  0.4746
  153SAPE  C21216978   5.675   2.186   7.691  0.1258  0.3796 -0.0181
  153SAPE  H12R16979   5.598   2.242   7.637 -1.5334 -0.6728  1.1747
  153SAPE  C21316980   5.722   2.238   7.829  0.0225 -0.5534 -0.2081
  153SAPE  H13R16981   5.709   2.157   7.905  0.5330 -0.7009 -0.2766
  153SAPE  H13S16982   5.655   2.320   7.863  0.2561 -0.2453 -0.4870
  153SAPE  C21416983   5.866   2.283   7.822  0.5784 -1.3738  0.6027
  153SAPE  H14R16984   5.925   2.241   7.739  0.7622  0.7960 -0.4253
  153SAPE  C21516985   5.933   2.336   7.927  0.2882 -0.4682  0.1284
  153SAPE  H15R16986   6.041   2.360   7.931  0.1808  0.0795 -0.2699
  153SAPE  C21616987   5.862   2.348   8.059 -0.2664 -0.2904 -0.5984
  153SAPE  H16R16988   5.758   2.389   8.062 -0.2080 -0.1687 -0.1604
  153SAPE  H16S16989   5.911   2.426   8.121 -0.1464  0.5021 -1.6573
  153SAPE  C21716990   5.854   2.219   8.133 -0.0687 -0.5324  0.2239
  153SAPE  H17R16991   5.946   2.190   8.189 -0.1427 -1.7457 -0.2387
  153SAPE  H17S16992   5.818   2.135   8.070 -0.9881  0.5314 -0.7181
  153SAPE  C21816993   5.765   2.233   8.254 -0.0198 -1.0322 -0.2275
  153SAPE  H18R16994   5.666   2.280   8.232 -0.3361 -1.0842  1.0137
  153SAPE  H18S16995   5.811   2.298   8.332 -2.7122 -0.2772  0.8756
  153SAPE  C21916996   5.749   2.099   8.325 -0.5577 -0.0846 -0.1249
  153SAPE  H19R16997   5.849   2.084   8.371 -0.4671  0.7660 -0.0307
  153SAPE  H19S16998   5.725   2.016   8.255 -1.2183 -0.5424  0.6246
  153SAPE  C22016999   5.648   2.103   8.436  0.2466  0.5928 -0.0231
  153SAPE  H20R17000   5.546   2.076   8.400  0.3164  2.0265 -1.3924
  153SAPE  H20S17001   5.638   2.202   8.484 -1.2732  1.3600 -1.7699
  153SAPE  H20T17002   5.678   2.032   8.516 -0.0022  0.8318  0.2856
  153SAPE   C3317003   6.697   1.826   6.880 -0.8667 -0.7064  0.0312
  153SAPE   H3X17004   6.762   1.916   6.885 -0.3800 -1.0653  0.2680
  153SAPE   H3Y17005   6.698   1.783   6.778 -0.8255  0.1785 -0.3542
  153SAPE   C3417006   6.763   1.726   6.976 -0.2694 -0.0226 -1.4010
  153SAPE   H4X17007   6.857   1.688   6.932 -0.9567 -0.3666 -2.6267
  153SAPE   H4Y17008   6.685   1.646   6.984 -0.8766  0.5945 -0.9898
  153SAPE   C3517009   6.785   1.771   7.119  0.7544  0.4251  0.5488
  153SAPE   H5X17010   6.683   1.783   7.161  0.3447  1.1724 -0.6090
  153SAPE   H5Y17011   6.836   1.869   7.114  0.8316  0.4581  1.8000
  153SAPE   C3617012   6.883   1.671   7.185  0.3461  0.7917 -0.0702
  153SAPE   H6X17013   6.969   1.653   7.118 -2.1525 -0.3451 -3.2355
  153SAPE   H6Y17014   6.826   1.576   7.190  0.8188  0.3382 -2.3822
  153SAPE   C3717015   6.917   1.709   7.334  0.7809  0.2742 -0.9478
  153SAPE   H7X17016   6.829   1.715   7.402  2.6573 -0.0156  1.6333
  153SAPE   H7Y17017   6.964   1.810   7.334 -0.5820  0.9420  0.2244
  153SAPE   C3817018   7.007   1.611   7.400 -0.3602  0.4810 -0.1907
  153SAPE   H8X17019   7.100   1.577   7.349  0.5875  1.3762  0.8660
  153SAPE   H8Y17020   6.948   1.519   7.419  0.8662 -0.4897 -0.9301
  153SAPE   C3917021   7.054   1.661   7.541 -0.4772  0.8271 -0.1145
  153SAPE   H9X17022   6.964   1.671   7.606  0.4806  1.6382  1.1405
  153SAPE   H9Y17023   7.096   1.763   7.534 -1.0458  1.1068  0.4936
  153SAPE  C31017024   7.151   1.576   7.622 -0.2586  0.1999  0.0818
  153SAPE  H10X17025   7.249   1.568   7.570  1.4190  0.2526  3.0092
  153SAPE  H10Y17026   7.111   1.476   7.647  1.7924  0.0828  3.6255
  153SAPE  C31117027   7.183   1.646   7.757 -0.5726 -0.1959  0.1886
  153SAPE  H11X17028   7.084   1.676   7.798 -0.2657  0.7206  0.2799
  153SAPE  H11Y17029   7.223   1.749   7.740 -1.5246 -0.0778 -1.5571
  153SAPE  C31217030   7.257   1.564   7.865  0.1850  0.5291  0.3632
  153SAPE  H12X17031   7.360   1.538   7.832  0.6054  1.4851  0.8674
  153SAPE  H12Y17032   7.203   1.467   7.870  1.5836 -0.3425 -0.6465
  153SAPE  C31317033   7.270   1.643   7.989  0.0712  0.0990  0.5798
  153SAPE  H13X17034   7.174   1.639   8.043  0.7619 -0.8448  1.7823
  153SAPE  H13Y17035   7.295   1.750   7.972 -1.9278  0.3536 -1.2474
  153SAPE  C31417036   7.371   1.574   8.085  0.0082  0.4660 -0.3426
  153SAPE  H14X17037   7.462   1.570   8.021 -0.6191  0.2175 -1.2402
  153SAPE  H14Y17038   7.341   1.469   8.106  0.1848  0.8011  1.8680
  153SAPE  C31517039   7.401   1.645   8.218 -0.1610  0.5497 -0.4186
  153SAPE  H15X17040   7.302   1.687   8.246  1.0287  1.2273  3.3587
  153SAPE  H15Y17041   7.462   1.738   8.215  0.5569  0.1494  0.9697
  153SAPE  C31617042   7.440   1.570   8.347  0.4722 -0.9972 -0.3099
  153SAPE  H16X17043   7.538   1.523   8.328  0.7650 -1.0126  1.1138
  153SAPE  H16Y17044   7.367   1.491   8.374 -0.1075 -0.5967 -0.6703
  153SAPE  C31717045   7.464   1.662   8.466 -0.1600 -0.3732 -0.1975
  153SAPE  H17X17046   7.371   1.708   8.507 -0.1894 -0.7241  0.1280
  153SAPE  H17Y17047   7.524   1.753   8.443  1.8695 -1.4187  0.7021
  153SAPE  C31817048   7.534   1.588   8.585  0.6578 -0.4621  0.9039
  153SAPE  H18X17049   7.478   1.505   8.633  0.2168  1.8604  4.7682
  153SAPE  H18Y17050   7.541   1.652   8.675  1.4494 -1.0973  1.3087
  153SAPE  H18Z17051   7.638   1.559   8.559  1.2290 -0.6244  3.1940
  154SAPE     N17052   3.909   1.891   6.329 -0.1484 -0.3995 -0.0723
  154SAPE   HN117053   3.809   1.918   6.332 -0.0516  0.1657 -1.3855
  154SAPE   HN217054   3.910   1.788   6.321  0.0240 -0.4324  0.3395
  154SAPE   HN317055   3.958   1.909   6.419  0.9554 -0.9287 -0.5481
  154SAPE   C1217056   3.972   1.964   6.213  0.9495  0.4376 -0.0408
  154SAPE  H12A17057   3.917   2.061   6.203 -0.2924 -0.0305  1.7769
  154SAPE  H12B17058   3.959   1.902   6.122  0.6619  1.6696 -0.8620
  154SAPE   C1117059   4.123   1.977   6.229  0.0743 -0.5004 -0.7747
  154SAPE  H11A17060   4.152   2.047   6.311 -2.5082  0.4047 -0.5467
  154SAPE  H11B17061   4.164   2.021   6.136  0.1095  1.9977  0.3257
  154SAPE     P17062   4.318   1.819   6.203 -0.2920  0.3236 -0.2510
  154SAPE   O1317063   4.318   1.741   6.076  0.4113  0.2569  0.4827
  154SAPE   O1417064   4.402   1.940   6.206 -0.5468  0.0305  0.1433
  154SAPE   O1217065   4.168   1.848   6.250  0.1129  0.2262 -0.2795
  154SAPE   O1117066   4.369   1.723   6.322 -0.2952 -0.1085 -0.3208
  154SAPE    C117067   4.313   1.727   6.453 -0.2800 -0.1474 -0.1356
  154SAPE    HA17068   4.384   1.787   6.514  0.5694 -1.5413  0.3055
  154SAPE    HB17069   4.218   1.783   6.461  0.6414  1.2192  2.1575
  154SAPE    C217070   4.287   1.577   6.505  0.0096 -0.8049  1.4189
  154SAPE    HS17071   4.209   1.588   6.584  0.8850 -0.4856  2.2561
  154SAPE   O2117072   4.411   1.526   6.557 -0.2672 -0.0396  0.5917
  154SAPE   C2117073   4.455   1.574   6.666 -0.5536 -1.1009  0.3606
  154SAPE   O2217074   4.395   1.643   6.744 -0.0415 -0.4924 -0.0169
  154SAPE   C2217075   4.596   1.508   6.677  1.2796 -0.0645 -0.1003
  154SAPE   H2R17076   4.576   1.398   6.677 -0.5670  0.2366 -0.4820
  154SAPE   H2S17077   4.652   1.536   6.586 -0.5859  0.1605 -1.2347
  154SAPE    C317078   4.224   1.487   6.389 -0.0997  0.0048  0.0056
  154SAPE    HX17079   4.301   1.461   6.313 -0.6226 -0.5578 -0.3430
  154SAPE    HY17080   4.154   1.551   6.333 -0.1519 -0.3693 -0.3582
  154SAPE   O3117081   4.169   1.369   6.462 -0.0977  0.1209  0.1330
  154SAPE   C3117082   4.248   1.265   6.471 -0.3029  0.0618 -0.5464
  154SAPE   O3217083   4.363   1.257   6.441  0.0653  0.3134  0.3083
  154SAPE   C3217084   4.176   1.158   6.561 -0.7751 -0.3755  0.1491
  154SAPE   H2X17085   4.200   1.061   6.511  1.9856  1.0279 -1.5297
  154SAPE   H2Y17086   4.070   1.181   6.583  0.0538  3.8022  0.5661
  154SAPE   C2317087   4.679   1.542   6.806  0.0771  0.5658  0.8847
  154SAPE   H3R17088   4.748   1.456   6.821 -0.4115  0.0263  0.1659
  154SAPE   H3S17089   4.605   1.536   6.889 -0.4286 -0.0381  0.4049
  154SAPE   C2417090   4.750   1.673   6.807  0.3649 -0.6268  0.1295
  154SAPE   H4R17091   4.668   1.746   6.796  0.5759  0.3088  3.4486
  154SAPE   H4S17092   4.806   1.664   6.712 -2.4483 -0.6443 -1.6349
  154SAPE   C2517093   4.848   1.707   6.913  0.1872 -0.1245 -0.3896
  154SAPE   H5R17094   4.950   1.728   6.877  0.0265 -0.6403 -1.1646
  154SAPE   C2617095   4.820   1.726   7.042 -0.2801  0.2945  0.2118
  154SAPE   H6R17096   4.895   1.768   7.111 -0.2149  2.0590 -0.8623
  154SAPE   C2717097   4.680   1.718   7.084  0.3373 -0.4648 -0.1943
  154SAPE   H7R17098   4.612   1.705   6.997  0.5536 -0.5767 -0.3474
  154SAPE   H7S17099   4.658   1.818   7.126  2.2965  0.3820 -1.0418
  154SAPE   C2817100   4.652   1.614   7.188 -0.7323  0.0462 -0.0914
  154SAPE   H8R17101   4.601   1.522   7.153 -0.5778 -1.6039  3.5728
  154SAPE   C2917102   4.700   1.614   7.316 -1.3012 -0.4080 -0.8525
  154SAPE   H9R17103   4.684   1.529   7.383 -2.5425  0.3998 -0.0742
  154SAPE  C21017104   4.785   1.725   7.388 -0.2867 -0.3666  0.6353
  154SAPE  H10R17105   4.823   1.794   7.310 -0.6754 -0.4447  0.3704
  154SAPE  H10S17106   4.873   1.675   7.433  0.3217  1.6557  1.7972
  154SAPE  C21117107   4.685   1.790   7.489 -0.0396 -0.4261 -0.2343
  154SAPE  H11R17108   4.614   1.862   7.446 -0.3228 -1.2967 -1.2664
  154SAPE  C21217109   4.675   1.769   7.615 -0.1523  0.1538 -0.4640
  154SAPE  H12R17110   4.607   1.823   7.683  0.5271 -1.6018  1.7582
  154SAPE  C21317111   4.766   1.685   7.697  0.3451 -0.4449 -0.6800
  154SAPE  H13R17112   4.835   1.755   7.748 -0.7308  2.5448 -3.0226
  154SAPE  H13S17113   4.832   1.623   7.633  0.9318 -1.9458  1.3080
  154SAPE  C21417114   4.690   1.603   7.801 -0.6315  0.1933  0.1620
  154SAPE  H14R17115   4.601   1.551   7.762 -0.6716  0.9975 -0.8654
  154SAPE  C21517116   4.711   1.603   7.934  0.8920  0.5156 -0.2966
  154SAPE  H15R17117   4.637   1.550   7.996  1.3563  0.7960  0.5111
  154SAPE  C21617118   4.815   1.680   8.010  0.3296  0.0991 -0.5808
  154SAPE  H16R17119   4.744   1.713   8.089  1.0836  0.0157  0.1396
  154SAPE  H16S17120   4.858   1.760   7.946  0.7125  0.8195  0.5585
  154SAPE  C21717121   4.928   1.584   8.056  0.3902  0.0383  0.4743
  154SAPE  H17R17122   4.995   1.550   7.973 -0.7078 -0.6876 -0.1486
  154SAPE  H17S17123   4.879   1.490   8.088 -0.3490  0.3866  0.3741
  154SAPE  C21817124   5.002   1.659   8.181  0.1336  0.1223  0.1786
  154SAPE  H18R17125   5.060   1.747   8.145 -0.1729  0.4534  0.4946
  154SAPE  H18S17126   5.073   1.580   8.214 -0.1026 -0.2983 -0.2868
  154SAPE  C21917127   4.915   1.688   8.295  0.9146 -0.2293 -0.7575
  154SAPE  H19R17128   4.859   1.784   8.292 -0.8709 -1.1685  0.4449
  154SAPE  H19S17129   4.983   1.696   8.382  0.5821 -2.8654 -0.1523
  154SAPE  C22017130   4.826   1.573   8.358  0.7886 -0.7478  0.0090
  154SAPE  H20R17131   4.878   1.477   8.376 -2.5513 -2.5485  0.9760
  154SAPE  H20S17132   4.749   1.552   8.281 -1.0608  0.9426  1.2861
  154SAPE  H20T17133   4.772   1.617   8.445  2.0416  3.4589 -1.0846
  154SAPE   C3317134   4.253   1.138   6.694  0.4360 -0.0734  0.3048
  154SAPE   H3X17135   4.234   1.227   6.758 -0.3765  1.4055 -1.8604
  154SAPE   H3Y17136   4.361   1.117   6.677  0.3061  0.4822 -1.4299
  154SAPE   C3417137   4.201   1.018   6.781  0.0786 -0.4609  0.0386
  154SAPE   H4X17138   4.194   0.934   6.709 -2.3591 -0.2246 -0.0815
  154SAPE   H4Y17139   4.110   1.053   6.834  0.0979  3.3568 -2.0384
  154SAPE   C3517140   4.292   0.981   6.904  0.1419  0.2408  0.8538
  154SAPE   H5X17141   4.332   1.073   6.951  1.0174 -0.4046  1.3988
  154SAPE   H5Y17142   4.384   0.937   6.859  0.5251  0.5926  1.2853
  154SAPE   C3617143   4.219   0.887   6.999  0.0617  0.0253 -0.4603
  154SAPE   H6X17144   4.176   0.802   6.941 -0.7281  0.5576 -0.6775
  154SAPE   H6Y17145   4.134   0.930   7.057  0.1206 -2.9951  2.0914
  154SAPE   C3717146   4.317   0.829   7.104 -0.0138  1.3012  0.3780
  154SAPE   H7X17147   4.386   0.903   7.149  0.9043 -0.9411  2.9092
  154SAPE   H7Y17148   4.371   0.751   7.045  0.1888  0.5333  1.5453
  154SAPE   C3817149   4.265   0.764   7.235  0.0868  0.0787  0.2552
  154SAPE   H8X17150   4.208   0.675   7.199 -2.8731  2.1318 -0.4917
  154SAPE   H8Y17151   4.194   0.836   7.281  0.5507  1.2986 -0.8888
  154SAPE   C3917152   4.371   0.740   7.342  0.3654  0.2139  0.2407
  154SAPE   H9X17153   4.396   0.841   7.380 -1.3601  1.3348 -1.4880
  154SAPE   H9Y17154   4.460   0.680   7.311  0.2779 -0.2537  0.8603
  154SAPE  C31017155   4.316   0.659   7.470  0.3108  0.4391 -0.0497
  154SAPE  H10X17156   4.299   0.551   7.449  1.5421  0.5006 -1.4707
  154SAPE  H10Y17157   4.220   0.702   7.506 -0.7833 -0.0713 -2.1785
  154SAPE  C31117158   4.411   0.667   7.588  0.7586 -0.3030  0.5793
  154SAPE  H11X17159   4.450   0.771   7.593 -1.5130  0.5547  2.4278
  154SAPE  H11Y17160   4.501   0.603   7.576 -0.2982 -1.5607 -1.1882
  154SAPE  C31217161   4.334   0.642   7.721 -0.1199  0.5305 -0.0087
  154SAPE  H12X17162   4.289   0.540   7.715 -1.4955  1.1397 -0.4475
  154SAPE  H12Y17163   4.255   0.719   7.733  0.2054  0.5868  2.1612
  154SAPE  C31317164   4.420   0.651   7.841 -0.2822  0.5039 -0.3428
  154SAPE  H13X17165   4.467   0.750   7.852  0.0783  0.1073  2.3943
  154SAPE  H13Y17166   4.496   0.570   7.835 -0.1197  0.5741  0.6071
  154SAPE  C31417167   4.352   0.630   7.979 -0.0645  0.4418 -0.2052
  154SAPE  H14X17168   4.308   0.528   7.988 -1.0737  1.0577  2.6192
  154SAPE  H14Y17169   4.254   0.683   7.977  0.0119  0.5947  0.1248
  154SAPE  C31517170   4.451   0.680   8.086 -0.1977 -0.5208  0.3269
  154SAPE  H15X17171   4.469   0.788   8.063 -1.4033 -0.4280 -0.2454
  154SAPE  H15Y17172   4.545   0.630   8.052  0.2393  0.2167  0.4169
  154SAPE  C31617173   4.398   0.658   8.217  0.0375 -0.1576  0.0112
  154SAPE  H16X17174   4.375   0.553   8.242  2.0855  0.1569  4.0337
  154SAPE  H16Y17175   4.306   0.711   8.248  1.0703 -0.0890  3.3668
  154SAPE  C31717176   4.490   0.709   8.331 -0.7099 -0.5549  0.2151
  154SAPE  H17X17177   4.440   0.679   8.426 -1.6089 -2.1142 -0.7118
  154SAPE  H17Y17178   4.507   0.819   8.332  1.8912 -0.8288 -1.6606
  154SAPE  C31817179   4.629   0.635   8.346 -0.3938 -0.0369 -0.2582
  154SAPE  H18X17180   4.604   0.528   8.330  0.1840 -0.1782 -0.2403
  154SAPE  H18Y17181   4.678   0.652   8.444 -1.4059 -0.3718  0.3236
  154SAPE  H18Z17182   4.705   0.662   8.270 -1.4019  1.7048 -0.6834
  155SAPE     N17183   4.834   1.804   6.254  0.9314  0.2233 -0.2316
  155SAPE   HN117184   4.888   1.738   6.194 -1.4297 -1.1478 -1.0098
  155SAPE   HN217185   4.750   1.754   6.289 -1.8488  3.6244 -1.3651
  155SAPE   HN317186   4.806   1.886   6.196  0.3467 -0.5925 -1.1336
  155SAPE   C1217187   4.921   1.847   6.370 -0.2144 -0.2241  0.0168
  155SAPE  H12A17188   4.862   1.888   6.454  0.4368  0.4403  0.1601
  155SAPE  H12B17189   4.988   1.926   6.328  0.3649 -0.8266 -0.2140
  155SAPE   C1117190   5.006   1.728   6.409 -0.7749  0.3428 -1.1371
  155SAPE  H11A17191   4.943   1.643   6.444  1.1574 -2.0196 -3.0786
  155SAPE  H11B17192   5.080   1.769   6.481 -1.3787  1.7494 -1.2737
  155SAPE     P17193   5.144   1.551   6.279 -0.1454 -0.1077 -0.1457
  155SAPE   O1317194   5.052   1.471   6.193  0.4768  0.0362 -0.0964
  155SAPE   O1417195   5.277   1.573   6.225  0.1820 -0.2964  0.4767
  155SAPE   O1217196   5.076   1.691   6.296 -0.5606  0.9087  0.2083
  155SAPE   O1117197   5.157   1.490   6.431  0.3953 -0.2419  0.1919
  155SAPE    C117198   5.229   1.372   6.464 -0.2243 -0.4472  0.7337
  155SAPE    HA17199   5.209   1.302   6.380 -0.3188  1.1872 -0.6653
  155SAPE    HB17200   5.337   1.398   6.474 -0.5058  0.2964  2.1376
  155SAPE    C217201   5.189   1.307   6.598  0.0752  0.8676  0.3168
  155SAPE    HS17202   5.245   1.211   6.599  0.4474  1.0845  0.9442
  155SAPE   O2117203   5.050   1.295   6.613 -0.0839  0.1542 -0.5599
  155SAPE   C2117204   4.989   1.210   6.527 -0.1507 -0.4476  0.2867
  155SAPE   O2217205   5.047   1.136   6.450  0.2998  0.0292  0.3867
  155SAPE   C2217206   4.843   1.225   6.535  0.7329 -0.5264 -0.0607
  155SAPE   H2R17207   4.822   1.332   6.554  1.9196 -0.4631  1.0001
  155SAPE   H2S17208   4.801   1.201   6.435  0.6018 -0.0894 -0.1128
  155SAPE    C317209   5.237   1.396   6.714 -0.8193 -0.4991  0.0799
  155SAPE    HX17210   5.199   1.500   6.710  1.4737  0.5078  1.8717
  155SAPE    HY17211   5.347   1.409   6.702 -1.2734  3.2808 -1.5492
  155SAPE   O3117212   5.209   1.333   6.839  0.5889  0.2887 -0.4913
  155SAPE   C3117213   5.125   1.401   6.917  0.0433 -0.6241 -0.0173
  155SAPE   O3217214   5.086   1.516   6.905 -0.1841 -0.7516 -0.0939
  155SAPE   C3217215   5.097   1.314   7.040  0.2358  0.8303  0.4108
  155SAPE   H2X17216   5.184   1.248   7.060 -1.1736 -1.6016 -1.0011
  155SAPE   H2Y17217   5.009   1.249   7.021  0.6514  0.4818 -0.3905
  155SAPE   C2317218   4.773   1.115   6.619 -0.9230 -0.7354 -0.0235
  155SAPE   H3R17219   4.779   1.030   6.548  1.2423  0.9889 -2.0924
  155SAPE   H3S17220   4.670   1.157   6.629 -0.4589  0.1843  1.1600
  155SAPE   C2417221   4.837   1.112   6.755  0.3312  0.1612 -0.1304
  155SAPE   H4R17222   4.847   1.218   6.788 -3.1733  0.4658  0.3493
  155SAPE   H4S17223   4.940   1.071   6.750  1.5325  2.9228  0.3673
  155SAPE   C2517224   4.749   1.027   6.838 -0.3728 -0.1217 -0.0029
  155SAPE   H5R17225   4.720   0.930   6.794 -0.7485 -0.7634  1.5646
  155SAPE   C2617226   4.683   1.061   6.945  0.0043  0.2276  0.3701
  155SAPE   H6R17227   4.629   0.984   7.002  1.1837 -2.3551 -1.7628
  155SAPE   C2717228   4.691   1.192   7.020  0.2473  0.3336 -0.6539
  155SAPE   H7R17229   4.753   1.264   6.964  1.4796 -0.2136 -0.0341
  155SAPE   H7S17230   4.745   1.172   7.115 -0.3231 -0.3681 -0.4644
  155SAPE   C2817231   4.555   1.246   7.059 -0.2073 -0.1506 -0.3165
  155SAPE   H8R17232   4.493   1.280   6.974 -0.0175  0.8842 -0.0487
  155SAPE   C2917233   4.496   1.263   7.178 -0.7623  0.7110 -0.7989
  155SAPE   H9R17234   4.415   1.335   7.192 -1.3124 -0.0738  0.1756
  155SAPE  C21017235   4.554   1.218   7.314 -0.0345 -0.3630 -0.0560
  155SAPE  H10R17236   4.665   1.216   7.313 -0.0351 -1.2598  0.2102
  155SAPE  H10S17237   4.521   1.117   7.346  0.7384 -0.6666 -0.1792
  155SAPE  C21117238   4.504   1.324   7.411 -0.9718  0.7193  0.0543
  155SAPE  H11R17239   4.434   1.400   7.373 -0.2948  0.5549 -1.5798
  155SAPE  C21217240   4.544   1.317   7.541  0.2363 -0.0557  0.8767
  155SAPE  H12R17241   4.527   1.410   7.598 -0.1860 -0.3465  1.2321
  155SAPE  C21317242   4.624   1.204   7.615  0.1214  0.0965 -0.5222
  155SAPE  H13R17243   4.717   1.242   7.661 -0.4562 -1.1364  1.8365
  155SAPE  H13S17244   4.645   1.128   7.538  1.1281  0.8559 -1.0165
  155SAPE  C21417245   4.536   1.128   7.713 -0.4976  0.2622  0.4909
  155SAPE  H14R17246   4.474   1.047   7.672 -0.4551  0.7088 -0.4872
  155SAPE  C21517247   4.510   1.158   7.841 -0.1696  0.5643  0.4066
  155SAPE  H15R17248   4.437   1.097   7.895  0.7887 -1.7435 -0.7803
  155SAPE  C21617249   4.562   1.272   7.923 -0.4538 -0.1112  0.1866
  155SAPE  H16R17250   4.478   1.341   7.945  0.1313  0.6460  0.0776
  155SAPE  H16S17251   4.638   1.337   7.876  0.1800 -0.1940  1.0634
  155SAPE  C21717252   4.624   1.228   8.061 -0.3002  0.2663 -0.7745
  155SAPE  H17R17253   4.676   1.313   8.109  0.4875 -0.7844  0.2708
  155SAPE  H17S17254   4.699   1.149   8.042  1.5164  2.0487 -1.4104
  155SAPE  C21817255   4.515   1.185   8.162  0.7182  0.3722  0.3912
  155SAPE  H18R17256   4.471   1.090   8.126 -1.1636  0.1076  3.0318
  155SAPE  H18S17257   4.434   1.261   8.162 -1.3611 -1.7014  1.2305
  155SAPE  C21917258   4.567   1.167   8.308  0.6185 -0.0108 -0.6510
  155SAPE  H19R17259   4.618   1.254   8.355  0.2800 -0.4222  0.5082
  155SAPE  H19S17260   4.648   1.091   8.303 -0.7743 -1.5462 -1.0105
  155SAPE  C22017261   4.443   1.126   8.384 -0.3090  0.0399 -0.0626
  155SAPE  H20R17262   4.415   1.018   8.385 -2.3233  0.5217  0.7167
  155SAPE  H20S17263   4.356   1.181   8.343  0.1499 -0.4288 -1.7332
  155SAPE  H20T17264   4.453   1.142   8.494  1.3345 -1.4393  0.0644
  155SAPE   C3317265   5.061   1.396   7.162 -0.2614  0.0101 -0.1399
  155SAPE   H3X17266   4.968   1.453   7.139 -0.0313  1.6282  2.5534
  155SAPE   H3Y17267   5.142   1.473   7.166 -0.5812  0.6238 -2.9400
  155SAPE   C3417268   5.051   1.302   7.280 -0.1245 -0.1120 -0.5159
  155SAPE   H4X17269   5.148   1.253   7.303 -0.6465 -2.2434 -2.4432
  155SAPE   H4Y17270   4.994   1.209   7.256 -0.6115  0.5408 -2.0241
  155SAPE   C3517271   4.998   1.375   7.406  0.5336  0.1557  0.0138
  155SAPE   H5X17272   4.898   1.418   7.383 -0.0952 -1.9846 -1.5880
  155SAPE   H5Y17273   5.056   1.465   7.436  2.1682 -0.7017 -0.4855
  155SAPE   C3617274   5.003   1.281   7.526  0.4127 -0.1595  0.8658
  155SAPE   H6X17275   5.089   1.211   7.521 -0.0381 -0.6453 -0.2572
  155SAPE   H6Y17276   4.923   1.204   7.525 -0.7315  0.9880  1.1390
  155SAPE   C3717277   5.003   1.349   7.664  0.2925  0.6216 -0.5491
  155SAPE   H7X17278   4.912   1.412   7.666 -0.4850 -0.4286 -1.4290
  155SAPE   H7Y17279   5.087   1.419   7.684  0.6042  0.1630 -0.2263
  155SAPE   C3817280   5.018   1.240   7.772 -0.1393  0.1353  0.3362
  155SAPE   H8X17281   5.103   1.171   7.752 -1.6498 -1.7219 -0.0352
  155SAPE   H8Y17282   4.925   1.179   7.775 -0.4524  0.6003  3.3394
  155SAPE   C3917283   5.020   1.292   7.917 -0.1765  0.4327  0.1595
  155SAPE   H9X17284   4.923   1.345   7.928 -0.7510 -0.6252  0.3435
  155SAPE   H9Y17285   5.103   1.363   7.938 -1.1047  1.1558  1.4728
  155SAPE  C31017286   5.028   1.187   8.031 -0.0674  0.0404  0.4686
  155SAPE  H10X17287   4.943   1.116   8.019  0.6229 -1.0233  1.5620
  155SAPE  H10Y17288   5.020   1.242   8.127 -0.9367 -1.0654  1.0542
  155SAPE  C31117289   5.155   1.100   8.039  0.7822  0.3656 -0.2386
  155SAPE  H11X17290   5.169   1.010   7.975  1.8016  0.0225  0.4477
  155SAPE  H11Y17291   5.171   1.043   8.133  0.8639  0.3007 -0.2909
  155SAPE  C31217292   5.295   1.170   8.017  0.2583 -0.1509 -0.2200
  155SAPE  H12X17293   5.284   1.217   7.917 -0.7789  2.0127  0.8371
  155SAPE  H12Y17294   5.374   1.092   8.010 -1.2933 -1.8404  0.2835
  155SAPE  C31317295   5.325   1.278   8.127  0.5447  0.0031 -0.2374
  155SAPE  H13X17296   5.247   1.357   8.119  0.6225  0.1571  0.4878
  155SAPE  H13Y17297   5.411   1.332   8.082  1.0259 -2.4577 -2.5551
  155SAPE  C31417298   5.356   1.215   8.266 -0.3117  0.4784  0.4004
  155SAPE  H14X17299   5.438   1.142   8.256 -2.5325 -2.5873  2.6720
  155SAPE  H14Y17300   5.265   1.163   8.302 -1.4194  1.5232 -0.7575
  155SAPE  C31517301   5.395   1.325   8.375 -0.4711  0.7727 -0.0134
  155SAPE  H15X17302   5.480   1.395   8.362 -0.4079  1.5385  3.5677
  155SAPE  H15Y17303   5.428   1.270   8.466 -0.7666  1.7672  0.7094
  155SAPE  C31617304   5.279   1.409   8.429 -0.3429  0.1601  0.1100
  155SAPE  H16X17305   5.201   1.335   8.458  0.6220 -0.0534  2.4361
  155SAPE  H16Y17306   5.245   1.486   8.357  1.1554 -0.3330 -1.1848
  155SAPE  C31717307   5.321   1.483   8.563 -0.3137  0.6189  1.1703
  155SAPE  H17X17308   5.234   1.548   8.584  0.0899  1.8975 -0.8527
  155SAPE  H17Y17309   5.406   1.550   8.537  0.5153 -1.4559 -2.1703
  155SAPE  C31817310   5.349   1.401   8.688  0.0253  0.4505  0.0082
  155SAPE  H18X17311   5.440   1.340   8.674 -1.3844 -1.8028  0.0350
  155SAPE  H18Y17312   5.261   1.340   8.720 -1.1444  1.9663 -0.1771
  155SAPE  H18Z17313   5.378   1.477   8.764 -0.3799 -0.1245  0.7614
  156SAPE     N17314   2.863   1.215   6.286  0.1461  0.8613  0.5573
  156SAPE   HN117315   2.781   1.165   6.246 -0.2651  1.7573  0.2557
  156SAPE   HN217316   2.843   1.231   6.386  1.1844 -0.0362  0.9297
  156SAPE   HN317317   2.853   1.309   6.241  1.7081  0.7502 -0.0993
  156SAPE   C1217318   2.989   1.126   6.260  0.5208 -0.7351  0.3839
  156SAPE  H12A17319   3.077   1.185   6.293  0.3890 -0.4672  0.2659
  156SAPE  H12B17320   2.996   1.092   6.154  1.7680 -2.0794  0.8738
  156SAPE   C1117321   2.968   0.988   6.335  0.8384  0.0712  0.0368
  156SAPE  H11A17322   2.936   1.001   6.441 -0.3630 -0.5898 -0.2207
  156SAPE  H11B17323   3.074   0.955   6.335  1.5316  2.1575  0.3004
  156SAPE     P17324   2.839   0.761   6.305  0.3274 -0.0757  0.0714
  156SAPE   O1317325   2.729   0.723   6.216 -0.6605 -0.2510 -0.2764
  156SAPE   O1417326   2.960   0.674   6.322 -0.5579 -0.2752  0.3860
  156SAPE   O1217327   2.888   0.902   6.256 -0.2268 -0.6221 -0.0496
  156SAPE   O1117328   2.776   0.783   6.446 -0.4700  0.5667  0.2015
  156SAPE    C117329   2.661   0.872   6.458  0.2872 -0.5155  0.3107
  156SAPE    HA17330   2.690   0.974   6.426  0.2464 -0.8097 -0.6926
  156SAPE    HB17331   2.580   0.844   6.387 -0.8501 -0.3054  1.4956
  156SAPE    C217332   2.594   0.863   6.593 -0.6056 -0.7163  0.7492
  156SAPE    HS17333   2.671   0.897   6.666 -0.7614 -0.9406  1.0168
  156SAPE   O2117334   2.548   0.729   6.613 -0.0373 -0.5806 -0.0557
  156SAPE   C2117335   2.577   0.673   6.726  0.5584 -0.1672  0.0489
  156SAPE   O2217336   2.635   0.725   6.818 -0.3251  0.2148 -0.0990
  156SAPE   C2217337   2.533   0.530   6.719 -0.7388 -0.4570  0.6435
  156SAPE   H2R17338   2.430   0.532   6.678 -0.2626  0.9994 -0.5822
  156SAPE   H2S17339   2.596   0.485   6.639 -2.2017  0.6297 -1.2005
  156SAPE    C317340   2.475   0.952   6.617 -0.5673 -0.3645 -0.0523
  156SAPE    HX17341   2.392   0.923   6.549  1.5481 -0.6560 -2.7307
  156SAPE    HY17342   2.512   1.046   6.571 -0.6001 -1.1340 -1.7356
  156SAPE   O3117343   2.450   0.977   6.758  0.0092  0.1921  0.1573
  156SAPE   C3117344   2.352   0.895   6.803  0.8615 -0.7964  0.5811
  156SAPE   O3217345   2.306   0.800   6.747  0.0423 -0.4024 -0.3251
  156SAPE   C3217346   2.296   0.960   6.936  0.3289 -0.0535  0.1699
  156SAPE   H2X17347   2.229   1.041   6.900  0.8762  0.5597  0.5070
  156SAPE   H2Y17348   2.384   0.990   6.996  0.6851  0.6174 -0.6531
  156SAPE   C2317349   2.543   0.466   6.851 -0.1271 -0.1783 -0.0661
  156SAPE   H3R17350   2.568   0.533   6.936  0.4196  1.0480 -1.1532
  156SAPE   H3S17351   2.618   0.386   6.837  1.0389  1.2505 -2.7135
  156SAPE   C2417352   2.418   0.380   6.883  0.3134  0.6892 -0.5789
  156SAPE   H4R17353   2.449   0.317   6.969 -0.7617  0.7962 -0.1040
  156SAPE   H4S17354   2.391   0.310   6.802  0.6154 -2.1409  1.6103
  156SAPE   C2517355   2.302   0.475   6.899 -0.3309 -0.3340  0.3222
  156SAPE   H5R17356   2.269   0.519   6.804 -2.5758  0.3704  1.3488
  156SAPE   C2617357   2.241   0.496   7.012 -0.1848 -0.3755  0.3806
  156SAPE   H6R17358   2.164   0.574   7.007 -2.0442 -2.0556  1.4439
  156SAPE   C2717359   2.273   0.434   7.147 -0.4166  0.1054 -0.3926
  156SAPE   H7R17360   2.322   0.336   7.129 -2.5319 -0.6718 -2.5872
  156SAPE   H7S17361   2.176   0.410   7.196  0.7124 -2.5504  0.7137
  156SAPE   C2817362   2.368   0.525   7.225 -0.3346  0.1365  0.6681
  156SAPE   H8R17363   2.449   0.573   7.167 -0.7170 -1.6750 -1.5016
  156SAPE   C2917364   2.380   0.542   7.354  0.8791 -0.0675  0.4963
  156SAPE   H9R17365   2.453   0.612   7.399  0.3136 -0.9996  3.0181
  156SAPE  C21017366   2.279   0.481   7.450  0.0757  0.1863  0.6187
  156SAPE  H10R17367   2.335   0.398   7.500  0.0750  0.2157  0.6676
  156SAPE  H10S17368   2.189   0.435   7.403  0.5364  0.2103 -0.3107
  156SAPE  C21117369   2.233   0.583   7.552 -0.1803  1.4862  0.0697
  156SAPE  H11R17370   2.179   0.667   7.506  0.1163 -0.1076 -3.5104
  156SAPE  C21217371   2.262   0.573   7.684 -0.3356 -0.1542 -0.1354
  156SAPE  H12R17372   2.218   0.647   7.751  0.7244  0.6756 -0.3287
  156SAPE  C21317373   2.355   0.474   7.751  0.5737  0.9853 -0.3470
  156SAPE  H13R17374   2.418   0.534   7.820  0.1550  3.0136 -1.6373
  156SAPE  H13S17375   2.432   0.429   7.686  0.0929 -0.8996  0.3288
  156SAPE  C21417376   2.264   0.368   7.814  0.6320 -0.3376  0.3462
  156SAPE  H14R17377   2.200   0.317   7.740  2.5330 -1.6385 -0.4803
  156SAPE  C21517378   2.267   0.330   7.945 -0.3815 -0.3041 -0.0276
  156SAPE  H15R17379   2.187   0.264   7.982 -1.3210  1.3294  0.9431
  156SAPE  C21617380   2.349   0.385   8.054 -0.5456  0.3726  0.9216
  156SAPE  H16R17381   2.452   0.392   8.013 -0.7278  1.7435  0.6236
  156SAPE  H16S17382   2.362   0.321   8.144  1.5595 -3.1502 -1.6296
  156SAPE  C21717383   2.296   0.529   8.095  0.6062 -0.4788 -0.2297
  156SAPE  H17R17384   2.212   0.513   8.166 -2.7332 -0.3394 -3.8076
  156SAPE  H17S17385   2.259   0.576   8.002 -1.8873 -0.6406  0.5987
  156SAPE  C21817386   2.409   0.613   8.160 -0.0154  0.2177  0.5964
  156SAPE  H18R17387   2.372   0.715   8.184 -2.2599 -0.6767  1.1110
  156SAPE  H18S17388   2.486   0.631   8.081  0.7078  0.0767  1.2599
  156SAPE  C21917389   2.470   0.543   8.284  0.4052  0.4750 -0.1667
  156SAPE  H19R17390   2.543   0.611   8.333  3.6685 -2.0648 -1.1396
  156SAPE  H19S17391   2.519   0.447   8.257 -0.3530 -0.6075  2.0501
  156SAPE  C22017392   2.364   0.509   8.391  0.4485 -0.4566  0.2355
  156SAPE  H20R17393   2.419   0.482   8.483 -0.2620  0.7513  1.0327
  156SAPE  H20S17394   2.298   0.423   8.366 -2.5336  1.9936 -1.0257
  156SAPE  H20T17395   2.298   0.596   8.409  2.7691  1.2884  0.7143
  156SAPE   C3317396   2.203   0.852   7.004 -0.1367  0.4463  0.0669
  156SAPE   H3X17397   2.273   0.773   7.040 -1.0106 -0.5874 -0.4714
  156SAPE   H3Y17398   2.135   0.813   6.927  1.3730  2.2448 -2.3251
  156SAPE   C3417399   2.117   0.907   7.115 -0.4795  0.3742 -1.0260
  156SAPE   H4X17400   2.031   0.956   7.065  0.8542  0.7406 -3.0675
  156SAPE   H4Y17401   2.183   0.980   7.168  2.1250 -2.1156 -0.5835
  156SAPE   C3517402   2.057   0.808   7.214 -0.1907  0.0797 -0.0338
  156SAPE   H5X17403   2.147   0.776   7.271 -1.2315 -1.3071  0.9073
  156SAPE   H5Y17404   2.023   0.716   7.161  0.8224 -0.5301  0.3317
  156SAPE   C3617405   1.939   0.850   7.307 -0.3049 -0.1624  0.0003
  156SAPE   H6X17406   1.907   0.760   7.363 -0.6681  0.1487  0.3086
  156SAPE   H6Y17407   1.856   0.885   7.242  1.3576  2.4626 -0.8766
  156SAPE   C3717408   1.963   0.952   7.413 -0.3120 -0.4792 -0.3165
  156SAPE   H7X17409   1.952   1.053   7.368 -0.9410 -0.4525 -0.1016
  156SAPE   H7Y17410   2.068   0.932   7.443  0.5548  2.1114 -1.2949
  156SAPE   C3817411   1.876   0.947   7.543  0.0481 -0.8693 -0.3183
  156SAPE   H8X17412   1.768   0.940   7.518 -0.1776  1.7380 -0.3462
  156SAPE   H8Y17413   1.883   1.044   7.596  1.2858  0.3746 -2.6231
  156SAPE   C3917414   1.908   0.843   7.659 -0.0193 -0.4222 -0.1096
  156SAPE   H9X17415   2.016   0.850   7.683  0.4015  0.3175 -2.0473
  156SAPE   H9Y17416   1.885   0.739   7.628 -1.5698  0.0001 -0.4808
  156SAPE  C31017417   1.833   0.872   7.790 -0.6802  0.6347  0.3843
  156SAPE  H10X17418   1.723   0.871   7.777 -0.6423 -1.2613  0.0283
  156SAPE  H10Y17419   1.858   0.973   7.830 -1.2931 -0.3327  3.4450
  156SAPE  C31117420   1.856   0.767   7.897 -0.3050  0.2409  0.1326
  156SAPE  H11X17421   1.956   0.775   7.945 -0.3465 -2.6768  0.8682
  156SAPE  H11Y17422   1.847   0.667   7.848 -2.9630  1.5180 -2.3245
  156SAPE  C31217423   1.762   0.769   8.021  1.1025 -0.9929  0.0901
  156SAPE  H12X17424   1.769   0.666   8.063 -0.1650 -0.1015  2.7197
  156SAPE  H12Y17425   1.658   0.791   7.988  1.5735 -0.8585 -1.3481
  156SAPE  C31317426   1.812   0.869   8.126 -0.3494  0.4025  0.1253
  156SAPE  H13X17427   1.778   0.966   8.083  1.9347  0.6186 -1.3834
  156SAPE  H13Y17428   1.923   0.881   8.123 -0.3273  0.1653 -0.0282
  156SAPE  C31417429   1.769   0.844   8.275 -0.0538  0.2785  0.0562
  156SAPE  H14X17430   1.829   0.915   8.336  0.4522 -0.2206  0.1441
  156SAPE  H14Y17431   1.803   0.741   8.301  2.0118  1.0483  0.6090
  156SAPE  C31517432   1.614   0.852   8.292  0.1470  0.3296  0.0322
  156SAPE  H15X17433   1.559   0.767   8.246  3.6795 -2.9362  1.2968
  156SAPE  H15Y17434   1.574   0.942   8.240 -2.3812 -1.3530 -1.1699
  156SAPE  C31617435   1.573   0.848   8.438 -0.3617  0.4197  0.4780
  156SAPE  H16X17436   1.462   0.856   8.451 -0.7236 -3.3465  0.8128
  156SAPE  H16Y17437   1.608   0.943   8.484  2.6253 -0.7724  0.8829
  156SAPE  C31717438   1.628   0.740   8.527 -0.3310 -0.0208  0.6664
  156SAPE  H17X17439   1.735   0.766   8.545  0.0693 -0.4427 -0.9019
  156SAPE  H17Y17440   1.627   0.649   8.464  0.7062 -0.9886  2.0019
  156SAPE  C31817441   1.546   0.726   8.650  0.4808  0.4762 -0.2704
  156SAPE  H18X17442   1.546   0.816   8.715 -2.3076  0.9146 -0.7367
  156SAPE  H18Y17443   1.604   0.661   8.719 -0.1393  0.2401  0.0350
  156SAPE  H18Z17444   1.445   0.680   8.637  1.8283 -3.1952  0.9258
  157SAPE     N17445   5.836   4.163   5.912  0.2029 -0.6846 -0.4676
  157SAPE   HN117446   5.939   4.178   5.905  0.1858 -0.1731  0.3363
  157SAPE   HN217447   5.830   4.074   5.965 -0.5634 -2.3028 -3.0590
  157SAPE   HN317448   5.800   4.155   5.814 -0.3326  1.7139 -0.5092
  157SAPE   C1217449   5.771   4.276   5.981  0.4004  0.0839 -0.2982
  157SAPE  H12A17450   5.754   4.241   6.085 -0.3630 -0.4218 -0.5877
  157SAPE  H12B17451   5.668   4.299   5.945  0.4036  0.8370  0.1474
  157SAPE   C1117452   5.859   4.405   5.984  0.0790 -0.0780 -0.2920
  157SAPE  H11A17453   5.813   4.485   6.046  0.3000  0.7580 -1.1785
  157SAPE  H11B17454   5.861   4.450   5.882  2.2013 -0.9936 -0.7141
  157SAPE     P17455   6.109   4.462   6.050 -0.0753  0.0955  0.4331
  157SAPE   O1317456   6.222   4.421   5.957 -0.4578 -0.2745 -0.1239
  157SAPE   O1417457   6.052   4.596   6.052  0.3640  0.3231 -0.2481
  157SAPE   O1217458   5.991   4.358   6.019  0.2241 -0.4530  0.6579
  157SAPE   O1117459   6.158   4.424   6.195 -0.2647 -0.1764 -0.1826
  157SAPE    C117460   6.173   4.291   6.238 -0.9691 -0.6493  0.6608
  157SAPE    HA17461   6.080   4.231   6.227 -0.8791 -0.9599  1.5314
  157SAPE    HB17462   6.256   4.248   6.178 -0.9028  1.2508 -0.7209
  157SAPE    C217463   6.222   4.289   6.390  0.1076 -0.3784  0.5687
  157SAPE    HS17464   6.214   4.180   6.412 -1.3332 -0.8283 -1.8293
  157SAPE   O2117465   6.135   4.365   6.473 -0.0925 -0.4887 -0.1228
  157SAPE   C2117466   6.032   4.302   6.519  0.3584 -0.2299 -0.8666
  157SAPE   O2217467   5.982   4.198   6.476 -0.1617 -0.5722  0.4852
  157SAPE   C2217468   5.971   4.387   6.627  0.0546 -0.9368 -0.3436
  157SAPE   H2R17469   5.969   4.492   6.593  1.2353 -1.0417 -0.7944
  157SAPE   H2S17470   5.863   4.360   6.634 -0.0536 -0.5798 -0.6254
  157SAPE    C317471   6.364   4.345   6.388 -0.3498 -0.2564  0.7425
  157SAPE    HX17472   6.360   4.434   6.321 -4.1629  0.4144  1.6430
  157SAPE    HY17473   6.437   4.273   6.345  0.3039  0.2826  0.9283
  157SAPE   O3117474   6.412   4.376   6.515 -0.0144 -0.7331 -0.1469
  157SAPE   C3117475   6.439   4.277   6.607  0.0273  1.1925 -0.1239
  157SAPE   O3217476   6.429   4.153   6.597  0.7207  0.2013  0.7344
  157SAPE   C3217477   6.473   4.355   6.731  0.0881 -0.5588 -0.3138
  157SAPE   H2X17478   6.396   4.430   6.759 -1.8131 -2.5956  0.1571
  157SAPE   H2Y17479   6.569   4.402   6.702 -0.4030 -0.8531 -2.6625
  157SAPE   C2317480   6.048   4.390   6.764  0.7225  0.3981 -0.7255
  157SAPE   H3R17481   6.022   4.478   6.826  0.7849 -2.2189  3.3499
  157SAPE   H3S17482   6.157   4.399   6.745  0.4446  0.4832 -2.4912
  157SAPE   C2417483   6.033   4.256   6.835 -0.2270  0.3926  0.0400
  157SAPE   H4R17484   6.088   4.271   6.930 -0.8557  0.7204  0.3634
  157SAPE   H4S17485   6.070   4.173   6.772 -0.5228  0.5553 -0.3526
  157SAPE   C2517486   5.885   4.239   6.870  0.2238  0.2708  0.4545
  157SAPE   H5R17487   5.818   4.201   6.792 -0.4373 -0.2118  1.2422
  157SAPE   C2617488   5.834   4.244   6.995 -0.5039 -0.4069 -0.3375
  157SAPE   H6R17489   5.728   4.221   7.013 -0.1166  0.0975  3.4382
  157SAPE   C2717490   5.908   4.273   7.125  0.6109  0.3076  0.1165
  157SAPE   H7R17491   5.836   4.328   7.189  0.1859  2.2845 -1.9290
  157SAPE   H7S17492   5.989   4.348   7.110  1.1793 -0.6894 -2.1172
  157SAPE   C2817493   5.971   4.148   7.193 -0.0105 -0.7625  0.5223
  157SAPE   H8R17494   6.007   4.066   7.128 -0.8495 -1.6493  1.1465
  157SAPE   C2917495   5.990   4.142   7.327  0.2264 -0.1022  0.8515
  157SAPE   H9R17496   6.033   4.052   7.373 -0.8424 -1.6726 -1.0825
  157SAPE  C21017497   5.950   4.246   7.435  0.1851 -0.0507  0.3778
  157SAPE  H10R17498   5.931   4.349   7.396  0.6371  0.1949  0.7932
  157SAPE  H10S17499   6.035   4.259   7.505 -0.3116  2.4918  0.6166
  157SAPE  C21117500   5.837   4.218   7.531  0.4346 -0.0960 -0.1250
  157SAPE  H11R17501   5.738   4.252   7.498  0.8824 -0.0931 -1.5720
  157SAPE  C21217502   5.842   4.164   7.654  0.5099 -0.5765 -0.3194
  157SAPE  H12R17503   5.750   4.141   7.710 -0.3545  2.2608 -0.4542
  157SAPE  C21317504   5.967   4.109   7.716  0.1290  0.7493 -0.3959
  157SAPE  H13R17505   6.014   4.199   7.762  2.5312 -0.4827 -0.2988
  157SAPE  H13S17506   6.038   4.071   7.639  0.8851  1.9277 -0.3142
  157SAPE  C21417507   5.935   4.006   7.815  0.6594  0.2877 -0.3515
  157SAPE  H14R17508   5.828   3.995   7.839  1.1398 -0.0857  1.9197
  157SAPE  C21517509   6.019   3.932   7.886 -0.0748 -0.0017  0.2581
  157SAPE  H15R17510   5.970   3.851   7.942 -0.5905  0.3869  0.3797
  157SAPE  C21617511   6.166   3.919   7.883  0.5705  0.2174 -0.5270
  157SAPE  H16R17512   6.210   3.949   7.786 -0.0188 -0.8973 -1.1532
  157SAPE  H16S17513   6.192   3.813   7.907  1.3270  0.8888  1.9262
  157SAPE  C21717514   6.238   4.009   7.990  0.0271 -0.1541  0.9034
  157SAPE  H17R17515   6.186   4.003   8.088  2.3159  1.0889  2.2737
  157SAPE  H17S17516   6.220   4.113   7.956  0.7988 -0.4698 -0.5433
  157SAPE  C21817517   6.384   3.966   7.999  0.2537 -0.3847 -0.1149
  157SAPE  H18R17518   6.437   3.974   7.902  1.4144 -0.7714  0.4773
  157SAPE  H18S17519   6.381   3.858   8.024 -0.0433  0.2338  2.8450
  157SAPE  C21917520   6.445   4.035   8.119 -0.5118  0.4446  0.1968
  157SAPE  H19R17521   6.387   4.001   8.208 -0.0690  1.3545  0.8427
  157SAPE  H19S17522   6.414   4.141   8.107 -0.8891  0.3157  0.0280
  157SAPE  C22017523   6.598   4.029   8.145  0.6756  0.1517  0.9703
  157SAPE  H20R17524   6.628   4.114   8.210 -3.2302  2.4639  0.0950
  157SAPE  H20S17525   6.648   4.041   8.047 -1.5838 -0.8197 -0.4005
  157SAPE  H20T17526   6.622   3.932   8.194 -2.3199 -1.5490 -0.6069
  157SAPE   C3317527   6.495   4.252   6.844  0.2950  0.4047 -0.5668
  157SAPE   H3X17528   6.594   4.204   6.835 -0.1947 -0.7511 -0.0703
  157SAPE   H3Y17529   6.414   4.176   6.834  1.1383 -0.4787 -0.7882
  157SAPE   C3417530   6.470   4.322   6.977  0.1984  0.1313 -0.2453
  157SAPE   H4X17531   6.363   4.342   6.996  0.7855  0.5628  3.1152
  157SAPE   H4Y17532   6.516   4.423   6.965 -1.4134  0.9002 -0.1049
  157SAPE   C3517533   6.541   4.248   7.101  0.5656 -0.6047 -0.0868
  157SAPE   H5X17534   6.649   4.241   7.079  0.6725 -1.9808  0.7933
  157SAPE   H5Y17535   6.498   4.146   7.116  0.0089 -0.2548  0.7685
  157SAPE   C3617536   6.525   4.329   7.233 -0.5510 -0.1127  0.2580
  157SAPE   H6X17537   6.586   4.421   7.222 -0.0004 -0.6182 -1.0200
  157SAPE   H6Y17538   6.562   4.261   7.313 -0.4865 -2.9965 -2.0502
  157SAPE   C3717539   6.379   4.354   7.271 -0.3595 -1.0996 -0.6580
  157SAPE   H7X17540   6.317   4.264   7.253  0.2079 -1.1317 -2.7048
  157SAPE   H7Y17541   6.333   4.442   7.222  0.7821  0.0919  0.3227
  157SAPE   C3817542   6.367   4.389   7.420  1.5510  0.1767 -0.2076
  157SAPE   H8X17543   6.281   4.457   7.436 -0.4626 -1.5894 -2.6298
  157SAPE   H8Y17544   6.456   4.450   7.443  0.7287  1.3045  0.0761
  157SAPE   C3917545   6.350   4.268   7.508 -0.1370  0.1397 -0.1152
  157SAPE   H9X17546   6.430   4.196   7.483 -2.2187 -2.1101 -0.6397
  157SAPE   H9Y17547   6.256   4.218   7.480 -0.5942 -0.3160  2.0785
  157SAPE  C31017548   6.334   4.284   7.655  0.6678  0.3061 -0.6637
  157SAPE  H10X17549   6.314   4.191   7.713  0.8390  1.4484  1.2874
  157SAPE  H10Y17550   6.243   4.344   7.677 -1.5324 -3.6593  2.6394
  157SAPE  C31117551   6.455   4.354   7.715  0.2120  0.0760  1.2099
  157SAPE  H11X17552   6.437   4.463   7.698  2.1615  0.1953 -0.5812
  157SAPE  H11Y17553   6.537   4.312   7.652 -1.3592 -0.1864 -0.7747
  157SAPE  C31217554   6.480   4.331   7.868 -0.2283  0.4209  0.6438
  157SAPE  H12X17555   6.490   4.221   7.876 -0.7933  0.2285 -0.9149
  157SAPE  H12Y17556   6.389   4.343   7.930  0.0256 -1.5493  1.4704
  157SAPE  C31317557   6.609   4.418   7.916  0.3846 -0.8023  0.0483
  157SAPE  H13X17558   6.573   4.522   7.906  1.9571 -0.3898 -2.2141
  157SAPE  H13Y17559   6.695   4.401   7.848 -0.1970 -0.3287 -0.8231
  157SAPE  C31417560   6.654   4.394   8.064  0.5986  0.5785  0.4885
  157SAPE  H14X17561   6.722   4.475   8.098  1.3746  0.1793 -0.0873
  157SAPE  H14Y17562   6.698   4.292   8.074  0.4228  0.1957 -2.0927
  157SAPE  C31517563   6.528   4.416   8.158  0.2840  0.0948  0.5029
  157SAPE  H15X17564   6.443   4.347   8.137 -1.9686  3.1504 -1.3509
  157SAPE  H15Y17565   6.496   4.520   8.138  0.2248 -0.1246 -0.6468
  157SAPE  C31617566   6.565   4.394   8.311 -0.0693  0.0237  1.2311
  157SAPE  H16X17567   6.614   4.491   8.335 -0.6247 -0.2222  3.5727
  157SAPE  H16Y17568   6.641   4.313   8.299 -0.0978 -0.1397  2.0974
  157SAPE  C31717569   6.453   4.342   8.396 -0.5715  1.1166 -0.3060
  157SAPE  H17X17570   6.413   4.246   8.358 -1.4917  1.4275 -0.1416
  157SAPE  H17Y17571   6.364   4.408   8.406 -2.4819 -1.4941  1.1218
  157SAPE  C31817572   6.506   4.317   8.533  0.4697  0.3946  0.4111
  157SAPE  H18X17573   6.432   4.258   8.591 -0.8210  0.7643 -0.7997
  157SAPE  H18Y17574   6.521   4.408   8.594 -0.9741  2.5764 -2.2898
  157SAPE  H18Z17575   6.598   4.254   8.533 -0.3620 -0.8779  1.5190
  158SAPE     N17576   2.398   1.401   5.857 -0.7906  0.1507  0.0006
  158SAPE   HN117577   2.352   1.430   5.769  0.0319  0.0701 -0.4635
  158SAPE   HN217578   2.346   1.445   5.936  1.6866  1.9325  0.7759
  158SAPE   HN317579   2.486   1.455   5.844 -0.8921 -0.0782 -1.9205
  158SAPE   C1217580   2.428   1.254   5.877 -0.6147  0.0827 -0.1215
  158SAPE  H12A17581   2.491   1.227   5.790 -2.5565  0.4478 -1.7381
  158SAPE  H12B17582   2.333   1.197   5.862 -0.0709 -0.6993 -0.6638
  158SAPE   C1117583   2.508   1.208   6.000  0.7451 -1.0629  0.1357
  158SAPE  H11A17584   2.576   1.295   6.018  0.5883 -1.0557  0.6928
  158SAPE  H11B17585   2.561   1.111   5.994  0.1120 -1.7312  3.3336
  158SAPE     P17586   2.467   1.133   6.238  0.2417  0.2975 -0.0037
  158SAPE   O1317587   2.394   1.010   6.270 -0.0028  0.2039 -0.1186
  158SAPE   O1417588   2.615   1.137   6.230  0.9724  0.4668  0.0370
  158SAPE   O1217589   2.414   1.203   6.105  0.2943 -0.4371  0.1589
  158SAPE   O1117590   2.422   1.234   6.349 -0.1324  0.6066 -0.0556
  158SAPE    C117591   2.447   1.377   6.326 -0.3830  0.5937  0.5721
  158SAPE    HA17592   2.488   1.396   6.225  0.7453 -0.9677  0.7042
  158SAPE    HB17593   2.352   1.435   6.323 -1.3621 -0.9556 -2.0111
  158SAPE    C217594   2.540   1.439   6.431 -0.2386 -0.1714  0.2211
  158SAPE    HS17595   2.634   1.380   6.435 -0.4145 -0.4308  0.7602
  158SAPE   O2117596   2.470   1.439   6.564 -0.4269 -0.1505  0.1495
  158SAPE   C2117597   2.540   1.416   6.674  0.1732  0.0529  0.4156
  158SAPE   O2217598   2.657   1.374   6.668  0.8839 -0.2431 -0.0986
  158SAPE   C2217599   2.467   1.465   6.807  0.1794 -0.4169  0.5647
  158SAPE   H2R17600   2.468   1.576   6.798 -0.7158 -0.4664 -0.2671
  158SAPE   H2S17601   2.361   1.440   6.788 -0.5866  1.2096  2.3373
  158SAPE    C317602   2.571   1.591   6.398 -0.2020  0.4485 -0.3947
  158SAPE    HX17603   2.473   1.641   6.380 -1.0778 -1.3221 -0.7542
  158SAPE    HY17604   2.622   1.589   6.299  1.8084  1.6207  0.5423
  158SAPE   O3117605   2.670   1.653   6.486 -0.2044 -0.7397  0.9794
  158SAPE   C3117606   2.627   1.749   6.577  0.1655  0.4880  0.2652
  158SAPE   O3217607   2.511   1.772   6.597 -0.4776 -0.1995 -0.0260
  158SAPE   C3217608   2.736   1.810   6.658  0.0050  0.2452 -0.1060
  158SAPE   H2X17609   2.708   1.917   6.667 -0.3543  0.2303 -0.9350
  158SAPE   H2Y17610   2.834   1.793   6.609  0.8593 -0.5742  1.7823
  158SAPE   C2317611   2.535   1.409   6.931  0.0186 -0.1121 -0.0313
  158SAPE   H3R17612   2.492   1.456   7.022 -1.4431  0.5200 -1.0039
  158SAPE   H3S17613   2.645   1.417   6.923  0.4193 -1.5818  2.9236
  158SAPE   C2417614   2.516   1.262   6.961  0.8499  0.0757 -0.2909
  158SAPE   H4R17615   2.532   1.210   6.865 -0.6972  0.2139 -0.6401
  158SAPE   H4S17616   2.411   1.241   6.988  1.3396 -0.9402  0.9188
  158SAPE   C2517617   2.608   1.199   7.062  0.3831 -0.8180  0.3685
  158SAPE   H5R17618   2.711   1.178   7.028  0.7457 -0.5651  1.2731
  158SAPE   C2617619   2.576   1.173   7.190 -0.2809 -0.8775 -0.2507
  158SAPE   H6R17620   2.665   1.153   7.251  0.8100 -1.2803 -1.8881
  158SAPE   C2717621   2.437   1.191   7.257 -0.2826  0.4908  0.2006
  158SAPE   H7R17622   2.348   1.186   7.191  0.4368 -1.0849 -0.6933
  158SAPE   H7S17623   2.439   1.272   7.333 -2.7895 -0.3405  1.2858
  158SAPE   C2817624   2.425   1.055   7.334  0.0182  0.0940 -0.9176
  158SAPE   H8R17625   2.374   0.977   7.276  0.2204 -1.0829  0.4302
  158SAPE   C2917626   2.469   1.031   7.457 -0.2991  0.3371  0.9697
  158SAPE   H9R17627   2.459   0.929   7.497 -0.5877  0.4202  1.1134
  158SAPE  C21017628   2.542   1.124   7.548  0.0960  0.0688  0.1248
  158SAPE  H10R17629   2.480   1.134   7.639 -0.5285 -0.6240 -0.2157
  158SAPE  H10S17630   2.550   1.225   7.504  1.1863 -0.3477 -0.6988
  158SAPE  C21117631   2.681   1.075   7.566  0.3041  0.4856 -0.3172
  158SAPE  H11R17632   2.740   1.061   7.474  0.3853 -2.9378  0.1139
  158SAPE  C21217633   2.733   1.042   7.688 -0.9066 -0.3168 -0.2344
  158SAPE  H12R17634   2.839   1.015   7.698 -0.8402 -1.1030 -2.4090
  158SAPE  C21317635   2.669   1.059   7.822 -0.5233  0.1694 -0.0259
  158SAPE  H13R17636   2.560   1.076   7.811 -0.5567 -0.0802 -0.1002
  158SAPE  H13S17637   2.689   1.153   7.877 -0.5026 -0.4110  0.9796
  158SAPE  C21417638   2.677   0.933   7.913 -0.7076 -0.0882  0.8427
  158SAPE  H14R17639   2.635   0.842   7.868  0.4206  0.2873 -1.0899
  158SAPE  C21517640   2.726   0.927   8.035  0.0125  0.5101  0.1618
  158SAPE  H15R17641   2.726   0.830   8.086 -1.5753  1.1267  1.4257
  158SAPE  C21617642   2.772   1.050   8.113 -0.1604 -0.1156 -0.5205
  158SAPE  H16R17643   2.749   1.149   8.067 -1.2298 -0.8832 -1.7202
  158SAPE  H16S17644   2.882   1.041   8.124 -0.1069  1.7040  0.8320
  158SAPE  C21717645   2.722   1.055   8.259  0.3227  0.2854 -0.4579
  158SAPE  H17R17646   2.614   1.080   8.272  0.0269 -1.4271  0.7861
  158SAPE  H17S17647   2.771   1.146   8.300 -0.2964  0.5402 -0.2595
  158SAPE  C21817648   2.771   0.938   8.347 -1.2164  0.5959 -0.5797
  158SAPE  H18R17649   2.876   0.908   8.323 -1.2704  0.8318 -1.1423
  158SAPE  H18S17650   2.708   0.852   8.317 -0.8732 -0.5191  1.7063
  158SAPE  C21917651   2.768   0.952   8.501 -0.0244 -0.2658 -0.3686
  158SAPE  H19R17652   2.779   0.860   8.561  0.3538 -1.2512 -1.8862
  158SAPE  H19S17653   2.673   0.996   8.539 -0.2725  0.3211 -1.5897
  158SAPE  C22017654   2.884   1.043   8.558 -0.1216  0.2328  0.2242
  158SAPE  H20R17655   2.884   1.048   8.669 -0.9674  2.1956  0.1788
  158SAPE  H20S17656   2.884   1.139   8.502  0.6325 -0.5222 -1.1253
  158SAPE  H20T17657   2.974   0.984   8.529  0.4243  0.2902  1.7229
  158SAPE   C3317658   2.746   1.752   6.799 -0.1503 -0.6577 -0.6009
  158SAPE   H3X17659   2.797   1.654   6.792  1.0643 -0.0790 -0.0665
  158SAPE   H3Y17660   2.644   1.745   6.842  0.2107  2.4408  1.0494
  158SAPE   C3417661   2.813   1.844   6.891  0.1610 -0.0572  0.5765
  158SAPE   H4X17662   2.749   1.932   6.912  0.0028  0.0938 -0.4615
  158SAPE   H4Y17663   2.908   1.878   6.845 -0.7070  0.0301 -1.2500
  158SAPE   C3517664   2.852   1.775   7.015 -0.3846  0.2899 -0.5863
  158SAPE   H5X17665   2.885   1.847   7.093 -1.4509  2.4187 -2.0361
  158SAPE   H5Y17666   2.940   1.713   6.985 -0.6292  1.0594 -3.1193
  158SAPE   C3617667   2.747   1.684   7.085  0.7642  0.3903  0.2783
  158SAPE   H6X17668   2.735   1.597   7.017  1.1174  1.1401 -0.7821
  158SAPE   H6Y17669   2.656   1.744   7.107  2.4697  2.9347  0.8602
  158SAPE   C3717670   2.787   1.631   7.219 -0.0084  0.0650 -1.1233
  158SAPE   H7X17671   2.881   1.576   7.197  1.1018  1.1473  0.6287
  158SAPE   H7Y17672   2.825   1.717   7.278  2.0635 -0.9603 -0.8815
  158SAPE   C3817673   2.686   1.548   7.298  0.0968 -0.6251 -0.5713
  158SAPE   H8X17674   2.691   1.441   7.267  3.5775 -0.3450 -1.3972
  158SAPE   H8Y17675   2.585   1.594   7.288  1.1561  1.2758 -3.7739
  158SAPE   C3917676   2.704   1.564   7.454 -0.4265  0.6745 -0.0506
  158SAPE   H9X17677   2.603   1.567   7.501 -0.7668  0.0081 -0.7181
  158SAPE   H9Y17678   2.751   1.660   7.486  1.3700 -0.2760  0.2506
  158SAPE  C31017679   2.793   1.446   7.511 -0.2061 -0.7715 -0.8197
  158SAPE  H10X17680   2.884   1.475   7.454 -1.3009  2.2027 -1.1902
  158SAPE  H10Y17681   2.767   1.346   7.470  0.9468 -1.8494  0.9053
  158SAPE  C31117682   2.815   1.448   7.666 -0.2568  0.1013  0.0968
  158SAPE  H11X17683   2.847   1.551   7.691 -0.8251  0.1652  0.5866
  158SAPE  H11Y17684   2.897   1.380   7.694 -1.6798 -1.9468 -0.4815
  158SAPE  C31217685   2.689   1.430   7.747 -0.1145  0.8305  0.4727
  158SAPE  H12X17686   2.646   1.328   7.738 -2.0648  1.2520  3.5033
  158SAPE  H12Y17687   2.629   1.514   7.706  1.7138  1.4560 -1.0409
  158SAPE  C31317688   2.701   1.467   7.894  0.4542 -0.5991  0.2305
  158SAPE  H13X17689   2.743   1.570   7.892 -0.7007 -0.1286 -0.7449
  158SAPE  H13Y17690   2.774   1.402   7.947  0.2743 -1.1832 -0.2342
  158SAPE  C31417691   2.573   1.468   7.979  0.5304 -0.5174 -0.3841
  158SAPE  H14X17692   2.533   1.364   7.985 -0.5696 -0.1132 -0.3433
  158SAPE  H14Y17693   2.492   1.525   7.927  0.0071  0.1131  1.0536
  158SAPE  C31517694   2.576   1.544   8.118  0.2676  0.4782  0.5884
  158SAPE  H15X17695   2.580   1.654   8.099 -2.0574  0.6535  0.9028
  158SAPE  H15Y17696   2.675   1.515   8.160  2.0264  2.1802 -2.0429
  158SAPE  C31617697   2.473   1.495   8.224  0.3845 -0.6105  0.3835
  158SAPE  H16X17698   2.526   1.421   8.289 -0.5039 -0.5177  1.2293
  158SAPE  H16Y17699   2.398   1.430   8.175 -0.6828 -1.2029  2.6704
  158SAPE  C31717700   2.413   1.616   8.299 -0.0508  0.9169 -0.9817
  158SAPE  H17X17701   2.315   1.581   8.339 -0.6583  0.7789 -2.5194
  158SAPE  H17Y17702   2.392   1.691   8.219 -0.6849  0.5884 -1.1316
  158SAPE  C31817703   2.498   1.670   8.411 -1.0618 -0.5389  0.6366
  158SAPE  H18X17704   2.583   1.726   8.366 -1.8874 -0.2700 -0.6520
  158SAPE  H18Y17705   2.522   1.589   8.483  0.5916 -1.8319 -1.2440
  158SAPE  H18Z17706   2.436   1.745   8.465  0.5003  1.0581  0.3270
  159SAPE     N17707   6.704   5.436   5.841 -0.6295 -0.4604 -0.7588
  159SAPE   HN117708   6.686   5.494   5.756  1.8737 -0.8331 -1.6289
  159SAPE   HN217709   6.767   5.359   5.811 -0.7134 -0.1775 -1.6973
  159SAPE   HN317710   6.610   5.406   5.873 -0.5972  0.0963 -0.1270
  159SAPE   C1217711   6.781   5.518   5.943  0.7840  0.3915  0.2437
  159SAPE  H12A17712   6.713   5.586   5.998  2.2105 -0.0146  2.6616
  159SAPE  H12B17713   6.856   5.576   5.885  0.8997  0.7435  0.7445
  159SAPE   C1117714   6.861   5.438   6.034  0.3265  0.3222  0.2240
  159SAPE  H11A17715   6.798   5.417   6.123 -1.1960  1.6649 -0.4742
  159SAPE  H11B17716   6.947   5.492   6.078 -0.1799  0.0385  1.5904
  159SAPE     P17717   6.929   5.180   6.042  0.2109 -0.3446 -0.2470
  159SAPE   O1317718   6.847   5.077   5.981 -0.2470 -0.2577 -0.0130
  159SAPE   O1417719   7.074   5.145   6.059  0.2696  0.1476 -0.0449
  159SAPE   O1217720   6.898   5.314   5.969  0.1048 -0.2231 -0.3334
  159SAPE   O1117721   6.872   5.198   6.186 -0.1976 -0.8247  0.0133
  159SAPE    C117722   6.961   5.215   6.294  0.2290  0.0837  0.2901
  159SAPE    HA17723   7.029   5.129   6.312 -0.7797 -0.5071  1.3468
  159SAPE    HB17724   7.029   5.303   6.287  0.9605 -0.2335  2.5682
  159SAPE    C217725   6.882   5.235   6.426  0.7059 -0.5142  0.1357
  159SAPE    HS17726   6.946   5.212   6.514  0.9804 -0.0833  0.0485
  159SAPE   O2117727   6.772   5.153   6.439  0.2501  0.4509 -0.0309
  159SAPE   C2117728   6.790   5.018   6.446 -0.5552  0.0060  0.4556
  159SAPE   O2217729   6.896   4.966   6.472 -0.2310  0.2762  0.3980
  159SAPE   C2217730   6.657   4.938   6.437  0.2840  0.1961 -0.3762
  159SAPE   H2R17731   6.610   4.956   6.338  1.0777 -1.1836 -1.0226
  159SAPE   H2S17732   6.697   4.834   6.436  1.1621  0.5221 -0.6492
  159SAPE    C317733   6.842   5.383   6.436  0.4478 -0.5369 -0.5599
  159SAPE    HX17734   6.806   5.415   6.336 -3.4219  0.5360  0.9873
  159SAPE    HY17735   6.923   5.453   6.464 -0.8853  0.1602  1.7585
  159SAPE   O3117736   6.738   5.413   6.531  0.4063 -0.2427  0.6957
  159SAPE   C3117737   6.613   5.394   6.484  0.3867  0.0889 -0.3201
  159SAPE   O3217738   6.579   5.402   6.367  0.0970 -0.0364 -0.1826
  159SAPE   C3217739   6.517   5.375   6.613  0.7431 -0.1498  0.3024
  159SAPE   H2X17740   6.448   5.291   6.593  0.8720 -0.5945  1.6283
  159SAPE   H2Y17741   6.458   5.469   6.607  0.4285 -0.4154 -1.5540
  159SAPE   C2317742   6.552   4.964   6.551  0.4347 -0.1396 -0.4754
  159SAPE   H3R17743   6.469   4.893   6.531 -0.1617  0.5626 -0.5253
  159SAPE   H3S17744   6.508   5.064   6.527 -0.8315 -1.0568 -2.2159
  159SAPE   C2417745   6.609   4.950   6.697  0.6088 -0.4111 -0.0340
  159SAPE   H4R17746   6.531   5.004   6.755 -0.9025 -0.4070 -1.9431
  159SAPE   H4S17747   6.707   5.000   6.706  1.1038 -1.5747  1.4693
  159SAPE   C2517748   6.640   4.808   6.739 -0.0881 -0.3102  0.5081
  159SAPE   H5R17749   6.671   4.741   6.658 -4.1731 -0.1642 -1.3911
  159SAPE   C2617750   6.623   4.757   6.861  0.2583 -0.1313 -0.6231
  159SAPE   H6R17751   6.652   4.652   6.880 -1.0563 -0.6267 -1.2348
  159SAPE   C2717752   6.573   4.829   6.984  0.8635 -0.2167  0.2507
  159SAPE   H7R17753   6.570   4.753   7.065 -0.4088 -0.8543 -0.3635
  159SAPE   H7S17754   6.469   4.867   6.972 -0.0579 -1.2607  3.7271
  159SAPE   C2817755   6.652   4.949   7.023  0.0592  0.0642  0.2411
  159SAPE   H8R17756   6.648   5.032   6.950 -0.0853 -0.5752 -0.4981
  159SAPE   C2917757   6.730   4.964   7.131  0.0777 -0.4546 -0.2795
  159SAPE   H9R17758   6.785   5.058   7.142  0.4606 -0.4952 -1.6647
  159SAPE  C21017759   6.753   4.874   7.251  0.1966 -0.7603  0.5743
  159SAPE  H10R17760   6.822   4.927   7.320 -0.7734 -1.7987  2.4137
  159SAPE  H10S17761   6.810   4.787   7.213  2.4726  0.4894  0.9625
  159SAPE  C21117762   6.629   4.831   7.328 -0.2439  0.2370 -0.6566
  159SAPE  H11R17763   6.534   4.826   7.274 -1.0895 -1.1185  0.8622
  159SAPE  C21217764   6.628   4.805   7.458 -0.3316 -0.4782 -0.4312
  159SAPE  H12R17765   6.531   4.774   7.502 -1.6194  2.5374 -0.8952
  159SAPE  C21317766   6.749   4.817   7.551 -0.0862 -0.1145 -0.5338
  159SAPE  H13R17767   6.751   4.924   7.581 -3.0583 -0.7999  2.7445
  159SAPE  H13S17768   6.835   4.782   7.490 -1.2133  0.3316 -2.4401
  159SAPE  C21417769   6.726   4.728   7.674 -0.5712 -0.3020  0.1093
  159SAPE  H14R17770   6.698   4.624   7.650 -0.9613 -0.7761  2.3699
  159SAPE  C21517771   6.747   4.754   7.805 -0.1451  0.8492 -0.0853
  159SAPE  H15R17772   6.721   4.670   7.871 -0.0788  0.7182 -0.2244
  159SAPE  C21617773   6.806   4.873   7.879  0.2310  0.1525 -0.6500
  159SAPE  H16R17774   6.807   4.966   7.818 -0.5055 -0.2053 -1.2264
  159SAPE  H16S17775   6.911   4.850   7.906 -0.6464 -1.2199  1.9954
  159SAPE  C21717776   6.734   4.891   8.019  0.2848  0.1428  0.3901
  159SAPE  H17R17777   6.629   4.917   7.993  0.4899 -0.3657 -1.0440
  159SAPE  H17S17778   6.773   4.987   8.060 -2.1119  0.5032  2.0178
  159SAPE  C21817779   6.742   4.787   8.129 -0.0019 -0.4580 -0.1915
  159SAPE  H18R17780   6.841   4.800   8.177 -0.1977 -1.0684  0.3925
  159SAPE  H18S17781   6.732   4.685   8.086  0.4381 -0.1545 -1.0377
  159SAPE  C21917782   6.635   4.820   8.234  0.4241 -0.0462 -0.0908
  159SAPE  H19R17783   6.679   4.908   8.286  0.6961 -0.2705  0.0579
  159SAPE  H19S17784   6.650   4.734   8.303 -0.2251 -0.0061  0.1132
  159SAPE  C22017785   6.479   4.821   8.191 -0.1083  1.0345 -0.5798
  159SAPE  H20R17786   6.451   4.914   8.137 -1.0116  0.8610 -0.4347
  159SAPE  H20S17787   6.416   4.806   8.281  2.1938  0.4520  1.0337
  159SAPE  H20T17788   6.456   4.744   8.114  1.4001  0.4112 -0.4485
  159SAPE   C3317789   6.586   5.359   6.750  1.2451  0.0302  0.1414
  159SAPE   H3X17790   6.632   5.458   6.771  1.7932 -0.0470 -0.6382
  159SAPE   H3Y17791   6.668   5.284   6.742  1.6283  0.5475 -1.0011
  159SAPE   C3417792   6.478   5.335   6.859  0.7272 -0.2456 -0.3982
  159SAPE   H4X17793   6.432   5.234   6.858 -1.7069  0.7651  1.2998
  159SAPE   H4Y17794   6.398   5.410   6.847  2.4357  1.2888 -3.4280
  159SAPE   C3517795   6.534   5.329   7.004 -0.5137  0.4698  0.4280
  159SAPE   H5X17796   6.583   5.426   7.027  0.3022  0.0958  0.2679
  159SAPE   H5Y17797   6.614   5.252   7.006 -1.6559 -0.7685  0.6207
  159SAPE   C3617798   6.418   5.307   7.101  0.2503 -0.4994  0.4215
  159SAPE   H6X17799   6.357   5.217   7.078 -0.2064 -0.1712  0.3320
  159SAPE   H6Y17800   6.350   5.395   7.099  0.7343 -0.1242  0.2139
  159SAPE   C3717801   6.476   5.283   7.241  0.1484  0.3345 -0.1447
  159SAPE   H7X17802   6.537   5.369   7.274  0.2682  0.5261 -0.8504
  159SAPE   H7Y17803   6.542   5.194   7.238 -2.5926 -1.8476 -0.1288
  159SAPE   C3817804   6.365   5.261   7.345  0.2769 -0.0976  0.0682
  159SAPE   H8X17805   6.341   5.153   7.335 -3.0351  0.5703 -0.1129
  159SAPE   H8Y17806   6.277   5.325   7.326 -2.3134 -2.6759  2.4202
  159SAPE   C3917807   6.403   5.289   7.492 -0.1261  0.1692 -0.0186
  159SAPE   H9X17808   6.433   5.394   7.515 -0.6779 -0.1794  2.6496
  159SAPE   H9Y17809   6.483   5.219   7.526 -1.2631 -0.9196  0.4894
  159SAPE  C31017810   6.283   5.260   7.583 -0.2018 -0.3685  0.1279
  159SAPE  H10X17811   6.245   5.160   7.554  0.6675 -0.4364 -0.8489
  159SAPE  H10Y17812   6.201   5.333   7.564  0.0211 -0.2155 -0.2564
  159SAPE  C31117813   6.309   5.254   7.737  0.4297  0.0371  0.8458
  159SAPE  H11X17814   6.390   5.182   7.759  1.0103 -0.3408 -2.0778
  159SAPE  H11Y17815   6.218   5.201   7.772  0.4916 -1.8542 -1.5743
  159SAPE  C31217816   6.328   5.388   7.810  0.2527  0.2495 -0.2448
  159SAPE  H12X17817   6.267   5.471   7.766 -0.1269  0.0045 -0.1855
  159SAPE  H12Y17818   6.433   5.420   7.792  0.3338  0.9510  1.3504
  159SAPE  C31317819   6.300   5.384   7.968  0.0919 -0.4099 -0.0377
  159SAPE  H13X17820   6.360   5.298   8.004 -0.9400 -1.0467  0.2343
  159SAPE  H13Y17821   6.190   5.369   7.981 -0.1728  1.4219  0.1856
  159SAPE  C31417822   6.325   5.509   8.037 -0.1873 -1.1248 -0.8826
  159SAPE  H14X17823   6.257   5.584   7.993  1.7746  2.3813  1.5881
  159SAPE  H14Y17824   6.431   5.544   8.038  0.3795 -2.4986  2.8923
  159SAPE  C31517825   6.304   5.503   8.189  0.4023  0.2800  0.4557
  159SAPE  H15X17826   6.383   5.433   8.223 -0.9277 -2.8982 -2.3715
  159SAPE  H15Y17827   6.201   5.465   8.207  0.2580  0.1025 -0.6583
  159SAPE  C31617828   6.313   5.633   8.261  0.1300 -0.1688 -0.6839
  159SAPE  H16X17829   6.413   5.671   8.231  1.4309  0.1063  3.4778
  159SAPE  H16Y17830   6.329   5.607   8.367 -1.2128  0.9215 -0.1817
  159SAPE  C31717831   6.189   5.719   8.246  0.6983 -0.8320  0.2371
  159SAPE  H17X17832   6.098   5.655   8.250  0.8196 -0.9999  0.3067
  159SAPE  H17Y17833   6.191   5.767   8.146 -1.8685 -1.1263 -0.0121
  159SAPE  C31817834   6.163   5.830   8.346 -0.4135 -0.6919  0.0851
  159SAPE  H18X17835   6.152   5.781   8.445  2.3299 -0.7393  0.4616
  159SAPE  H18Y17836   6.071   5.887   8.326  0.2329 -0.2563 -1.8152
  159SAPE  H18Z17837   6.255   5.891   8.363 -0.0565 -0.6199 -1.9087
  160SAPE     N17838   1.078   3.879   6.440 -0.3469 -0.1744  0.0739
  160SAPE   HN117839   1.156   3.916   6.497  0.6995 -1.8770 -0.1838
  160SAPE   HN217840   1.111   3.825   6.358  0.9771  1.7491 -0.7196
  160SAPE   HN317841   1.017   3.954   6.401  0.0446  0.2214  0.2171
  160SAPE   C1217842   1.007   3.775   6.530 -0.0748 -0.5828 -0.1838
  160SAPE  H12A17843   0.904   3.771   6.490  0.0113  0.7174 -0.5729
  160SAPE  H12B17844   1.005   3.802   6.638 -0.7014 -1.9215  0.1637
  160SAPE   C1117845   1.061   3.633   6.513 -0.0274  0.1055  0.5441
  160SAPE  H11A17846   1.014   3.578   6.597  1.2431  1.6251  2.3215
  160SAPE  H11B17847   1.172   3.625   6.520  0.0776 -1.0273 -1.5818
  160SAPE     P17848   1.105   3.573   6.250  0.0491 -0.3868 -0.2070
  160SAPE   O1317849   1.022   3.521   6.141  0.1703  0.1313  0.2964
  160SAPE   O1417850   1.164   3.708   6.229  0.2061  0.1557  0.9132
  160SAPE   O1217851   1.017   3.578   6.383  0.2381 -0.0922  0.2967
  160SAPE   O1117852   1.209   3.465   6.270 -0.6943  0.3473  0.5456
  160SAPE    C117853   1.194   3.340   6.336  0.1715 -0.4069 -0.2502
  160SAPE    HA17854   1.096   3.326   6.385  0.8055  2.2301  2.0491
  160SAPE    HB17855   1.209   3.258   6.262  0.1213  0.5201 -1.3277
  160SAPE    C217856   1.304   3.330   6.448 -0.8866 -0.5093 -0.3270
  160SAPE    HS17857   1.307   3.220   6.467 -1.1240 -0.1976  1.8084
  160SAPE   O2117858   1.270   3.405   6.570 -0.2387 -0.2307  0.2414
  160SAPE   C2117859   1.265   3.332   6.677 -0.2181 -0.2692 -0.3400
  160SAPE   O2217860   1.268   3.207   6.683 -0.3262  0.3677  0.6110
  160SAPE   C2217861   1.269   3.430   6.795  0.2487  0.2930 -0.1230
  160SAPE   H2R17862   1.378   3.432   6.818  0.5471 -0.3560 -1.3753
  160SAPE   H2S17863   1.232   3.530   6.764  1.8903  0.5253 -1.4392
  160SAPE    C317864   1.450   3.369   6.398  0.0707 -0.4279 -0.3169
  160SAPE    HX17865   1.462   3.478   6.384  1.3443 -0.6519 -1.2014
  160SAPE    HY17866   1.469   3.317   6.301 -1.1627  0.1133 -0.8728
  160SAPE   O3117867   1.545   3.329   6.500  0.7926 -0.1312 -0.3364
  160SAPE   C3117868   1.590   3.204   6.488 -0.2532  0.6354  0.1136
  160SAPE   O3217869   1.541   3.121   6.417  0.3137 -0.1934  0.0645
  160SAPE   C3217870   1.713   3.181   6.564 -0.0835  0.1911 -0.6581
  160SAPE   H2X17871   1.801   3.236   6.524  0.3768  1.1223  1.5072
  160SAPE   H2Y17872   1.747   3.076   6.547  0.1993  0.4614 -1.8490
  160SAPE   C2317873   1.175   3.406   6.921  0.2563  0.8834 -0.1736
  160SAPE   H3R17874   1.203   3.307   6.963  0.9811  0.8882 -0.6318
  160SAPE   H3S17875   1.072   3.405   6.880  0.5500  1.0620 -0.9359
  160SAPE   C2417876   1.190   3.526   7.014  0.0012 -0.2691 -0.3857
  160SAPE   H4R17877   1.113   3.549   7.091  1.6593  0.2953  1.1530
  160SAPE   H4S17878   1.172   3.610   6.943  1.3560 -0.1188 -0.5727
  160SAPE   C2517879   1.323   3.549   7.079 -0.8595  0.7052 -0.0748
  160SAPE   H5R17880   1.399   3.612   7.029  1.3157 -0.5535  1.4358
  160SAPE   C2617881   1.359   3.517   7.205  0.2407  0.5383  0.5319
  160SAPE   H6R17882   1.456   3.559   7.234  0.3899  0.5105  0.0800
  160SAPE   C2717883   1.271   3.451   7.310  0.3706 -0.1579  0.2418
  160SAPE   H7R17884   1.334   3.367   7.347  0.1978  0.3764  1.8068
  160SAPE   H7S17885   1.177   3.417   7.262  0.2814 -0.0100  0.3116
  160SAPE   C2817886   1.241   3.561   7.410  0.0874 -0.2117 -0.5989
  160SAPE   H8R17887   1.168   3.636   7.376  1.0112  0.3712 -1.3411
  160SAPE   C2917888   1.267   3.555   7.540 -0.7909  0.3074 -0.7288
  160SAPE   H9R17889   1.238   3.641   7.603  0.7827  0.1994  0.1982
  160SAPE  C21017890   1.328   3.441   7.615  0.3803  0.5875 -0.1365
  160SAPE  H10R17891   1.367   3.364   7.545  0.2800  0.3403  0.0791
  160SAPE  H10S17892   1.249   3.388   7.673  0.2578  0.1692 -0.6794
  160SAPE  C21117893   1.450   3.494   7.687 -0.1090  0.0285 -0.4505
  160SAPE  H11R17894   1.522   3.565   7.644  0.5089  0.7340  1.6261
  160SAPE  C21217895   1.473   3.476   7.823 -0.0308 -0.2583  0.3442
  160SAPE  H12R17896   1.550   3.543   7.864  0.2754  1.3801 -2.6049
  160SAPE  C21317897   1.388   3.397   7.917  0.9152  0.3661 -0.0403
  160SAPE  H13R17898   1.337   3.309   7.873  0.9376  0.4802 -0.2949
  160SAPE  H13S17899   1.308   3.460   7.960 -0.4838 -1.3385 -0.0626
  160SAPE  C21417900   1.479   3.349   8.025  0.4113 -0.9274  0.1375
  160SAPE  H14R17901   1.559   3.283   7.988 -1.1939 -1.5555 -2.4287
  160SAPE  C21517902   1.484   3.381   8.154 -0.3174  0.1837  0.1599
  160SAPE  H15R17903   1.565   3.341   8.217 -0.5204  2.1202  1.7569
  160SAPE  C21617904   1.393   3.474   8.228  1.1031 -0.2144 -0.3405
  160SAPE  H16R17905   1.308   3.509   8.165  0.9506  1.7119  0.8724
  160SAPE  H16S17906   1.451   3.563   8.257  0.8479 -0.2659  0.3422
  160SAPE  C21717907   1.334   3.395   8.355  0.9630  0.1778 -0.5905
  160SAPE  H17R17908   1.273   3.310   8.319  1.3894 -1.0285  1.4156
  160SAPE  H17S17909   1.268   3.462   8.414  2.1458  1.6403 -0.8474
  160SAPE  C21817910   1.436   3.354   8.465 -0.5642 -0.3427  0.4827
  160SAPE  H18R17911   1.497   3.443   8.491  0.2953 -0.5104 -0.8827
  160SAPE  H18S17912   1.508   3.281   8.421 -1.9153 -0.5334 -1.5487
  160SAPE  C21917913   1.366   3.288   8.577  0.0740  0.9497  0.6599
  160SAPE  H19R17914   1.336   3.187   8.543 -1.2120  0.7911  2.1717
  160SAPE  H19S17915   1.285   3.345   8.627 -0.6699  1.1259 -0.6904
  160SAPE  C22017916   1.474   3.255   8.688 -0.6075 -0.1593  0.8382
  160SAPE  H20R17917   1.563   3.205   8.644 -0.5227 -0.6642  1.5561
  160SAPE  H20S17918   1.443   3.198   8.778 -2.5163  0.4455  0.6114
  160SAPE  H20T17919   1.496   3.353   8.736 -0.4795 -0.5722  1.6381
  160SAPE   C3317920   1.690   3.207   6.714 -0.3715  0.6899  0.0968
  160SAPE   H3X17921   1.630   3.299   6.724 -4.1551 -1.6328  0.8653
  160SAPE   H3Y17922   1.780   3.225   6.777 -1.5911  1.7765  1.5974
  160SAPE   C3417923   1.608   3.095   6.780  0.0483  0.7572  0.5039
  160SAPE   H4X17924   1.663   2.999   6.781 -1.6816 -0.4303 -2.9004
  160SAPE   H4Y17925   1.523   3.070   6.712  0.6602  0.0094 -0.0032
  160SAPE   C3517926   1.543   3.129   6.919 -0.0313 -0.2066 -0.0805
  160SAPE   H5X17927   1.474   3.212   6.893 -2.3567 -2.0727 -0.2150
  160SAPE   H5Y17928   1.622   3.166   6.988  0.3272  1.5016 -1.3670
  160SAPE   C3617929   1.462   3.017   6.981  0.4863  0.6371  0.3133
  160SAPE   H6X17930   1.525   2.929   7.007 -1.6036 -1.3157 -0.8823
  160SAPE   H6Y17931   1.397   2.975   6.901 -1.2762  1.6829  1.1469
  160SAPE   C3717932   1.400   3.050   7.112  0.8621  0.0051  0.0454
  160SAPE   H7X17933   1.318   3.120   7.084  1.5756  0.7861 -0.1309
  160SAPE   H7Y17934   1.474   3.104   7.174  2.0055 -0.9189 -0.4739
  160SAPE   C3817935   1.341   2.928   7.189 -0.0612  0.5043 -0.8726
  160SAPE   H8X17936   1.419   2.856   7.219 -0.2675  0.1835 -1.0964
  160SAPE   H8Y17937   1.278   2.870   7.117  0.7802 -0.0476 -1.1872
  160SAPE   C3917938   1.258   2.963   7.313  0.9971  0.2565  0.1314
  160SAPE   H9X17939   1.194   2.881   7.350 -0.2224  1.5720  1.0484
  160SAPE   H9Y17940   1.194   3.049   7.284  0.6425 -0.2487 -0.5960
  160SAPE  C31017941   1.352   3.002   7.426 -0.2100  0.9085  0.8643
  160SAPE  H10X17942   1.421   3.087   7.404  1.5189 -0.7905 -0.6835
  160SAPE  H10Y17943   1.410   2.908   7.436  0.8914  1.3667 -0.7007
  160SAPE  C31117944   1.283   3.034   7.552  0.4295 -1.1116 -0.5411
  160SAPE  H11X17945   1.184   2.985   7.563  0.1949 -0.1512  2.4327
  160SAPE  H11Y17946   1.262   3.142   7.537  0.1905 -1.0674  0.0775
  160SAPE  C31217947   1.372   3.020   7.675 -0.2190  0.1984  0.3447
  160SAPE  H12X17948   1.430   3.114   7.685 -2.8114  1.8175  1.1785
  160SAPE  H12Y17949   1.438   2.932   7.658 -1.1076  0.0178 -2.7883
  160SAPE  C31317950   1.303   2.998   7.804  0.3821 -0.0743 -0.2731
  160SAPE  H13X17951   1.235   2.913   7.783 -0.8272  0.6693  0.5213
  160SAPE  H13Y17952   1.249   3.089   7.838 -1.4671 -1.6191  1.2143
  160SAPE  C31417953   1.394   2.967   7.931 -0.1079  0.0099  0.8628
  160SAPE  H14X17954   1.471   3.047   7.938 -2.9484  2.9233  1.2287
  160SAPE  H14Y17955   1.447   2.878   7.891 -0.0358  0.5549 -0.3227
  160SAPE  C31517956   1.323   2.947   8.064 -0.1286  0.6409 -0.1080
  160SAPE  H15X17957   1.246   2.869   8.048  3.0016 -3.2409  2.0026
  160SAPE  H15Y17958   1.278   3.039   8.106  2.4119  1.6710  0.5767
  160SAPE  C31617959   1.402   2.880   8.182  0.0711  0.4483  0.3092
  160SAPE  H16X17960   1.444   2.783   8.148  0.1461  0.1438  1.2442
  160SAPE  H16Y17961   1.330   2.860   8.264 -0.2537 -0.4529 -0.1879
  160SAPE  C31717962   1.512   2.962   8.242 -0.0532 -0.3622  0.1458
  160SAPE  H17X17963   1.490   3.067   8.214  1.6137 -0.1658 -0.5432
  160SAPE  H17Y17964   1.606   2.926   8.195 -0.2399 -1.0871  0.3084
  160SAPE  C31817965   1.531   2.946   8.391 -0.5297 -0.0464 -0.6884
  160SAPE  H18X17966   1.557   2.843   8.423  1.0225  0.3988 -0.4288
  160SAPE  H18Y17967   1.441   2.986   8.443 -2.4318 -0.1771 -3.6119
  160SAPE  H18Z17968   1.612   3.011   8.431 -0.4505 -0.6408  0.1386
  161SOPE     N17969   5.305   0.195  10.873 -0.0882 -1.0746 -0.9104
  161SOPE   HN117970   5.272   0.247  10.790  0.5212  0.1264 -0.4303
  161SOPE   HN217971   5.279   0.232  10.967  1.5316  0.7625 -1.1020
  161SOPE   HN317972   5.409   0.205  10.868 -0.1039  0.3583  0.5900
  161SOPE   C1217973   5.255   0.054  10.857 -0.1779  0.3417  0.4306
  161SOPE  H12A17974   5.156   0.052  10.906 -0.0243 -0.0967  0.7405
  161SOPE  H12B17975   5.330  -0.008  10.912  2.2479  3.7435  1.2447
  161SOPE   C1117976   5.240   0.019  10.707  0.2059 -0.1346 -0.0001
  161SOPE  H11A17977   5.200  -0.084  10.700 -0.3882 -0.0663  1.9174
  161SOPE  H11B17978   5.342   0.028  10.663  1.2159 -2.3384  1.6975
  161SOPE     P17979   5.185   0.227  10.560  0.2978  0.0547 -0.1991
  161SOPE   O1317980   5.234   0.328  10.658 -0.5454 -0.3520  0.3974
  161SOPE   O1417981   5.073   0.268  10.468 -0.7431  0.4675  0.5564
  161SOPE   O1217982   5.145   0.100  10.645 -0.4578 -0.1972  0.0917
  161SOPE   O1117983   5.301   0.167  10.463 -0.2364 -0.8067  0.4515
  161SOPE    C117984   5.423   0.241  10.454  0.0301  0.0034  0.1871
  161SOPE    HA17985   5.498   0.164  10.426 -1.5890 -1.1346 -1.2274
  161SOPE    HB17986   5.446   0.286  10.553 -0.4320 -1.4586  0.9962
  161SOPE    C217987   5.427   0.340  10.338  0.3580  0.6672  0.2849
  161SOPE    HS17988   5.345   0.411  10.362 -0.4722 -1.0612  2.9979
  161SOPE   O2117989   5.418   0.268  10.208 -0.6894  0.2989 -0.3530
  161SOPE   C2117990   5.336   0.309  10.123 -0.7912 -0.1967  0.7842
  161SOPE   O2217991   5.262   0.407  10.131  0.4449  0.1251  0.1981
  161SOPE   C2217992   5.353   0.220  10.000 -0.1946  0.3247  0.1649
  161SOPE   H2R17993   5.302   0.121  10.006 -2.8928  1.4935 -1.7910
  161SOPE   H2S17994   5.462   0.205   9.981  0.6755  3.2562  2.0675
  161SOPE    C317995   5.556   0.431  10.338  0.7583 -0.6302 -0.1899
  161SOPE    HX17996   5.646   0.366  10.328  2.2333  1.4763 -1.2578
  161SOPE    HY17997   5.558   0.485  10.435  0.5303  1.2376 -1.1822
  161SOPE   O3117998   5.557   0.526  10.232 -0.3924 -0.1811 -0.3425
  161SOPE   C3117999   5.651   0.614  10.238 -0.6328  0.0882  0.5115
  161SOPE   O3218000   5.741   0.599  10.316 -0.0504  0.0102  0.0058
  161SOPE   C3218001   5.627   0.725  10.133  0.4754 -0.4841  0.2967
  161SOPE   H2X18002   5.534   0.772  10.173 -0.0262 -1.4428  0.2863
  161SOPE   H2Y18003   5.602   0.676  10.037 -2.4567 -0.1869  0.8237
  161SOPE   C2318004   5.294   0.288   9.879 -0.0015 -0.5087  0.4803
  161SOPE   H3R18005   5.351   0.382   9.860  2.7378 -2.2129 -0.3521
  161SOPE   H3S18006   5.186   0.307   9.896 -0.5821 -0.0471 -2.8821
  161SOPE   C2418007   5.302   0.185   9.765 -0.2455 -0.6066  0.2167
  161SOPE   H4R18008   5.220   0.113   9.784 -2.6121  2.1502  1.1623
  161SOPE   H4S18009   5.269   0.236   9.672 -1.2964 -2.0547 -0.2473
  161SOPE   C2518010   5.429   0.113   9.726 -0.0376 -0.3465  0.2329
  161SOPE   H5R18011   5.492   0.195   9.687 -0.9767  1.3922  2.1418
  161SOPE   H5S18012   5.481   0.059   9.808  0.0732  0.6287  0.8231
  161SOPE   C2618013   5.402   0.013   9.613 -0.7988  0.3341  0.2171
  161SOPE   H6R18014   5.360  -0.086   9.640 -1.0872  0.3541 -0.1523
  161SOPE   H6S18015   5.319   0.052   9.550  0.4045  1.1579 -0.9140
  161SOPE   C2718016   5.523  -0.019   9.520 -0.4718 -0.6700 -0.3351
  161SOPE   H7R18017   5.554   0.076   9.471 -1.9784  1.3660  2.3843
  161SOPE   H7S18018   5.603  -0.057   9.587 -1.0024  0.2227  0.8532
  161SOPE   C2818019   5.469  -0.113   9.414 -0.4077  0.2239 -0.2383
  161SOPE   H8R18020   5.430  -0.208   9.457 -0.0956  0.1699 -0.0691
  161SOPE   H8S18021   5.385  -0.062   9.362 -0.5427  0.3640  0.1193
  161SOPE   C2918022   5.581  -0.142   9.329  0.2886  0.2729 -0.1865
  161SOPE   H9118023   5.643  -0.229   9.355 -1.3511 -0.9658 -0.3078
  161SOPE  C21018024   5.624  -0.069   9.223  0.2540  0.1054  0.0632
  161SOPE  H10118025   5.714  -0.093   9.165  0.4316  1.4293 -0.2388
  161SOPE  C21118026   5.566   0.064   9.170  0.3646 -0.1035  0.8048
  161SOPE  H11R18027   5.620   0.158   9.196 -0.7461  0.2686  1.9033
  161SOPE  H11S18028   5.473   0.081   9.230  0.0821 -2.9418  1.3175
  161SOPE  C21218029   5.529   0.065   9.020 -0.3845 -0.3015  0.0532
  161SOPE  H12R18030   5.483   0.162   8.994 -0.4518  0.1208  1.6520
  161SOPE  H12S18031   5.453  -0.016   9.011 -0.6021 -0.0922  0.0187
  161SOPE  C21318032   5.639   0.041   8.918 -0.2744 -1.0035  0.6838
  161SOPE  H13R18033   5.593   0.024   8.818 -1.1039  0.4967  0.7748
  161SOPE  H13S18034   5.694  -0.050   8.950 -0.8415 -2.1273 -1.3523
  161SOPE  C21418035   5.739   0.161   8.909 -1.0163  0.5478 -0.4560
  161SOPE  H14R18036   5.801   0.162   9.002 -0.6219  0.8858 -0.7197
  161SOPE  H14S18037   5.684   0.257   8.907  0.6626  1.7435  2.8049
  161SOPE  C21518038   5.830   0.155   8.789 -0.0537 -0.5338  0.4303
  161SOPE  H15R18039   5.768   0.161   8.697  2.6057 -1.9313 -1.5685
  161SOPE  H15S18040   5.882   0.057   8.785 -0.0838 -0.5228 -0.4468
  161SOPE  C21618041   5.932   0.264   8.782  0.0658  0.6419 -0.0062
  161SOPE  H16R18042   5.980   0.268   8.882 -2.6194  0.8141  1.3718
  161SOPE  H16S18043   5.883   0.363   8.772 -2.3563 -0.6584 -2.1149
  161SOPE  C21718044   6.049   0.250   8.680  0.5496  0.2248 -0.7452
  161SOPE  H17R18045   6.005   0.257   8.579  2.6295 -0.8484 -1.7983
  161SOPE  H17S18046   6.082   0.148   8.708 -0.0117  0.0514 -0.7036
  161SOPE  C21818047   6.149   0.362   8.701  0.9189  0.9137 -0.8792
  161SOPE  H18R18048   6.102   0.459   8.729 -1.9706 -0.4871 -0.5260
  161SOPE  H18S18049   6.212   0.356   8.610 -0.4183 -0.6468 -1.7634
  161SOPE  H18T18050   6.206   0.330   8.790  0.3492  0.8668 -0.5245
  161SOPE   C3318051   5.739   0.835  10.120 -0.0058  0.0935  0.2629
  161SOPE   H3X18052   5.791   0.861  10.214 -0.4611 -1.5208  1.0158
  161SOPE   H3Y18053   5.694   0.926  10.077  0.1403 -1.0963 -2.6299
  161SOPE   C3418054   5.862   0.809  10.020 -0.0178 -0.8211  0.0472
  161SOPE   H4X18055   5.897   0.705  10.036 -1.6359 -1.2517  1.0400
  161SOPE   H4Y18056   5.951   0.873  10.040 -0.2233 -1.3589  3.2006
  161SOPE   C3518057   5.813   0.831   9.874  0.1941  0.3554 -0.5882
  161SOPE   H5X18058   5.745   0.919   9.869  0.9853  0.9680 -0.5784
  161SOPE   H5Y18059   5.751   0.746   9.838 -0.3261  0.4407  0.0677
  161SOPE   C3618060   5.932   0.846   9.772 -0.1012 -0.5162  0.1609
  161SOPE   H6X18061   5.997   0.758   9.790  0.2557  0.0057  1.4918
  161SOPE   H6Y18062   5.995   0.930   9.806 -0.0843 -0.4902  0.0670
  161SOPE   C3718063   5.890   0.860   9.623  0.3166  0.2378 -0.0696
  161SOPE   H7X18064   5.857   0.963   9.600  0.9039  0.5536  0.4845
  161SOPE   H7Y18065   5.802   0.799   9.593  0.8210  0.3948 -2.0141
  161SOPE   C3818066   6.018   0.822   9.551 -0.0819 -0.3580 -0.1774
  161SOPE   H8X18067   6.029   0.712   9.540  0.0843 -0.3252 -0.3527
  161SOPE   H8Y18068   6.113   0.860   9.595  0.4932 -1.1476 -0.7070
  161SOPE   C3918069   6.025   0.866   9.399  0.1478  0.4799 -0.3415
  161SOPE   H9X18070   5.927   0.828   9.361  0.0611 -0.4535  0.7770
  161SOPE   H9Y18071   6.106   0.806   9.352  1.0601  2.9187 -2.1286
  161SOPE  C31018072   6.033   1.012   9.365  0.6132  0.4610  0.1731
  161SOPE  H10X18073   6.121   1.068   9.404 -1.5379  2.8978  1.9917
  161SOPE  H10Y18074   5.960   1.068   9.428 -0.8352  0.7812 -1.7101
  161SOPE  C31118075   6.020   1.048   9.214  0.5555  0.3837 -1.0644
  161SOPE  H11X18076   5.929   0.997   9.177  1.8870 -1.7524 -1.5840
  161SOPE  H11Y18077   6.111   0.999   9.172  0.9622  0.1986 -0.0045
  161SOPE  C31218078   6.018   1.198   9.189  0.4488 -0.0722  0.4069
  161SOPE  H12X18079   6.110   1.241   9.234  1.9434 -3.3294  0.7207
  161SOPE  H12Y18080   5.924   1.247   9.221  0.8004  1.3066 -0.5962
  161SOPE  C31318081   6.035   1.240   9.045  0.3648  0.6586  0.5356
  161SOPE  H13X18082   5.956   1.194   8.982  0.0481  2.5392 -0.5041
  161SOPE  H13Y18083   6.132   1.208   9.001  0.3556 -1.7868  2.0702
  161SOPE  C31418084   5.983   1.377   9.000  1.0177  0.0155 -0.1084
  161SOPE  H14X18085   6.029   1.453   9.067 -0.6161 -1.2828  2.6678
  161SOPE  H14Y18086   5.873   1.391   9.006  0.8371 -1.6346  0.9736
  161SOPE  C31518087   6.021   1.391   8.854 -0.4686  0.4781  0.6873
  161SOPE  H15X18088   5.972   1.308   8.798 -1.1750  2.2210 -1.4185
  161SOPE  H15Y18089   6.130   1.384   8.870 -0.2398 -2.4925 -1.4073
  161SOPE  C31618090   5.995   1.516   8.786  0.1143 -0.6401  0.7021
  161SOPE  H16X18091   6.012   1.601   8.856 -1.3792 -0.4693  0.8860
  161SOPE  H16Y18092   5.894   1.524   8.740  0.4546  1.0824  0.1787
  161SOPE  C31718093   6.098   1.552   8.675 -0.0340  0.5835 -0.7771
  161SOPE  H17X18094   6.197   1.591   8.708 -0.0805  0.6231 -0.6843
  161SOPE  H17Y18095   6.059   1.636   8.614  0.6513  2.9109  1.8272
  161SOPE  C31818096   6.112   1.426   8.582  0.6096  0.2349  0.0667
  161SOPE  H18X18097   6.013   1.392   8.544  1.8514 -0.7831 -2.4725
  161SOPE  H18Y18098   6.162   1.342   8.633 -3.6268 -2.0023  1.0500
  161SOPE  H18Z18099   6.173   1.451   8.492 -0.6088 -2.5652 -1.6811
  162SOPE     N18100   4.027   6.312  10.880 -0.2443  0.1083  0.1593
  162SOPE   HN118101   4.097   6.388  10.865 -1.2724  0.9958 -0.2134
  162SOPE   HN218102   3.998   6.318  10.980  0.2432 -0.6565  0.3590
  162SOPE   HN318103   4.081   6.223  10.867  1.0751  0.7610  0.9157
  162SOPE   C1218104   3.913   6.321  10.793 -0.4508 -0.3090 -0.3672
  162SOPE  H12A18105   3.854   6.227  10.783 -2.4136  0.7228  0.7458
  162SOPE  H12B18106   3.944   6.357  10.693 -2.8368  1.1223 -0.6897
  162SOPE   C1118107   3.807   6.414  10.849  0.1028 -0.4025  0.3690
  162SOPE  H11A18108   3.767   6.374  10.945 -1.0385 -1.5005 -0.5424
  162SOPE  H11B18109   3.725   6.414  10.775 -0.1484 -0.5840  0.6442
  162SOPE     P18110   3.840   6.662  10.777  0.0006  0.1216 -0.0444
  162SOPE   O1318111   3.945   6.770  10.811  0.1848 -0.0841 -0.3035
  162SOPE   O1418112   3.698   6.707  10.786 -0.0585  0.3940  0.4315
  162SOPE   O1218113   3.862   6.541  10.878  0.1592 -0.0355  0.1859
  162SOPE   O1118114   3.868   6.605  10.636 -0.4015 -0.3362  0.0397
  162SOPE    C118115   3.999   6.619  10.579  0.2644  0.6386  0.0687
  162SOPE    HA18116   4.020   6.526  10.522 -1.5231  1.1728 -1.5862
  162SOPE    HB18117   4.080   6.620  10.654  0.5330 -0.6339 -0.1913
  162SOPE    C218118   4.017   6.744  10.483 -0.4413  0.3204 -0.5866
  162SOPE    HS18119   4.003   6.839  10.538  1.2679  2.7147 -3.9188
  162SOPE   O2118120   3.923   6.736  10.372  0.0451 -0.3036  0.1520
  162SOPE   C2118121   3.817   6.824  10.367 -0.2617  0.2207 -0.0251
  162SOPE   O2218122   3.809   6.916  10.447  0.7372  0.0125  0.1700
  162SOPE   C2218123   3.722   6.796  10.246  0.0674  0.1840  0.2469
  162SOPE   H2R18124   3.643   6.724  10.275 -0.8195  1.9162  2.4062
  162SOPE   H2S18125   3.789   6.747  10.173  0.0413 -1.8187  1.4710
  162SOPE    C318126   4.157   6.747  10.420 -0.0356  0.1986 -0.2449
  162SOPE    HX18127   4.241   6.728  10.490  2.1668 -1.0714 -3.0205
  162SOPE    HY18128   4.181   6.846  10.376  0.5222 -0.5864 -1.7829
  162SOPE   O3118129   4.171   6.636  10.321  0.3329 -0.2165 -0.2224
  162SOPE   C3118130   4.140   6.669  10.198 -0.3904  0.7261  0.1855
  162SOPE   O3218131   4.103   6.776  10.153 -0.2327 -0.2851 -0.1424
  162SOPE   C3218132   4.184   6.560  10.105  0.1876  0.5032 -0.2984
  162SOPE   H2X18133   4.122   6.469  10.122 -0.0136  0.3099 -1.9451
  162SOPE   H2Y18134   4.288   6.533  10.133 -0.5945 -1.5357  0.9451
  162SOPE   C2318135   3.673   6.930  10.186 -0.0190  0.1486 -0.6464
  162SOPE   H3R18136   3.745   7.014  10.188 -1.1640  1.1607  0.4341
  162SOPE   H3S18137   3.587   6.968  10.245  0.1680  1.9531 -1.4940
  162SOPE   C2418138   3.613   6.913  10.052  0.0965  0.0073 -0.1795
  162SOPE   H4R18139   3.702   6.899   9.987 -1.0016 -0.1680 -1.6829
  162SOPE   H4S18140   3.548   6.823  10.051  0.7567 -0.4978  0.8367
  162SOPE   C2518141   3.555   7.048   9.994  0.0177  0.7418  0.2906
  162SOPE   H5R18142   3.456   7.065  10.041 -0.8231 -2.2481 -0.1711
  162SOPE   H5S18143   3.628   7.130  10.007 -0.2178  0.7569  1.6290
  162SOPE   C2618144   3.517   7.038   9.851  0.4203 -0.3179 -0.4030
  162SOPE   H6R18145   3.613   7.034   9.795  1.1310  1.6477  0.5809
  162SOPE   H6S18146   3.459   6.945   9.832 -1.7775  0.7674  0.6364
  162SOPE   C2718147   3.431   7.159   9.809  0.5013 -0.0365 -1.2161
  162SOPE   H7R18148   3.350   7.164   9.884  1.9664 -0.8485  0.5057
  162SOPE   H7S18149   3.502   7.245   9.814  0.7126 -0.0967 -2.7373
  162SOPE   C2818150   3.355   7.134   9.675 -0.3385  0.2078 -0.0723
  162SOPE   H8R18151   3.325   7.027   9.673 -1.6690  0.5656 -0.3390
  162SOPE   H8S18152   3.269   7.205   9.679  0.3879  1.2339 -1.6619
  162SOPE   C2918153   3.442   7.171   9.563  0.1488  0.4489  0.2481
  162SOPE   H9118154   3.531   7.232   9.584 -0.2841 -0.0059  4.1133
  162SOPE  C21018155   3.431   7.112   9.444 -0.0256  0.1618  0.4290
  162SOPE  H10118156   3.502   7.133   9.362 -2.3648 -1.8465 -2.2992
  162SOPE  C21118157   3.327   7.008   9.402  0.4953 -0.3072 -0.0468
  162SOPE  H11R18158   3.229   7.051   9.430 -0.4453 -1.3690 -1.6065
  162SOPE  H11S18159   3.336   6.915   9.463 -0.3477 -0.2559  0.1598
  162SOPE  C21218160   3.315   6.977   9.253 -0.2295 -0.0012 -0.8251
  162SOPE  H12R18161   3.391   6.901   9.228  0.4580 -0.7869  3.0174
  162SOPE  H12S18162   3.337   7.068   9.193 -0.0300  1.9535  2.0382
  162SOPE  C21318163   3.170   6.924   9.220  0.3657 -0.9576 -0.3147
  162SOPE  H13R18164   3.102   7.004   9.257  2.1829 -0.4057  2.0005
  162SOPE  H13S18165   3.161   6.828   9.275  2.2209 -0.4180  1.0264
  162SOPE  C21418166   3.149   6.892   9.075  0.4125  0.2228  0.3364
  162SOPE  H14R18167   3.058   6.829   9.072 -0.3749  1.0719  2.9653
  162SOPE  H14S18168   3.236   6.835   9.036 -0.4834  0.8558 -2.8292
  162SOPE  C21518169   3.127   7.010   8.979  0.2364  0.0155  0.5687
  162SOPE  H15R18170   3.223   7.054   8.946 -0.3720  0.7983 -0.2095
  162SOPE  H15S18171   3.077   7.098   9.025 -0.7873  1.4878 -2.9897
  162SOPE  C21618172   3.055   6.969   8.848  0.3817 -0.2514 -0.7387
  162SOPE  H16R18173   2.954   6.941   8.885 -0.4625  0.4698 -2.3969
  162SOPE  H16S18174   3.105   6.881   8.803 -0.9633 -0.3898 -2.0177
  162SOPE  C21718175   3.031   7.080   8.745 -0.0716 -0.1028  0.4371
  162SOPE  H17R18176   2.996   7.035   8.649  1.4427 -0.2465 -0.0710
  162SOPE  H17S18177   3.127   7.132   8.728  0.3815 -1.3190 -0.9720
  162SOPE  C21818178   2.922   7.186   8.789  0.4989  0.7535  0.1642
  162SOPE  H18R18179   2.894   7.247   8.700 -0.3684 -0.4391 -0.4020
  162SOPE  H18S18180   2.959   7.246   8.875 -0.9482  0.4825  1.0093
  162SOPE  H18T18181   2.836   7.125   8.823 -0.2807  1.9639  0.4443
  162SOPE   C3318182   4.172   6.597   9.956 -0.2721  1.1615 -0.1257
  162SOPE   H3X18183   4.216   6.695   9.928  1.7717  0.4182  0.2768
  162SOPE   H3Y18184   4.063   6.604   9.937 -0.8949 -1.4455  1.7871
  162SOPE   C3418185   4.218   6.481   9.866 -0.5599  0.2095 -0.6722
  162SOPE   H4X18186   4.159   6.392   9.898 -0.5114  0.0714 -0.9659
  162SOPE   H4Y18187   4.325   6.466   9.892 -0.2294  2.5545 -0.4810
  162SOPE   C3518188   4.209   6.499   9.714 -0.7640  0.5708 -0.5010
  162SOPE   H5X18189   4.288   6.575   9.697 -0.1711 -0.0949 -0.7660
  162SOPE   H5Y18190   4.109   6.541   9.686 -1.7419 -1.4595 -0.2373
  162SOPE   C3618191   4.246   6.374   9.621  0.8383  0.2363 -0.7770
  162SOPE   H6X18192   4.150   6.318   9.612  1.1911 -0.8302  1.4572
  162SOPE   H6Y18193   4.309   6.301   9.675  1.1345  0.8664 -0.2582
  162SOPE   C3718194   4.312   6.410   9.494 -0.0248  0.0953  0.2215
  162SOPE   H7X18195   4.414   6.452   9.505  0.6858 -1.1123 -1.3028
  162SOPE   H7Y18196   4.252   6.495   9.455  0.5050 -0.2664 -1.4836
  162SOPE   C3818197   4.307   6.301   9.394  0.0915 -0.3983 -0.3015
  162SOPE   H8X18198   4.213   6.243   9.406 -0.6907  0.7921 -0.4841
  162SOPE   H8Y18199   4.392   6.232   9.413  0.9575  0.5161 -0.7643
  162SOPE   C3918200   4.313   6.348   9.244  0.2222 -0.5784 -0.5020
  162SOPE   H9X18201   4.415   6.386   9.221  0.6119  0.7302  2.8788
  162SOPE   H9Y18202   4.240   6.431   9.225  1.7793  0.9118 -0.1998
  162SOPE  C31018203   4.280   6.232   9.151 -0.3775  0.2331 -0.1018
  162SOPE  H10X18204   4.171   6.212   9.155 -0.0319 -1.8414 -0.0262
  162SOPE  H10Y18205   4.333   6.141   9.185 -1.9150 -0.5970  0.1460
  162SOPE  C31118206   4.313   6.270   9.008 -0.1757 -0.1044 -0.7365
  162SOPE  H11X18207   4.415   6.312   8.990  0.2530 -1.4561 -1.6013
  162SOPE  H11Y18208   4.236   6.342   8.973 -2.0019 -1.1777  0.9283
  162SOPE  C31218209   4.310   6.137   8.930 -0.2970  0.1120  0.0361
  162SOPE  H12X18210   4.211   6.089   8.949  0.0457 -1.5527 -2.0429
  162SOPE  H12Y18211   4.374   6.069   8.990  1.2974  2.2127  0.8619
  162SOPE  C31318212   4.356   6.159   8.786  0.4158  0.4484 -0.5937
  162SOPE  H13X18213   4.375   6.056   8.746  2.8011 -0.4021  2.3385
  162SOPE  H13Y18214   4.453   6.213   8.785 -0.5233  2.2092  0.3590
  162SOPE  C31418215   4.250   6.228   8.695 -0.1017 -0.2901 -0.4801
  162SOPE  H14X18216   4.239   6.333   8.730 -1.2977 -0.2308 -0.9993
  162SOPE  H14Y18217   4.153   6.181   8.722  1.0196 -0.8616  3.0370
  162SOPE  C31518218   4.278   6.208   8.553  0.0376 -0.0407 -0.5203
  162SOPE  H15X18219   4.282   6.102   8.521 -0.1012  0.4631 -2.3717
  162SOPE  H15Y18220   4.383   6.241   8.539  1.4525 -2.9064  2.2260
  162SOPE  C31618221   4.182   6.283   8.462  0.4741  0.0480 -0.1809
  162SOPE  H16X18222   4.177   6.388   8.497  0.8654 -0.0578  0.2029
  162SOPE  H16Y18223   4.083   6.232   8.473  0.2633  0.6851  1.1237
  162SOPE  C31718224   4.212   6.274   8.308  0.1706 -0.2791  0.1206
  162SOPE  H17X18225   4.319   6.279   8.281  0.4437 -0.9019  1.0551
  162SOPE  H17Y18226   4.177   6.365   8.255  1.3377  0.3706  0.4389
  162SOPE  C31818227   4.148   6.150   8.239  0.5488 -0.4424 -0.2926
  162SOPE  H18X18228   4.042   6.132   8.264  0.1504  1.7708 -0.2045
  162SOPE  H18Y18229   4.218   6.066   8.259 -0.5452 -0.6539  3.2890
  162SOPE  H18Z18230   4.144   6.175   8.131 -0.7270 -1.1306 -0.4236
  163SOPE     N18231   3.940   3.493  10.689 -0.2635 -0.4791  0.1484
  163SOPE   HN118232   3.973   3.401  10.724 -0.7979 -0.8756 -0.3738
  163SOPE   HN218233   3.977   3.502  10.592 -1.3357 -1.8511 -0.4278
  163SOPE   HN318234   3.989   3.558  10.754  0.3688  1.2084 -1.8959
  163SOPE   C1218235   3.791   3.508  10.685  0.1016 -0.0260  0.3913
  163SOPE  H12A18236   3.757   3.478  10.786  2.6178 -0.8510  1.0731
  163SOPE  H12B18237   3.759   3.431  10.611 -1.8020  0.1490  0.9763
  163SOPE   C1118238   3.758   3.655  10.635 -0.0431  0.0448 -0.8183
  163SOPE  H11A18239   3.647   3.650  10.623 -0.4432 -1.0175  2.3291
  163SOPE  H11B18240   3.799   3.669  10.533  0.9915 -1.9376 -0.7327
  163SOPE     P18241   3.840   3.894  10.683 -0.0529 -0.0645 -0.2992
  163SOPE   O1318242   3.984   3.869  10.656 -0.3612  0.3023  0.1303
  163SOPE   O1418243   3.803   4.001  10.774  0.1074 -0.1240  0.0593
  163SOPE   O1218244   3.786   3.758  10.734  0.3283  0.3290  0.5096
  163SOPE   O1118245   3.762   3.914  10.547  0.5830 -0.1956  0.2755
  163SOPE    C118246   3.815   4.018  10.454  0.0706  0.2184 -0.5213
  163SOPE    HA18247   3.923   4.040  10.469  0.1812 -0.7832  0.2947
  163SOPE    HB18248   3.760   4.113  10.472  0.8861  0.5123  0.5206
  163SOPE    C218249   3.802   3.976  10.308  0.2006 -0.2668 -0.8219
  163SOPE    HS18250   3.852   4.052  10.244 -1.4416  1.9649  0.4079
  163SOPE   O2118251   3.667   3.969  10.268 -0.1245  0.0451  0.3296
  163SOPE   C2118252   3.609   4.077  10.214 -0.6570  0.1548 -0.3222
  163SOPE   O2218253   3.666   4.178  10.190 -0.4383 -0.2771  0.1677
  163SOPE   C2218254   3.470   4.030  10.172  0.0485  0.3110 -0.1147
  163SOPE   H2R18255   3.407   4.026  10.263 -0.1049 -0.4003 -0.2529
  163SOPE   H2S18256   3.475   3.925  10.139  0.1865 -0.2607  1.6160
  163SOPE    C318257   3.866   3.837  10.290  0.1199  0.2857 -0.1485
  163SOPE    HX18258   3.800   3.767  10.345  0.1692  0.8339  0.6229
  163SOPE    HY18259   3.962   3.840  10.345 -0.4936  0.5674  0.9220
  163SOPE   O3118260   3.886   3.803  10.150  0.3487 -0.1357  0.5972
  163SOPE   C3118261   3.990   3.867  10.084  0.8714  0.1802 -0.1594
  163SOPE   O3218262   4.079   3.927  10.137 -0.1242  0.1424  0.2624
  163SOPE   C3218263   3.990   3.823   9.934 -0.1254 -0.3591  0.2581
  163SOPE   H2X18264   4.057   3.734   9.928  1.4501  0.8150 -0.5356
  163SOPE   H2Y18265   4.028   3.908   9.873 -0.8350 -0.1966  0.0292
  163SOPE   C2318266   3.414   4.127  10.064 -0.6176  0.8712 -0.0095
  163SOPE   H3R18267   3.433   4.233  10.091 -0.1117  0.1795  2.7123
  163SOPE   H3S18268   3.310   4.093  10.045  0.1935 -3.9406  2.5699
  163SOPE   C2418269   3.479   4.100   9.933  0.2966  0.5345  0.1068
  163SOPE   H4R18270   3.589   4.118   9.942  0.1973  0.9796  0.4629
  163SOPE   H4S18271   3.459   3.996   9.902 -1.0251  0.4454  1.1919
  163SOPE   C2518272   3.422   4.191   9.821 -0.0736 -0.5101  0.4501
  163SOPE   H5R18273   3.311   4.181   9.819 -0.2136  0.9077 -0.6288
  163SOPE   H5S18274   3.433   4.300   9.837  0.5340 -0.5310  0.1982
  163SOPE   C2618275   3.464   4.145   9.676  0.0958 -0.2544 -0.3135
  163SOPE   H6R18276   3.571   4.172   9.665  0.3989 -0.7150  1.2438
  163SOPE   H6S18277   3.462   4.034   9.674 -0.0150 -0.2430 -1.9549
  163SOPE   C2718278   3.374   4.191   9.568 -0.1288 -0.2437 -0.1595
  163SOPE   H7R18279   3.265   4.172   9.584 -0.3886  1.5915  0.4601
  163SOPE   H7S18280   3.386   4.301   9.565 -1.1551 -0.0814  0.8796
  163SOPE   C2818281   3.406   4.147   9.424  0.3127  0.0929  0.5733
  163SOPE   H8R18282   3.333   4.202   9.361  2.4912  1.2007 -1.1106
  163SOPE   H8S18283   3.505   4.196   9.413  0.0324  0.2172 -1.8789
  163SOPE   C2918284   3.393   3.999   9.408  0.2183 -0.7621  0.5654
  163SOPE   H9118285   3.323   3.954   9.479 -0.7794  0.5148  0.4123
  163SOPE  C21018286   3.438   3.922   9.310  0.0813  0.5384  0.1687
  163SOPE  H10118287   3.410   3.815   9.307 -1.8441  1.0172 -0.0810
  163SOPE  C21118288   3.519   3.970   9.193  0.1940  0.2128  0.3486
  163SOPE  H11R18289   3.591   3.892   9.157  0.6304 -0.2283  2.1025
  163SOPE  H11S18290   3.582   4.057   9.221  0.8197 -0.3257  0.6419
  163SOPE  C21218291   3.431   4.003   9.072  0.4070  0.4439 -0.6074
  163SOPE  H12R18292   3.343   4.057   9.113  1.1656  0.9523  0.3898
  163SOPE  H12S18293   3.400   3.916   9.011 -2.0235 -0.1663  1.3288
  163SOPE  C21318294   3.483   4.109   8.969  0.8102 -0.7657 -0.4246
  163SOPE  H13R18295   3.580   4.075   8.927  1.3078  1.3387 -1.1016
  163SOPE  H13S18296   3.511   4.202   9.022 -1.6024 -0.0396 -0.2867
  163SOPE  C21418297   3.383   4.133   8.861 -0.3022  0.1679  0.3737
  163SOPE  H14R18298   3.431   4.209   8.796  0.4041 -1.7676 -1.4817
  163SOPE  H14S18299   3.287   4.172   8.903  0.5710  1.0114  1.6596
  163SOPE  C21518300   3.357   4.010   8.769  0.3997 -0.4274 -0.3373
  163SOPE  H15R18301   3.275   3.951   8.815  0.1731  0.1251 -0.0344
  163SOPE  H15S18302   3.453   3.954   8.768 -0.1048 -1.5067  2.5175
  163SOPE  C21618303   3.311   4.063   8.629  0.1758 -0.2094  0.8100
  163SOPE  H16R18304   3.392   4.122   8.580 -0.3673  1.2239  1.5789
  163SOPE  H16S18305   3.216   4.117   8.650 -0.1431 -0.6406  0.4796
  163SOPE  C21718306   3.289   3.933   8.550  0.1547  0.4834  0.0718
  163SOPE  H17R18307   3.206   3.887   8.609  0.0432  1.2004  0.4920
  163SOPE  H17S18308   3.372   3.865   8.577  0.7431  1.0887 -0.1698
  163SOPE  C21818309   3.253   3.957   8.401  0.5255 -0.5211 -0.5476
  163SOPE  H18R18310   3.208   3.866   8.356 -0.4141 -0.0626 -0.5688
  163SOPE  H18S18311   3.346   3.984   8.347  1.0136 -0.6079  0.2371
  163SOPE  H18T18312   3.180   4.041   8.397 -1.9761 -2.5971 -2.6533
  163SOPE   C3318313   3.851   3.794   9.881  0.5798 -0.1649 -0.5259
  163SOPE   H3X18314   3.775   3.875   9.887  2.0875  1.2620  0.3135
  163SOPE   H3Y18315   3.805   3.727   9.955 -0.6672 -1.1181 -2.0937
  163SOPE   C3418316   3.855   3.739   9.736  0.0141  0.1919  0.7463
  163SOPE   H4X18317   3.749   3.724   9.705  0.7214  0.9285 -2.4645
  163SOPE   H4Y18318   3.904   3.639   9.732 -0.7629 -0.1935  0.4858
  163SOPE   C3518319   3.914   3.834   9.629 -0.1686  0.1432 -0.5485
  163SOPE   H5X18320   4.016   3.798   9.603 -0.4762 -2.0661  1.0616
  163SOPE   H5Y18321   3.913   3.940   9.662 -0.9891 -0.1571  0.4313
  163SOPE   C3618322   3.840   3.837   9.495 -0.0722 -0.0216  0.4644
  163SOPE   H6X18323   3.908   3.901   9.436  1.6120  0.1934  2.5314
  163SOPE   H6Y18324   3.737   3.878   9.505 -0.2889  0.6511 -3.3452
  163SOPE   C3718325   3.837   3.703   9.418  0.6293 -1.2166  0.0876
  163SOPE   H7X18326   3.782   3.623   9.473 -1.0199  0.5202  1.0741
  163SOPE   H7Y18327   3.935   3.668   9.379  0.2551 -0.0149 -2.1249
  163SOPE   C3818328   3.760   3.722   9.286 -0.1274  0.3795 -0.0291
  163SOPE   H8X18329   3.810   3.799   9.223  0.9090 -0.4123 -0.2035
  163SOPE   H8Y18330   3.657   3.749   9.315 -1.6288 -3.3257 -1.2604
  163SOPE   C3918331   3.747   3.591   9.216 -0.0022  0.2587  0.7738
  163SOPE   H9X18332   3.694   3.513   9.275  2.0609 -0.9720  1.1020
  163SOPE   H9Y18333   3.851   3.558   9.195 -0.4118 -0.4394 -0.2508
  163SOPE  C31018334   3.670   3.608   9.082  0.0639  0.3141 -0.5369
  163SOPE  H10X18335   3.729   3.671   9.012  1.1788  1.9432  1.7327
  163SOPE  H10Y18336   3.577   3.666   9.100 -0.7826 -1.3479  0.7445
  163SOPE  C31118337   3.643   3.479   9.009 -0.0099  0.2051  0.3004
  163SOPE  H11X18338   3.573   3.499   8.924  0.7963 -1.7124 -0.8594
  163SOPE  H11Y18339   3.592   3.406   9.075 -1.2723  0.5854 -0.2226
  163SOPE  C31218340   3.777   3.432   8.954 -0.2972  0.5433  1.1749
  163SOPE  H12X18341   3.831   3.405   9.047  2.1082 -1.0299 -0.5590
  163SOPE  H12Y18342   3.846   3.503   8.905  0.2766 -0.2821  0.7549
  163SOPE  C31318343   3.774   3.305   8.868 -0.1406 -0.9507  0.1183
  163SOPE  H13X18344   3.685   3.248   8.903 -2.3402  0.6153 -2.4379
  163SOPE  H13Y18345   3.870   3.252   8.886 -1.2147 -2.5382  1.4252
  163SOPE  C31418346   3.760   3.329   8.713 -0.4802  0.4743 -0.3576
  163SOPE  H14X18347   3.854   3.380   8.683 -0.9719  0.7144 -1.5249
  163SOPE  H14Y18348   3.678   3.402   8.695  1.4182  2.2604 -2.4462
  163SOPE  C31518349   3.753   3.193   8.647  0.7640  0.4055  0.8446
  163SOPE  H15X18350   3.649   3.161   8.670  0.5661  0.4527  0.0655
  163SOPE  H15Y18351   3.833   3.122   8.673 -0.9988 -1.2604  2.0052
  163SOPE  C31618352   3.755   3.208   8.491 -0.6315 -0.0735  0.5175
  163SOPE  H16X18353   3.856   3.234   8.453 -1.0025  0.1080 -0.3902
  163SOPE  H16Y18354   3.692   3.295   8.462 -0.8491 -0.3510  0.1500
  163SOPE  C31718355   3.712   3.085   8.416 -0.1926 -0.8937 -1.1142
  163SOPE  H17X18356   3.608   3.061   8.447 -0.6115  1.6099 -0.3163
  163SOPE  H17Y18357   3.769   3.000   8.459 -1.8801 -0.6110  1.9778
  163SOPE  C31818358   3.728   3.091   8.267 -0.2136 -0.2296  0.6912
  163SOPE  H18X18359   3.828   3.093   8.220 -1.5144 -1.7095 -2.3920
  163SOPE  H18Y18360   3.660   3.168   8.223  0.9475  0.6271  0.3455
  163SOPE  H18Z18361   3.688   2.999   8.220  0.1300 -0.4732  0.8767
  164SOPE     N18362   2.141   0.970  10.475  0.3950 -0.8091 -0.1295
  164SOPE   HN118363   2.115   0.937  10.380  0.1112  0.0204 -0.3482
  164SOPE   HN218364   2.242   0.991  10.491  0.6158  0.0651 -2.3151
  164SOPE   HN318365   2.108   0.898  10.541 -1.1246  0.4920  0.6132
  164SOPE   C1218366   2.061   1.099  10.499  0.2790 -0.0580  0.3133
  164SOPE  H12A18367   2.020   1.137  10.403 -1.2324 -1.3240  0.4271
  164SOPE  H12B18368   2.134   1.175  10.536  0.5624 -1.0184  1.8130
  164SOPE   C1118369   1.956   1.072  10.604  1.0104 -0.2855 -0.0037
  164SOPE  H11A18370   1.895   1.164  10.613 -1.1887 -1.6714  0.0752
  164SOPE  H11B18371   1.994   1.028  10.698  0.7592 -0.1548  0.1596
  164SOPE     P18372   1.733   0.926  10.598  0.2941  0.1251 -0.5111
  164SOPE   O1318373   1.719   0.948  10.746  0.2915  0.4858  0.2396
  164SOPE   O1418374   1.714   0.792  10.546  0.2621  0.0195 -0.3402
  164SOPE   O1218375   1.874   0.971  10.547 -0.1158  0.1073  0.7262
  164SOPE   O1118376   1.627   1.019  10.540  0.3933  0.1677  0.1818
  164SOPE    C118377   1.657   1.094  10.420  0.2496 -0.3372 -0.0630
  164SOPE    HA18378   1.766   1.118  10.415  0.3167 -0.4335  0.7596
  164SOPE    HB18379   1.613   1.196  10.423  0.1733 -0.3801  0.2691
  164SOPE    C218380   1.620   1.025  10.296 -0.5075  0.0082  0.1681
  164SOPE    HS18381   1.687   0.940  10.268  1.6320  1.5672  0.3626
  164SOPE   O2118382   1.618   1.126  10.192 -0.3743  0.0590  0.4521
  164SOPE   C2118383   1.729   1.142  10.119  0.0586  0.0334  0.0499
  164SOPE   O2218384   1.836   1.087  10.126  0.0498  0.3690  0.1811
  164SOPE   C2218385   1.694   1.240  10.009  0.5361 -0.6356 -0.4173
  164SOPE   H2R18386   1.756   1.332  10.016  0.8890 -0.9726  1.0795
  164SOPE   H2S18387   1.591   1.274  10.035  1.0591 -0.5655  1.6859
  164SOPE    C318388   1.477   0.968  10.315  0.1794  0.0588 -0.6933
  164SOPE    HX18389   1.399   1.039  10.350  0.2976  0.0956 -0.5005
  164SOPE    HY18390   1.478   0.901  10.403 -1.5057  0.8730 -0.0078
  164SOPE   O3118391   1.431   0.874  10.213  0.0274  0.1941  0.0424
  164SOPE   C3118392   1.346   0.923  10.124 -0.0683  0.2631  0.0116
  164SOPE   O3218393   1.291   1.035  10.137  0.6921 -0.0269  0.0277
  164SOPE   C3218394   1.338   0.832  10.001 -0.0286  0.0031  0.0105
  164SOPE   H2X18395   1.328   0.727  10.036 -0.0306  0.5160  1.5986
  164SOPE   H2Y18396   1.434   0.842   9.946  0.9169  1.2059  1.8056
  164SOPE   C2318397   1.700   1.164   9.873  0.0294  0.0525  0.6533
  164SOPE   H3R18398   1.806   1.131   9.869 -0.0040  0.0608 -0.8095
  164SOPE   H3S18399   1.678   1.243   9.797 -2.0788  0.2416  1.3753
  164SOPE   C2418400   1.593   1.051   9.863 -0.8431  0.3413  0.8450
  164SOPE   H4R18401   1.617   0.967   9.931 -1.2540 -1.8996 -1.6138
  164SOPE   H4S18402   1.488   1.086   9.875 -0.9918 -0.1261  0.9383
  164SOPE   C2518403   1.591   0.988   9.719 -0.1906 -0.0569  0.2805
  164SOPE   H5R18404   1.510   0.914   9.708  1.8877 -2.5938  1.1014
  164SOPE   H5S18405   1.571   1.067   9.643 -0.5706  0.3792  0.8222
  164SOPE   C2618406   1.729   0.921   9.672  0.2198  0.1007 -0.1487
  164SOPE   H6R18407   1.818   0.988   9.664 -0.9794  2.0511  1.7840
  164SOPE   H6S18408   1.753   0.843   9.747 -0.9120 -1.4083 -1.3149
  164SOPE   C2718409   1.717   0.845   9.542 -0.2520 -0.0991 -0.2079
  164SOPE   H7R18410   1.724   0.901   9.446 -1.5661  1.1998  0.4290
  164SOPE   H7S18411   1.806   0.779   9.529 -0.9992 -1.2163  0.1735
  164SOPE   C2818412   1.603   0.746   9.536  0.5327  0.0757  0.3198
  164SOPE   H8R18413   1.588   0.716   9.642 -0.4371  3.4900  1.2878
  164SOPE   H8S18414   1.516   0.812   9.515  2.2605  3.8627  3.7522
  164SOPE   C2918415   1.627   0.636   9.431  0.5280 -0.0616  0.5040
  164SOPE   H9118416   1.716   0.575   9.449 -0.2419 -1.3353  0.1316
  164SOPE  C21018417   1.556   0.601   9.313 -0.0056  0.3004  0.1240
  164SOPE  H10118418   1.588   0.522   9.243 -2.2536  1.8747 -2.9075
  164SOPE  C21118419   1.430   0.666   9.256  0.1729 -0.2869  0.1103
  164SOPE  H11R18420   1.379   0.747   9.313 -3.9250 -2.1510 -0.5575
  164SOPE  H11S18421   1.357   0.583   9.267  0.8138 -0.6619  1.9730
  164SOPE  C21218422   1.424   0.701   9.101  0.2975  0.9244 -0.3898
  164SOPE  H12R18423   1.321   0.715   9.062  0.2535 -0.0981 -0.6845
  164SOPE  H12S18424   1.485   0.622   9.051  1.2822  0.0124  2.0863
  164SOPE  C21318425   1.509   0.827   9.082  0.6617 -0.6364  0.0799
  164SOPE  H13R18426   1.551   0.836   8.980  0.9918 -2.1226  0.0712
  164SOPE  H13S18427   1.594   0.825   9.153 -0.8493  1.1950  2.1089
  164SOPE  C21418428   1.437   0.955   9.122 -0.1631  0.1414  0.3210
  164SOPE  H14R18429   1.416   0.961   9.232  2.4415  1.0177  0.8407
  164SOPE  H14S18430   1.349   0.980   9.058  0.3374  3.4733  0.7242
  164SOPE  C21518431   1.530   1.077   9.111 -0.4193 -0.0437  0.4047
  164SOPE  H15R18432   1.618   1.065   9.178 -2.9333  1.5191  4.3681
  164SOPE  H15S18433   1.464   1.158   9.150 -1.6724 -0.7183 -0.2486
  164SOPE  C21618434   1.547   1.134   8.970 -0.2357  0.2285  0.4237
  164SOPE  H16R18435   1.596   1.067   8.896  0.4709  1.9159 -0.7259
  164SOPE  H16S18436   1.626   1.213   8.968 -0.3981  0.4035 -1.9854
  164SOPE  C21718437   1.424   1.196   8.906  0.0851  0.0149 -0.0546
  164SOPE  H17R18438   1.401   1.288   8.964  0.2816  0.9168 -1.3597
  164SOPE  H17S18439   1.342   1.124   8.923  0.6947 -0.3973  1.2378
  164SOPE  C21818440   1.429   1.219   8.755 -0.4989  0.7676  0.0787
  164SOPE  H18R18441   1.343   1.279   8.718 -0.6127 -0.8673 -2.5338
  164SOPE  H18S18442   1.426   1.125   8.697 -1.0921  0.1852  1.0078
  164SOPE  H18T18443   1.523   1.276   8.745 -0.1146  0.4154  1.4290
  164SOPE   C3318444   1.217   0.868   9.913 -0.2921  0.1503 -0.5311
  164SOPE   H3X18445   1.226   0.974   9.881  0.8962 -0.8897 -4.0594
  164SOPE   H3Y18446   1.130   0.848   9.979 -1.1164 -0.2601 -1.7146
  164SOPE   C3418447   1.203   0.769   9.793 -0.2414 -0.8265 -0.3320
  164SOPE   H4X18448   1.165   0.671   9.827 -0.8155  0.0141  1.5892
  164SOPE   H4Y18449   1.307   0.757   9.756  0.2979  1.1140  0.4242
  164SOPE   C3518450   1.129   0.824   9.670 -0.2885  0.4359  0.4714
  164SOPE   H5X18451   1.166   0.928   9.654  1.5966  0.0881  2.2111
  164SOPE   H5Y18452   1.018   0.828   9.676 -0.4469 -1.1424 -0.9110
  164SOPE   C3618453   1.149   0.735   9.541  0.3330  0.7681 -0.2317
  164SOPE   H6X18454   1.129   0.629   9.570 -1.8198  1.1317 -0.1945
  164SOPE   H6Y18455   1.254   0.739   9.505 -0.1991  2.3972 -1.7561
  164SOPE   C3718456   1.055   0.781   9.427  0.1973  0.3805  0.5728
  164SOPE   H7X18457   1.049   0.892   9.424  1.4178  0.4551  0.2216
  164SOPE   H7Y18458   0.954   0.736   9.439  0.2418 -0.0784 -0.6404
  164SOPE   C3818459   1.104   0.746   9.287 -0.0666  0.3580 -1.2052
  164SOPE   H8X18460   1.128   0.640   9.266 -1.5412 -0.4344  0.7694
  164SOPE   H8Y18461   1.191   0.813   9.267  0.5822 -0.3174 -0.6890
  164SOPE   C3918462   0.987   0.788   9.190 -0.5233 -0.4390  0.4548
  164SOPE   H9X18463   0.952   0.888   9.225  0.2368 -0.6639  1.9400
  164SOPE   H9Y18464   0.902   0.717   9.201 -1.1557  0.4076  1.1961
  164SOPE  C31018465   1.043   0.799   9.048  0.1403 -0.5547  0.5549
  164SOPE  H10X18466   1.098   0.706   9.021  1.2232  0.2618 -0.1397
  164SOPE  H10Y18467   1.102   0.891   9.029 -1.4975  0.5163  0.4416
  164SOPE  C31118468   0.925   0.799   8.940 -0.0841 -0.4114 -0.0821
  164SOPE  H11X18469   0.866   0.893   8.951  0.2159 -0.0362 -1.4948
  164SOPE  H11Y18470   0.859   0.713   8.966  1.2735 -1.2561  0.6796
  164SOPE  C31218471   0.962   0.787   8.783  0.1012  0.1932 -1.0324
  164SOPE  H12X18472   1.024   0.696   8.773 -1.0150 -0.5280 -1.5734
  164SOPE  H12Y18473   1.020   0.878   8.755  1.7833 -1.5418 -3.6027
  164SOPE  C31318474   0.838   0.777   8.704  0.0526  0.2678  0.2067
  164SOPE  H13X18475   0.770   0.862   8.730  1.1070  1.4753 -0.8612
  164SOPE  H13Y18476   0.791   0.677   8.711  0.1369  0.1652 -0.5981
  164SOPE  C31418477   0.865   0.787   8.550  0.4529  0.3197  0.4999
  164SOPE  H14X18478   0.930   0.877   8.539  0.1796  0.4245 -0.3926
  164SOPE  H14Y18479   0.773   0.808   8.491 -0.3849 -1.7017  1.0272
  164SOPE  C31518480   0.941   0.673   8.489 -0.5831 -0.1295 -0.2191
  164SOPE  H15X18481   1.032   0.654   8.549 -0.4247 -0.2813 -0.5048
  164SOPE  H15Y18482   0.964   0.704   8.385  1.1470  0.3883  0.2852
  164SOPE  C31618483   0.860   0.541   8.477  0.5689 -0.2351 -0.3948
  164SOPE  H16X18484   0.763   0.565   8.525  1.9085 -0.3614  2.6094
  164SOPE  H16Y18485   0.912   0.459   8.531  1.4750  1.0085  0.7286
  164SOPE  C31718486   0.828   0.498   8.330  1.5146  0.6050 -0.4066
  164SOPE  H17X18487   0.929   0.485   8.285  2.7109  1.2277  1.8934
  164SOPE  H17Y18488   0.768   0.577   8.280 -0.7450 -0.8287 -0.0695
  164SOPE  C31818489   0.755   0.362   8.329  0.5102 -0.3949  0.4761
  164SOPE  H18X18490   0.824   0.279   8.354  1.2708  0.0456 -0.1075
  164SOPE  H18Y18491   0.704   0.346   8.231 -1.0385  0.0818  1.1825
  164SOPE  H18Z18492   0.672   0.368   8.402  1.8511  0.8694  1.9513
  165SOPE     N18493   0.645   2.735  11.050 -0.5213  0.1635  0.2743
  165SOPE   HN118494   0.609   2.711  11.144 -2.4983 -0.3046 -0.5556
  165SOPE   HN218495   0.738   2.777  11.072  0.2526 -2.1846  1.9027
  165SOPE   HN318496   0.580   2.798  11.000 -0.2611  2.1457  2.2743
  165SOPE   C1218497   0.649   2.593  10.995 -0.0444  0.0112 -0.9098
  165SOPE  H12A18498   0.708   2.524  11.059 -2.4504 -0.9179  0.4495
  165SOPE  H12B18499   0.702   2.598  10.898  0.7703 -2.5245 -0.6599
  165SOPE   C1118500   0.505   2.533  10.969 -0.8892  0.0414 -0.5792
  165SOPE  H11A18501   0.462   2.503  11.067 -1.4380  0.3240 -0.7306
  165SOPE  H11B18502   0.514   2.437  10.913 -0.6996 -1.3097  1.6533
  165SOPE     P18503   0.294   2.581  10.817 -0.1125  0.1369 -0.6441
  165SOPE   O1318504   0.276   2.679  10.712 -0.4961  0.8051  0.6577
  165SOPE   O1418505   0.177   2.548  10.901 -0.2859  0.2190  0.7629
  165SOPE   O1218506   0.414   2.625  10.909  0.1937  0.3735  0.2550
  165SOPE   O1118507   0.345   2.446  10.752 -0.5865  0.1885  0.3116
  165SOPE    C118508   0.461   2.443  10.665 -0.5752 -0.6687 -0.0681
  165SOPE    HA18509   0.527   2.356  10.683 -0.3881 -0.4924  0.1109
  165SOPE    HB18510   0.528   2.531  10.677 -1.4080  0.0952 -0.8328
  165SOPE    C218511   0.408   2.435  10.515 -0.1471  1.1944  0.1382
  165SOPE    HS18512   0.492   2.386  10.461  0.0892 -0.1514  1.6235
  165SOPE   O2118513   0.374   2.565  10.450  0.1533 -0.1798  0.0891
  165SOPE   C2118514   0.483   2.633  10.418 -0.0257  0.8568  0.1462
  165SOPE   O2218515   0.602   2.595  10.430  0.2223 -0.9932  0.1452
  165SOPE   C2218516   0.441   2.768  10.358 -0.5745  0.2647 -0.0439
  165SOPE   H2R18517   0.528   2.836  10.372  0.4514 -0.5231 -2.0828
  165SOPE   H2S18518   0.358   2.814  10.416  1.1022  1.0220  1.8911
  165SOPE    C318519   0.279   2.345  10.498  0.3418  0.5802  0.4526
  165SOPE    HX18520   0.193   2.401  10.541 -1.5528  1.3236 -3.8071
  165SOPE    HY18521   0.293   2.253  10.559 -1.0259 -0.5337 -0.8395
  165SOPE   O3118522   0.247   2.304  10.361  0.4626 -0.8063 -0.3400
  165SOPE   C3118523   0.181   2.394  10.288  0.0487 -0.1893 -0.6102
  165SOPE   O3218524   0.127   2.498  10.322 -0.1521 -0.1415  0.3081
  165SOPE   C3218525   0.175   2.347  10.143 -0.0495 -0.1436 -0.2230
  165SOPE   H2X18526   0.067   2.354  10.118 -0.2399 -2.0541 -0.1248
  165SOPE   H2Y18527   0.196   2.237  10.136 -0.7749 -0.5738  3.0413
  165SOPE   C2318528   0.392   2.746  10.212  0.8933 -0.5934 -0.4201
  165SOPE   H3R18529   0.300   2.685  10.228 -0.2485  1.4051  1.0265
  165SOPE   H3S18530   0.465   2.678  10.164  1.2951 -0.9721  0.6943
  165SOPE   C2418531   0.366   2.873  10.125 -0.0431 -0.0865  0.2174
  165SOPE   H4R18532   0.328   2.826  10.032  2.6670 -2.7177  0.2974
  165SOPE   H4S18533   0.274   2.923  10.162 -0.6410 -1.5376  0.7764
  165SOPE   C2518534   0.476   2.974  10.126 -0.4673  0.0144  1.5710
  165SOPE   H5R18535   0.494   3.034  10.218  1.0673  1.0268  0.6659
  165SOPE   H5S18536   0.568   2.912  10.121 -1.0151 -0.7409  0.1745
  165SOPE   C2618537   0.466   3.072  10.015  0.1665 -0.3222 -0.1576
  165SOPE   H6R18538   0.384   3.147  10.021  2.1140  1.8066  1.7116
  165SOPE   H6S18539   0.562   3.128  10.020 -0.7959  1.3912 -0.1846
  165SOPE   C2718540   0.470   3.017   9.873 -0.9196  0.0592  0.4785
  165SOPE   H7R18541   0.555   2.945   9.868  1.0635  2.1973  1.7278
  165SOPE   H7S18542   0.379   2.954   9.862  0.4165 -1.7149 -1.2357
  165SOPE   C2818543   0.487   3.125   9.771  0.1269  0.0224  0.6373
  165SOPE   H8R18544   0.396   3.190   9.771 -0.4733 -0.7619 -1.1314
  165SOPE   H8S18545   0.578   3.184   9.796  0.6524 -0.2770 -0.5053
  165SOPE   C2918546   0.509   3.065   9.633 -0.4026 -0.2598  0.2015
  165SOPE   H9118547   0.597   3.004   9.609  1.5046  2.9710 -1.8075
  165SOPE  C21018548   0.432   3.083   9.519 -0.2604  0.1047 -0.7875
  165SOPE  H10118549   0.454   3.036   9.423  0.8313 -1.6841  0.2899
  165SOPE  C21118550   0.306   3.160   9.513  0.3284 -0.3204  0.2506
  165SOPE  H11R18551   0.330   3.264   9.545  0.4255 -0.1328 -0.4255
  165SOPE  H11S18552   0.238   3.118   9.591 -0.5601  0.5186 -0.0541
  165SOPE  C21218553   0.235   3.165   9.369  0.3527 -0.6199  0.2749
  165SOPE  H12R18554   0.235   3.057   9.345  2.7573 -0.5182 -0.4299
  165SOPE  H12S18555   0.302   3.218   9.298  1.0210  2.5893  3.0126
  165SOPE  C21318556   0.097   3.241   9.363 -0.1331 -0.5111 -0.2172
  165SOPE  H13R18557   0.041   3.194   9.446  2.5285 -0.3978  1.7891
  165SOPE  H13S18558   0.046   3.225   9.266 -1.4927  1.7280  0.0434
  165SOPE  C21418559   0.094   3.391   9.393 -0.7481  0.1644  0.4907
  165SOPE  H14R18560   0.141   3.410   9.492  3.0168  2.9904 -1.5790
  165SOPE  H14S18561  -0.011   3.428   9.388 -0.3837  1.2777  0.7936
  165SOPE  C21518562   0.171   3.482   9.294 -0.2288  0.0969  0.2520
  165SOPE  H15R18563   0.276   3.445   9.286 -0.2704  0.0669 -0.2114
  165SOPE  H15S18564   0.169   3.589   9.324  1.7675  0.4949 -0.8074
  165SOPE  C21618565   0.122   3.472   9.145 -0.5781  0.1083  0.5799
  165SOPE  H16R18566   0.013   3.485   9.159 -0.6096  0.1485  0.3043
  165SOPE  H16S18567   0.141   3.376   9.093 -1.4592  0.6094 -0.7194
  165SOPE  C21718568   0.178   3.581   9.053 -0.3164 -0.1744  0.0243
  165SOPE  H17R18569   0.288   3.561   9.049 -0.8059 -3.2224 -0.3235
  165SOPE  H17S18570   0.158   3.673   9.112 -0.5589 -0.3385  0.1987
  165SOPE  C21818571   0.114   3.583   8.915 -0.2802 -0.1948  0.3715
  165SOPE  H18R18572   0.004   3.594   8.923 -0.2509  0.3502  0.0151
  165SOPE  H18S18573   0.127   3.487   8.861  0.9732  0.6553 -0.9100
  165SOPE  H18T18574   0.150   3.660   8.844  1.2070 -1.0067  0.2102
  165SOPE   C3318575   0.253   2.439  10.041 -0.0496  0.3950 -0.0279
  165SOPE   H3X18576   0.362   2.433  10.059  0.0041 -1.8810 -0.7260
  165SOPE   H3Y18577   0.212   2.540  10.063 -1.0622  0.0340 -0.2078
  165SOPE   C3418578   0.216   2.425   9.893 -0.0136  0.4629 -0.3777
  165SOPE   H4X18579   0.116   2.472   9.882 -0.5079 -0.4844 -0.0035
  165SOPE   H4Y18580   0.203   2.321   9.859 -2.1798  1.0091 -1.3426
  165SOPE   C3518581   0.307   2.503   9.804  0.3672  0.5674  0.4204
  165SOPE   H5X18582   0.414   2.500   9.833  0.3156  0.9148  0.6606
  165SOPE   H5Y18583   0.275   2.608   9.787 -1.8112  0.3910  2.7937
  165SOPE   C3618584   0.301   2.445   9.662  0.1290  0.4000  0.8332
  165SOPE   H6X18585   0.200   2.422   9.623  0.8142 -1.4530  0.0677
  165SOPE   H6Y18586   0.353   2.347   9.664 -1.4877 -0.4948  0.6135
  165SOPE   C3718587   0.374   2.546   9.564  0.3718 -0.2456 -0.1020
  165SOPE   H7X18588   0.480   2.568   9.587 -0.2494  0.5126  2.3682
  165SOPE   H7Y18589   0.320   2.643   9.564 -2.5321 -1.7298  0.8110
  165SOPE   C3818590   0.376   2.492   9.419 -0.1566  0.4816  0.0573
  165SOPE   H8X18591   0.280   2.443   9.392 -1.1618  1.5739  1.4774
  165SOPE   H8Y18592   0.450   2.409   9.412 -0.4315 -0.1864  3.3621
  165SOPE   C3918593   0.423   2.601   9.323 -0.0790 -0.2052  0.3181
  165SOPE   H9X18594   0.529   2.619   9.349  0.1652  0.1887 -0.8940
  165SOPE   H9Y18595   0.366   2.694   9.345  0.9245  0.9190 -1.5819
  165SOPE  C31018596   0.400   2.562   9.182 -0.0732  0.2781  0.5455
  165SOPE  H10X18597   0.293   2.577   9.156 -0.3348 -0.4693  1.1483
  165SOPE  H10Y18598   0.427   2.454   9.172 -1.2868 -0.0907  1.0419
  165SOPE  C31118599   0.468   2.642   9.073  0.3341  0.2335  0.1746
  165SOPE  H11X18600   0.449   2.590   8.977  3.4094  1.1705 -1.0715
  165SOPE  H11Y18601   0.577   2.631   9.090  0.1475 -2.6544 -0.0082
  165SOPE  C31218602   0.444   2.790   9.062  0.0593  0.0098 -0.1581
  165SOPE  H12X18603   0.449   2.841   9.161 -0.3904  0.1167 -0.1905
  165SOPE  H12Y18604   0.339   2.790   9.027 -0.4275 -0.2866  1.2114
  165SOPE  C31318605   0.541   2.864   8.962  0.3503 -0.2760  0.1315
  165SOPE  H13X18606   0.563   2.799   8.876  1.7107  1.2303 -0.7152
  165SOPE  H13Y18607   0.636   2.870   9.021  0.7733 -2.0320 -0.3124
  165SOPE  C31418608   0.487   2.994   8.910  0.4610 -0.3507  0.0876
  165SOPE  H14X18609   0.469   3.057   9.000  2.4511 -0.7958  0.8444
  165SOPE  H14Y18610   0.389   2.984   8.858 -0.3761 -0.6860  1.6529
  165SOPE  C31518611   0.583   3.083   8.822  0.4449  0.1663 -1.1345
  165SOPE  H15X18612   0.685   3.097   8.864  0.4997 -0.3837 -1.0754
  165SOPE  H15Y18613   0.543   3.186   8.811  1.4478  0.4426 -2.6054
  165SOPE  C31618614   0.594   3.024   8.679 -0.2841  0.0270 -0.5333
  165SOPE  H16X18615   0.488   3.010   8.648 -0.2374  0.2439 -0.7942
  165SOPE  H16Y18616   0.631   2.920   8.680 -2.0054 -0.6831 -2.4275
  165SOPE  C31718617   0.674   3.117   8.582  0.1636  0.1101 -0.1876
  165SOPE  H17X18618   0.776   3.073   8.591 -0.7060 -2.2504 -0.9001
  165SOPE  H17Y18619   0.673   3.214   8.636  0.0052 -1.1352  2.2160
  165SOPE  C31818620   0.608   3.115   8.448 -0.0187 -0.1774 -0.1745
  165SOPE  H18X18621   0.505   3.156   8.444 -0.2363 -0.8178 -2.9144
  165SOPE  H18Y18622   0.593   3.012   8.410 -0.9290 -0.9700  2.1249
  165SOPE  H18Z18623   0.663   3.178   8.375  1.0321 -0.9294 -0.0487
  166SOPE     N18624   3.452   2.336  10.809  0.1024  0.1406 -0.0928
  166SOPE   HN118625   3.475   2.378  10.901 -1.5983 -0.2703  0.5582
  166SOPE   HN218626   3.487   2.238  10.807 -1.0825 -0.2877 -0.7917
  166SOPE   HN318627   3.501   2.384  10.731 -0.8415  1.2100 -0.0470
  166SOPE   C1218628   3.309   2.337  10.764  0.7494  0.0295 -0.3314
  166SOPE  H12A18629   3.249   2.271  10.831  0.1826  0.0654 -0.8017
  166SOPE  H12B18630   3.304   2.299  10.660 -0.2372 -1.3278  0.1730
  166SOPE   C1118631   3.260   2.480  10.772  0.4238 -0.2913  0.1417
  166SOPE  H11A18632   3.284   2.518  10.874  0.4987 -3.2459  1.3385
  166SOPE  H11B18633   3.150   2.482  10.759  0.3417  2.8691  0.6788
  166SOPE     P18634   3.261   2.692  10.615 -0.0072  0.2712 -0.0162
  166SOPE   O1318635   3.374   2.779  10.598  0.1477  0.3977 -0.0063
  166SOPE   O1418636   3.155   2.737  10.709 -0.0637 -0.0819  0.1153
  166SOPE   O1218637   3.324   2.559  10.671 -0.3282 -0.2195  0.8631
  166SOPE   O1118638   3.202   2.641  10.479  0.4308  0.1540  0.5938
  166SOPE    C118639   3.290   2.632  10.366 -0.6150 -0.3196 -0.2133
  166SOPE    HA18640   3.360   2.548  10.379 -1.1046 -0.7161 -0.1019
  166SOPE    HB18641   3.331   2.732  10.339 -0.1793 -0.4915 -0.1899
  166SOPE    C218642   3.206   2.588  10.239 -0.6275 -0.0926 -0.1262
  166SOPE    HS18643   3.274   2.532  10.171  2.6651 -0.1277  2.9241
  166SOPE   O2118644   3.144   2.702  10.174  0.2915 -0.3175 -0.0122
  166SOPE   C2118645   3.229   2.774  10.098 -0.6428  0.1985  0.3901
  166SOPE   O2218646   3.347   2.740  10.073  0.1774 -0.8137 -0.4266
  166SOPE   C2218647   3.168   2.909  10.064 -0.4422  0.0900 -0.8877
  166SOPE   H2R18648   3.253   2.976  10.038 -0.5080 -0.0449 -1.4602
  166SOPE   H2S18649   3.116   2.947  10.155  1.3905  1.7652 -0.4528
  166SOPE    C318650   3.092   2.484  10.273  0.6636 -0.1490 -0.3811
  166SOPE    HX18651   3.026   2.539  10.344 -0.7786 -0.7707 -1.2044
  166SOPE    HY18652   3.119   2.392  10.330  0.8001  0.4981  0.6182
  166SOPE   O3118653   3.017   2.451  10.156 -0.3370 -0.4058 -0.3324
  166SOPE   C3118654   2.913   2.516  10.120  0.3671 -0.1048 -0.4702
  166SOPE   O3218655   2.864   2.612  10.171 -0.2483 -0.0493  0.4292
  166SOPE   C3218656   2.853   2.461   9.985  0.3099 -0.3992  0.3726
  166SOPE   H2X18657   2.775   2.532   9.951 -1.1040 -2.1603 -0.1611
  166SOPE   H2Y18658   2.802   2.367  10.016  0.7162 -0.4811  0.8124
  166SOPE   C2318659   3.068   2.908   9.950 -0.1194  0.0181  0.4060
  166SOPE   H3R18660   2.996   2.989   9.976 -0.3385  0.2251 -0.7774
  166SOPE   H3S18661   3.015   2.812   9.968  1.4608 -1.1371 -0.7990
  166SOPE   C2418662   3.123   2.932   9.811  0.5578 -0.3525  0.1256
  166SOPE   H4R18663   3.189   3.022   9.805 -2.4568  1.9328 -2.2626
  166SOPE   H4S18664   3.178   2.842   9.778  2.3849  0.4280  0.9040
  166SOPE   C2518665   3.015   2.947   9.700  0.8500 -0.5894 -0.0377
  166SOPE   H5R18666   2.956   2.853   9.702 -0.1459  0.0197  1.8171
  166SOPE   H5S18667   2.928   3.010   9.729 -0.4440 -0.4667 -3.5945
  166SOPE   C2618668   3.080   2.953   9.564 -0.1240  0.4427  0.2872
  166SOPE   H6R18669   3.128   3.053   9.555 -1.3939  0.8922 -2.5498
  166SOPE   H6S18670   3.160   2.877   9.552 -0.7709 -0.1677 -0.2816
  166SOPE   C2718671   2.979   2.934   9.448 -0.8471 -0.9108  0.3704
  166SOPE   H7R18672   2.911   2.848   9.466 -1.0194 -1.0349 -0.8072
  166SOPE   H7S18673   2.904   3.016   9.449 -0.9956 -1.0376 -0.1279
  166SOPE   C2818674   3.037   2.934   9.302  0.3155  0.5318  0.4549
  166SOPE   H8R18675   3.038   3.035   9.254 -0.5643  0.4253  0.1993
  166SOPE   H8S18676   3.139   2.892   9.312 -0.3275 -0.5830  3.0692
  166SOPE   C2918677   2.948   2.840   9.225  0.1767  0.4707  0.0010
  166SOPE   H9118678   2.969   2.738   9.260  0.6391  0.2117 -1.0022
  166SOPE  C21018679   2.861   2.869   9.122  0.2450 -0.3104 -0.0967
  166SOPE  H10118680   2.813   2.781   9.079  2.4324 -2.7804  2.1600
  166SOPE  C21118681   2.841   3.001   9.063  0.3357 -0.6124 -0.3273
  166SOPE  H11R18682   2.855   2.992   8.953 -0.8696  0.5975 -0.6188
  166SOPE  H11S18683   2.902   3.088   9.098 -0.7855 -0.1757  0.6153
  166SOPE  C21218684   2.694   3.033   9.073 -0.2403 -0.0284  0.2730
  166SOPE  H12R18685   2.622   2.978   9.008  0.3629  0.0057 -0.4336
  166SOPE  H12S18686   2.687   3.137   9.034 -1.3653  0.0671  0.7052
  166SOPE  C21318687   2.643   3.044   9.221 -0.0065 -0.1512  0.0651
  166SOPE  H13R18688   2.715   3.102   9.283  1.3847 -1.4574 -0.2799
  166SOPE  H13S18689   2.641   2.943   9.267  2.1227 -1.2208 -2.0082
  166SOPE  C21418690   2.513   3.120   9.235  0.6049  0.1206 -0.4837
  166SOPE  H14R18691   2.447   3.074   9.158 -0.2732 -0.7939  0.7704
  166SOPE  H14S18692   2.529   3.226   9.205  1.2590  0.0673 -0.3312
  166SOPE  C21518693   2.460   3.094   9.378  0.3852  0.1708 -0.0150
  166SOPE  H15R18694   2.455   2.983   9.384 -0.4187  0.1755 -0.4800
  166SOPE  H15S18695   2.356   3.133   9.385  0.7803  1.4220 -0.8560
  166SOPE  C21618696   2.554   3.155   9.481  0.2223 -0.4099 -0.0895
  166SOPE  H16R18697   2.535   3.262   9.500 -1.2992 -0.6987  0.1413
  166SOPE  H16S18698   2.661   3.125   9.479 -0.1304 -2.1898  2.5311
  166SOPE  C21718699   2.526   3.091   9.622  0.6317  0.2167  0.0782
  166SOPE  H17R18700   2.546   2.982   9.614 -2.5120 -0.4662  0.0395
  166SOPE  H17S18701   2.415   3.092   9.631  0.7112  1.4154  1.0774
  166SOPE  C21818702   2.586   3.157   9.746  0.5148 -0.1449 -0.3003
  166SOPE  H18R18703   2.538   3.132   9.843  3.2040 -0.6843  0.9859
  166SOPE  H18S18704   2.586   3.268   9.732  1.9461 -0.3167 -1.9614
  166SOPE  H18T18705   2.689   3.119   9.764  0.0721 -0.7557  1.0961
  166SOPE   C3318706   2.956   2.438   9.867 -0.1486  0.3550  0.4232
  166SOPE   H3X18707   2.931   2.356   9.796 -1.9269  0.5022  0.8223
  166SOPE   H3Y18708   3.050   2.411   9.919 -0.6250  0.4198  1.3418
  166SOPE   C3418709   2.992   2.557   9.785 -0.8787  0.1829  0.1546
  166SOPE   H4X18710   3.100   2.558   9.757 -1.5302  1.5107 -2.6513
  166SOPE   H4Y18711   2.970   2.648   9.843  0.6236  0.0387  1.0103
  166SOPE   C3518712   2.917   2.575   9.648  0.5882 -0.4467 -0.4401
  166SOPE   H5X18713   2.923   2.679   9.610 -2.6626  0.0379  0.1748
  166SOPE   H5Y18714   2.809   2.562   9.667  0.9121 -1.2822  0.9622
  166SOPE   C3618715   2.961   2.477   9.532  0.1029  0.4044  0.3471
  166SOPE   H6X18716   2.963   2.373   9.570  2.6110  0.5876  0.8892
  166SOPE   H6Y18717   3.069   2.494   9.510  0.3060  0.0678  1.0738
  166SOPE   C3718718   2.874   2.462   9.406 -0.0677  0.2997  0.2741
  166SOPE   H7X18719   2.851   2.565   9.372  0.1599  0.6699  1.1943
  166SOPE   H7Y18720   2.775   2.411   9.409  0.2664 -0.7873 -3.0651
  166SOPE   C3818721   2.941   2.396   9.289  0.6571 -0.4467 -0.7016
  166SOPE   H8X18722   2.967   2.293   9.321  0.2005 -0.2503  0.3359
  166SOPE   H8Y18723   3.031   2.453   9.260 -1.2843  1.4737 -3.3878
  166SOPE   C3918724   2.852   2.392   9.166  0.1350  0.3401  0.6112
  166SOPE   H9X18725   2.766   2.323   9.177 -1.5469  2.5143  1.9536
  166SOPE   H9Y18726   2.914   2.347   9.085  0.0055 -0.8242  1.1425
  166SOPE  C31018727   2.794   2.523   9.104  0.6271  0.2289  0.1911
  166SOPE  H10X18728   2.887   2.580   9.085  0.5837  0.2161 -0.0700
  166SOPE  H10Y18729   2.727   2.572   9.177 -1.8280 -1.3577 -0.8527
  166SOPE  C31118730   2.728   2.511   8.963 -0.3934  0.1482  0.0948
  166SOPE  H11X18731   2.645   2.438   8.976 -0.7109  0.0938 -1.9283
  166SOPE  H11Y18732   2.795   2.463   8.889 -2.4205 -0.9468 -1.1177
  166SOPE  C31218733   2.674   2.645   8.905  0.1260 -0.0100  0.1892
  166SOPE  H12X18734   2.757   2.719   8.898  0.5994 -0.5373  0.1735
  166SOPE  H12Y18735   2.602   2.674   8.985 -1.3681 -1.9699 -0.3646
  166SOPE  C31318736   2.584   2.625   8.787  0.0547 -0.3545  0.5218
  166SOPE  H13X18737   2.493   2.569   8.818 -0.4935 -0.7292 -1.5634
  166SOPE  H13Y18738   2.633   2.574   8.701  1.6340  0.9759  0.5940
  166SOPE  C31418739   2.534   2.765   8.745 -0.2477  0.0992  0.1058
  166SOPE  H14X18740   2.621   2.832   8.732  0.0359  0.1250  1.8527
  166SOPE  H14Y18741   2.480   2.807   8.833  3.1216  0.5217  2.1578
  166SOPE  C31518742   2.438   2.750   8.621 -0.9187 -0.0212  0.4874
  166SOPE  H15X18743   2.359   2.674   8.642 -0.9191  0.6119  3.0392
  166SOPE  H15Y18744   2.504   2.727   8.535  0.1306 -0.8153  1.4779
  166SOPE  C31618745   2.371   2.885   8.583  0.0101  0.1148  0.4751
  166SOPE  H16X18746   2.355   2.881   8.473 -2.8709 -1.5498  0.8467
  166SOPE  H16Y18747   2.434   2.973   8.608  1.2054 -0.3757 -0.6439
  166SOPE  C31718748   2.231   2.907   8.636 -0.9681  0.2819 -0.0478
  166SOPE  H17X18749   2.234   2.884   8.744 -2.3296 -2.6871 -0.5400
  166SOPE  H17Y18750   2.157   2.841   8.587  0.8693  0.5667 -3.5856
  166SOPE  C31818751   2.186   3.054   8.617 -0.6732 -0.0316 -1.2286
  166SOPE  H18X18752   2.095   3.069   8.678  0.0951 -0.4083  0.0451
  166SOPE  H18Y18753   2.151   3.077   8.514 -1.2357 -0.8497 -1.2300
  166SOPE  H18Z18754   2.272   3.115   8.652  0.5249 -2.4792  0.4178
  167SOPE     N18755   5.966   6.499   6.030 -0.1858  0.2376 -0.0354
  167SOPE   HN118756   5.902   6.419   6.014  0.1006 -0.5187  2.1963
  167SOPE   HN218757   5.990   6.548   5.941  0.3441  1.7669  0.9034
  167SOPE   HN318758   6.052   6.450   6.061 -0.8728 -0.6557  0.4932
  167SOPE   C1218759   5.908   6.609   6.123 -0.9876 -0.5223 -0.4866
  167SOPE  H12A18760   5.951   6.710   6.108 -0.4812 -0.8749 -1.4777
  167SOPE  H12B18761   5.931   6.568   6.225 -2.3960 -0.1366  0.0052
  167SOPE   C1118762   5.757   6.624   6.108 -0.1393 -0.2772  0.0909
  167SOPE  H11A18763   5.697   6.662   6.193 -0.2224  0.5787 -0.3322
  167SOPE  H11B18764   5.713   6.524   6.089 -2.1546  0.2613  1.5586
  167SOPE     P18765   5.663   6.841   5.977  0.1281 -0.2438  0.2263
  167SOPE   O1318766   5.516   6.849   5.984 -0.4687  0.2893  0.1920
  167SOPE   O1418767   5.725   6.910   5.862  0.3249 -0.1737 -0.5038
  167SOPE   O1218768   5.718   6.696   5.985  0.1680  0.4411  0.2741
  167SOPE   O1118769   5.740   6.893   6.098 -0.6728 -0.0060  0.1407
  167SOPE    C118770   5.695   7.007   6.167  0.0669  0.0040  0.1006
  167SOPE    HA18771   5.629   7.074   6.108 -1.1062 -0.6058  0.6773
  167SOPE    HB18772   5.775   7.077   6.195 -1.1739  1.9574 -1.0033
  167SOPE    C218773   5.622   6.966   6.304  0.3479 -0.3884  0.3766
  167SOPE    HS18774   5.606   7.059   6.364 -0.9580  0.3468 -1.0319
  167SOPE   O2118775   5.682   6.855   6.377 -0.2182  0.5393  0.1487
  167SOPE   C2118776   5.792   6.881   6.453  0.4018  0.3456  0.3556
  167SOPE   O2218777   5.843   6.988   6.459  0.2861  0.4784 -0.7900
  167SOPE   C2218778   5.828   6.743   6.509 -0.1597  0.6298  0.7384
  167SOPE   H2R18779   5.847   6.669   6.429  0.0572 -0.2636  1.6000
  167SOPE   H2S18780   5.732   6.700   6.545 -0.8921  1.5168 -0.0827
  167SOPE    C318781   5.471   6.930   6.270 -0.7685 -0.2312  0.1584
  167SOPE    HX18782   5.465   6.830   6.222  1.5764  0.1235 -1.0603
  167SOPE    HY18783   5.435   6.996   6.189 -1.3422 -1.2417 -0.4299
  167SOPE   O3118784   5.388   6.930   6.386 -0.5338  0.0872 -0.3646
  167SOPE   C3118785   5.262   6.973   6.375  0.0547 -0.0815 -0.5663
  167SOPE   O3218786   5.204   6.982   6.264 -0.3326  0.1837  0.4250
  167SOPE   C3218787   5.209   7.019   6.509 -0.4560  0.6082  0.7184
  167SOPE   H2X18788   5.145   7.109   6.500  0.5082  1.2374 -0.2973
  167SOPE   H2Y18789   5.301   7.036   6.570  1.0379 -3.5637 -0.0373
  167SOPE   C2318790   5.943   6.757   6.615  0.9864  0.0551  1.0026
  167SOPE   H3R18791   5.914   6.842   6.681  1.1485  0.1927  0.8961
  167SOPE   H3S18792   6.035   6.776   6.556  0.7220 -0.9740  0.2312
  167SOPE   C2418793   5.958   6.629   6.689  0.3958 -0.1334  0.1656
  167SOPE   H4R18794   5.856   6.596   6.716 -0.6653  1.8304 -1.1540
  167SOPE   H4S18795   5.999   6.549   6.624 -0.3992 -1.4756  1.2764
  167SOPE   C2518796   6.040   6.633   6.817 -0.3317 -0.4298  0.0772
  167SOPE   H5R18797   6.145   6.663   6.796 -0.3096 -1.7351 -1.9046
  167SOPE   H5S18798   5.994   6.714   6.877  0.8146  0.7180 -0.5446
  167SOPE   C2618799   6.035   6.501   6.895 -0.4028 -0.3728  0.4777
  167SOPE   H6R18800   6.061   6.422   6.822  0.5775 -1.3122  1.7833
  167SOPE   H6S18801   6.119   6.507   6.968 -0.3895 -0.0662  0.4380
  167SOPE   C2718802   5.909   6.485   6.976 -0.2018 -0.6690  0.1944
  167SOPE   H7R18803   5.828   6.472   6.901  0.4766  2.6407 -1.3090
  167SOPE   H7S18804   5.925   6.400   7.045  0.4166 -0.2223  0.6165
  167SOPE   C2818805   5.870   6.617   7.052  0.6649  0.1750 -0.0769
  167SOPE   H8R18806   5.967   6.648   7.097  1.7163 -3.8833  0.8417
  167SOPE   H8S18807   5.833   6.695   6.982 -1.1794  0.5614  1.2328
  167SOPE   C2918808   5.759   6.593   7.156 -0.0374 -0.6197 -0.0919
  167SOPE   H9118809   5.682   6.523   7.121  0.8505 -1.0969 -1.1789
  167SOPE  C21018810   5.740   6.663   7.271 -0.5888 -0.0654 -0.4137
  167SOPE  H10118811   5.648   6.640   7.329  0.7879 -1.7418  1.2307
  167SOPE  C21118812   5.830   6.775   7.323 -0.2217  0.0553  0.1498
  167SOPE  H11R18813   5.777   6.873   7.319  0.1307  0.2866  1.1065
  167SOPE  H11S18814   5.916   6.787   7.254  0.1315 -2.3635  0.0974
  167SOPE  C21218815   5.884   6.733   7.464  0.4026 -0.2025 -0.1212
  167SOPE  H12R18816   5.967   6.804   7.483  0.2039 -0.5086  2.0700
  167SOPE  H12S18817   5.915   6.627   7.468 -0.9540 -0.6537 -0.8760
  167SOPE  C21318818   5.772   6.771   7.562  0.0814  0.3855 -0.4897
  167SOPE  H13R18819   5.698   6.689   7.557  1.1445 -0.5531 -1.1661
  167SOPE  H13S18820   5.727   6.870   7.536  1.0548  0.7063 -0.9917
  167SOPE  C21418821   5.808   6.789   7.715 -0.2440  0.0820 -0.0840
  167SOPE  H14R18822   5.854   6.890   7.722 -1.4507  0.7955 -1.7479
  167SOPE  H14S18823   5.868   6.702   7.749 -2.5393 -3.2150 -3.6304
  167SOPE  C21518824   5.675   6.797   7.803  0.4202  0.3582 -0.2976
  167SOPE  H15R18825   5.584   6.766   7.746  0.6546 -2.8757  0.8693
  167SOPE  H15S18826   5.652   6.905   7.817  0.3325 -0.1122  5.0605
  167SOPE  C21618827   5.665   6.711   7.934  0.4264  0.0510 -1.3084
  167SOPE  H16R18828   5.756   6.722   7.997  0.9366  0.5329 -2.0999
  167SOPE  H16S18829   5.660   6.602   7.911 -0.6498  0.3297 -2.5452
  167SOPE  C21718830   5.540   6.761   8.014 -0.6678 -0.1602  0.0831
  167SOPE  H17R18831   5.448   6.753   7.952 -0.8360  2.8435 -0.1577
  167SOPE  H17S18832   5.560   6.866   8.041  0.2452 -0.1544 -0.5840
  167SOPE  C21818833   5.521   6.681   8.143  0.6191 -0.9691  0.3536
  167SOPE  H18R18834   5.458   6.589   8.138 -0.0413 -0.6883  2.5650
  167SOPE  H18S18835   5.466   6.746   8.214  1.4521 -1.4677  1.5037
  167SOPE  H18T18836   5.616   6.657   8.197  0.2997 -0.2257  1.2814
  167SOPE   C3318837   5.117   6.922   6.571  0.2285  0.3061 -0.6335
  167SOPE   H3X18838   5.189   6.849   6.613 -0.5805  0.3867  0.9687
  167SOPE   H3Y18839   5.054   6.881   6.489  1.4984  0.8095 -1.8957
  167SOPE   C3418840   5.024   6.979   6.676 -0.4240  0.2269  0.5283
  167SOPE   H4X18841   4.929   6.924   6.692 -1.2048  0.9096 -1.4068
  167SOPE   H4Y18842   5.003   7.075   6.624 -0.1931 -0.0289 -0.0484
  167SOPE   C3518843   5.091   7.019   6.809 -0.0478  0.1119  0.1052
  167SOPE   H5X18844   5.167   7.099   6.794 -0.4881  0.0230 -3.0875
  167SOPE   H5Y18845   5.144   6.935   6.859 -1.7126  0.0932  2.0010
  167SOPE   C3618846   4.982   7.079   6.899  0.1385  0.3401 -0.8038
  167SOPE   H6X18847   4.900   7.009   6.928  1.2522 -0.2436  1.0827
  167SOPE   H6Y18848   4.939   7.160   6.837  0.2869 -0.9980 -2.7558
  167SOPE   C3718849   5.043   7.132   7.032 -0.0388 -0.1961  0.7802
  167SOPE   H7X18850   4.960   7.188   7.080 -0.5447  1.0867 -1.4242
  167SOPE   H7Y18851   5.125   7.203   7.008  0.6411 -0.5641  1.9525
  167SOPE   C3818852   5.102   7.027   7.130  0.0049 -0.1127  0.0154
  167SOPE   H8X18853   5.197   6.979   7.098 -0.5188 -1.5575  0.5134
  167SOPE   H8Y18854   5.028   6.945   7.145  0.9801 -1.2077 -0.9040
  167SOPE   C3918855   5.141   7.083   7.268  0.9772 -0.5199  0.1254
  167SOPE   H9X18856   5.231   7.149   7.263  0.0767  0.6847 -0.5764
  167SOPE   H9Y18857   5.170   6.993   7.327  0.0995 -0.8005  0.1376
  167SOPE  C31018858   5.029   7.147   7.350  0.3875 -0.4653 -0.4551
  167SOPE  H10X18859   4.936   7.094   7.320 -0.9088  1.1714  0.5197
  167SOPE  H10Y18860   5.007   7.255   7.332 -2.4281 -0.7274  0.8577
  167SOPE  C31118861   5.054   7.131   7.501  0.1450 -0.3035 -0.8261
  167SOPE  H11X18862   5.155   7.169   7.524  0.1485 -1.2538  0.8287
  167SOPE  H11Y18863   5.045   7.024   7.529 -1.9847 -0.0802 -0.4461
  167SOPE  C31218864   4.954   7.201   7.592  0.1103 -0.0653  0.4712
  167SOPE  H12X18865   4.854   7.159   7.568 -0.5669  1.1273  1.1178
  167SOPE  H12Y18866   4.953   7.310   7.573 -0.2302  0.2218  1.9932
  167SOPE  C31318867   4.980   7.175   7.740 -0.2736 -0.0675 -0.0996
  167SOPE  H13X18868   5.087   7.196   7.762  0.1161 -1.0452 -0.9634
  167SOPE  H13Y18869   4.949   7.071   7.763 -0.6919 -0.3489 -1.8288
  167SOPE  C31418870   4.903   7.271   7.828 -0.2530 -0.3322  0.5427
  167SOPE  H14X18871   4.795   7.278   7.804  0.0831  1.0997 -0.6893
  167SOPE  H14Y18872   4.935   7.376   7.809  0.2299 -0.4522  0.6819
  167SOPE  C31518873   4.935   7.252   7.981 -0.0581 -0.2501 -0.0384
  167SOPE  H15X18874   5.036   7.208   7.987  0.2487  0.6332  1.5196
  167SOPE  H15Y18875   4.868   7.179   8.031 -1.5380  0.9308 -0.2184
  167SOPE  C31618876   4.932   7.375   8.072  0.1794 -0.2931  0.4420
  167SOPE  H16X18877   4.830   7.420   8.071  1.6049  3.2587 -0.1261
  167SOPE  H16Y18878   5.004   7.448   8.030  0.7937 -1.9313 -1.5242
  167SOPE  C31718879   4.984   7.339   8.208 -0.1671  0.4285 -0.3399
  167SOPE  H17X18880   4.972   7.424   8.278  1.1139  0.5485 -0.2563
  167SOPE  H17Y18881   5.093   7.322   8.200  0.1863  3.0120 -2.1153
  167SOPE  C31818882   4.911   7.223   8.282  0.7092  0.7487 -0.1670
  167SOPE  H18X18883   4.801   7.243   8.278  0.5897 -0.0218 -0.9764
  167SOPE  H18Y18884   4.946   7.209   8.387  2.4272  0.7175 -0.7166
  167SOPE  H18Z18885   4.936   7.127   8.232  0.2926  0.3242  0.4258
  168SOPE     N18886   5.938   3.489   5.995 -0.2146 -0.3686  0.4472
  168SOPE   HN118887   5.899   3.414   5.934 -2.4757 -0.4522  1.8938
  168SOPE   HN218888   5.986   3.454   6.080 -2.9194 -0.6954  1.9260
  168SOPE   HN318889   5.865   3.548   6.039  0.2579 -0.4111  1.3099
  168SOPE   C1218890   6.019   3.579   5.906  0.1726 -0.7481 -0.6014
  168SOPE  H12A18891   5.951   3.605   5.823 -0.1510 -0.8499 -0.3684
  168SOPE  H12B18892   6.105   3.527   5.859  2.0719 -0.3942  2.2043
  168SOPE   C1118893   6.071   3.697   5.980  0.8757  0.1793 -0.8643
  168SOPE  H11A18894   5.982   3.755   6.013 -0.3028 -0.2848 -3.0413
  168SOPE  H11B18895   6.137   3.752   5.909  1.6866 -2.2845 -2.1610
  168SOPE     P18896   6.284   3.644   6.111  0.4167  0.3051 -0.0926
  168SOPE   O1318897   6.352   3.764   6.073 -0.4801 -0.0244  0.2544
  168SOPE   O1418898   6.331   3.516   6.046  0.2866 -0.9344  0.3309
  168SOPE   O1218899   6.126   3.656   6.103  0.2859 -0.3975  0.1314
  168SOPE   O1118900   6.313   3.620   6.265 -0.0674  0.1514  0.4456
  168SOPE    C118901   6.234   3.535   6.344 -0.1818  0.1277 -0.0705
  168SOPE    HA18902   6.297   3.446   6.366 -1.0820 -0.5188 -0.0361
  168SOPE    HB18903   6.144   3.493   6.294 -0.2818 -0.5259  0.6269
  168SOPE    C218904   6.193   3.598   6.483 -0.3655  0.6789  0.1279
  168SOPE    HS18905   6.139   3.693   6.461  0.2148  0.7283 -1.1957
  168SOPE   O2118906   6.311   3.611   6.564  0.0216 -0.0488  0.2785
  168SOPE   C2118907   6.367   3.729   6.573 -0.1017 -0.7105 -0.1079
  168SOPE   O2218908   6.331   3.830   6.513  0.1638 -0.6829  0.0604
  168SOPE   C2218909   6.475   3.724   6.689 -0.0438  0.0727 -0.3351
  168SOPE   H2R18910   6.579   3.738   6.654  1.3495  2.6696  4.0743
  168SOPE   H2S18911   6.471   3.623   6.734 -0.8176  0.1368 -0.2364
  168SOPE    C318912   6.084   3.506   6.555  1.0861  0.2552 -0.3166
  168SOPE    HX18913   6.099   3.403   6.518 -1.2239 -1.1213  2.2011
  168SOPE    HY18914   5.986   3.547   6.523  1.2110  1.3791  0.6804
  168SOPE   O3118915   6.095   3.508   6.703  0.2345  0.5735  0.2861
  168SOPE   C3118916   6.177   3.411   6.753  0.5892 -0.6158 -0.1526
  168SOPE   O3218917   6.224   3.322   6.687  0.2855  0.4084  0.1155
  168SOPE   C3218918   6.191   3.443   6.905  0.2616 -0.0657 -0.0345
  168SOPE   H2X18919   6.085   3.451   6.940  0.9914 -0.9888  2.6665
  168SOPE   H2Y18920   6.234   3.546   6.909 -0.3926  0.1884  1.1509
  168SOPE   C2318921   6.454   3.849   6.785 -0.1246 -0.1554  0.0912
  168SOPE   H3R18922   6.463   3.942   6.724  1.8256  0.3255  1.0281
  168SOPE   H3S18923   6.540   3.867   6.852 -0.4182 -0.7607  0.6318
  168SOPE   C2418924   6.329   3.850   6.867  0.7948  0.0949  0.2852
  168SOPE   H4R18925   6.255   3.907   6.807  2.4340 -0.0707 -2.0373
  168SOPE   H4S18926   6.285   3.750   6.890  0.9490  0.3318  1.7302
  168SOPE   C2518927   6.334   3.915   7.002  0.4895 -0.5305  0.2190
  168SOPE   H5R18928   6.388   4.012   6.997  0.3036 -0.3663  1.1226
  168SOPE   H5S18929   6.231   3.920   7.044  0.8465 -2.9966  1.5935
  168SOPE   C2618930   6.399   3.818   7.107 -0.0381 -0.5556 -0.2284
  168SOPE   H6R18931   6.344   3.722   7.117  0.0031 -0.3458  3.4740
  168SOPE   H6S18932   6.506   3.803   7.082  0.2459 -0.6791  0.9842
  168SOPE   C2718933   6.410   3.882   7.247  0.1546  0.5214 -0.7524
  168SOPE   H7R18934   6.466   3.978   7.245 -0.6318  1.0298  0.3034
  168SOPE   H7S18935   6.311   3.913   7.287 -0.6838 -0.3071 -2.1053
  168SOPE   C2818936   6.468   3.781   7.356 -0.3470  0.2102  0.2938
  168SOPE   H8R18937   6.428   3.679   7.338 -2.2531  1.1107 -0.8147
  168SOPE   H8S18938   6.572   3.769   7.321 -0.6949  0.1920 -0.7605
  168SOPE   C2918939   6.463   3.832   7.498 -0.3781  0.1780 -0.0798
  168SOPE   H9118940   6.487   3.939   7.512 -0.1115  0.0668  0.3122
  168SOPE  C21018941   6.421   3.756   7.602  0.2945  0.2400  0.0442
  168SOPE  H10118942   6.421   3.801   7.702  1.4376 -1.4545  0.8578
  168SOPE  C21118943   6.360   3.616   7.589 -0.2129 -0.0576  0.3649
  168SOPE  H11R18944   6.439   3.537   7.587  0.5149  0.6722 -1.0171
  168SOPE  H11S18945   6.295   3.602   7.501  0.1065  2.0866 -0.2745
  168SOPE  C21218946   6.282   3.588   7.716 -0.0951  0.1361  0.2112
  168SOPE  H12R18947   6.241   3.485   7.715  1.0908 -0.3694  1.1400
  168SOPE  H12S18948   6.197   3.657   7.733 -0.3747  0.2755 -1.5381
  168SOPE  C21318949   6.365   3.587   7.846  0.5028  0.8737  0.4092
  168SOPE  H13R18950   6.395   3.691   7.869 -2.8679  1.5163  2.6458
  168SOPE  H13S18951   6.451   3.521   7.821 -0.8738 -0.4817 -0.9756
  168SOPE  C21418952   6.304   3.524   7.973  0.1822 -0.1296  0.1152
  168SOPE  H14R18953   6.252   3.430   7.946 -0.5149  0.0730  0.7342
  168SOPE  H14S18954   6.238   3.604   8.013 -0.0747  0.9840 -2.3172
  168SOPE  C21518955   6.405   3.486   8.071 -0.2148 -0.2555 -1.4974
  168SOPE  H15R18956   6.501   3.539   8.053 -0.4025  0.4969 -0.3964
  168SOPE  H15S18957   6.433   3.380   8.052 -1.2673 -0.4169 -2.2090
  168SOPE  C21618958   6.374   3.493   8.227 -0.3129  0.3700 -0.8432
  168SOPE  H16R18959   6.451   3.422   8.263 -1.7246 -0.8065 -0.0053
  168SOPE  H16S18960   6.275   3.452   8.257 -0.6631  1.7681 -0.0516
  168SOPE  C21718961   6.401   3.630   8.287 -0.2877 -0.8974 -1.0253
  168SOPE  H17R18962   6.354   3.641   8.386 -1.8478 -0.7952 -1.7477
  168SOPE  H17S18963   6.354   3.693   8.209 -1.1793  0.7271  0.7604
  168SOPE  C21818964   6.552   3.654   8.313 -0.6846 -0.5065 -0.2004
  168SOPE  H18R18965   6.583   3.593   8.400  1.1766  3.5682  2.2952
  168SOPE  H18S18966   6.574   3.761   8.337  2.2619 -0.7128 -1.4830
  168SOPE  H18T18967   6.621   3.631   8.229 -0.5082  1.8786 -0.7885
  168SOPE   C3318968   6.263   3.348   6.991  0.0483 -0.2497  0.5999
  168SOPE   H3X18969   6.370   3.348   6.962 -0.4106 -1.0343 -1.2847
  168SOPE   H3Y18970   6.210   3.252   6.972 -2.2805  0.8036  1.4282
  168SOPE   C3418971   6.250   3.388   7.141  0.0437 -0.9345  1.0924
  168SOPE   H4X18972   6.147   3.386   7.184  0.7038  0.0175  2.8002
  168SOPE   H4Y18973   6.286   3.492   7.150  1.6660 -1.4266  0.6589
  168SOPE   C3518974   6.328   3.282   7.220 -0.1013 -0.4109  0.5005
  168SOPE   H5X18975   6.429   3.295   7.175 -0.7276  0.9080 -0.6295
  168SOPE   H5Y18976   6.289   3.181   7.193  0.0219 -0.1953 -0.5201
  168SOPE   C3618977   6.340   3.315   7.366 -0.4290 -0.0002  0.0699
  168SOPE   H6X18978   6.241   3.327   7.414 -0.6878 -2.9192  0.4263
  168SOPE   H6Y18979   6.394   3.412   7.372 -2.0720  1.1280 -1.8811
  168SOPE   C3718980   6.426   3.213   7.438  0.0217  0.6516  0.2400
  168SOPE   H7X18981   6.529   3.209   7.397  0.2051  0.8446  0.6749
  168SOPE   H7Y18982   6.398   3.106   7.427 -0.7281  0.7100  1.3773
  168SOPE   C3818983   6.436   3.232   7.588 -0.5800 -0.5744  0.0314
  168SOPE   H8X18984   6.327   3.219   7.609 -0.4109 -2.8779 -0.1872
  168SOPE   H8Y18985   6.471   3.334   7.614 -2.6885  0.6386 -1.5895
  168SOPE   C3918986   6.531   3.134   7.654  0.8143  0.9203  0.7601
  168SOPE   H9X18987   6.626   3.142   7.598  0.5764 -1.9237 -0.2221
  168SOPE   H9Y18988   6.503   3.027   7.660  0.7495  0.9479  0.9532
  168SOPE  C31018989   6.570   3.181   7.793  0.2488  0.1340 -0.1458
  168SOPE  H10X18990   6.481   3.217   7.850 -0.9247 -1.0029 -1.2023
  168SOPE  H10Y18991   6.653   3.254   7.798  1.5392 -1.1990 -1.2310
  168SOPE  C31118992   6.625   3.072   7.894  0.1719  0.4422  0.0160
  168SOPE  H11X18993   6.539   3.002   7.892  0.5685 -0.0763 -2.8797
  168SOPE  H11Y18994   6.614   3.107   7.999  1.6815 -2.2737  1.1939
  168SOPE  C31218995   6.759   3.018   7.863 -0.1793 -0.7144 -0.1636
  168SOPE  H12X18996   6.828   3.100   7.892  0.5628 -1.1934 -0.5430
  168SOPE  H12Y18997   6.775   3.011   7.753  3.4487  2.3522 -0.0365
  168SOPE  C31318998   6.790   2.884   7.928 -0.8701  0.0250  0.1752
  168SOPE  H13X18999   6.892   2.846   7.905 -0.0670  0.6484  2.4442
  168SOPE  H13Y19000   6.704   2.819   7.901 -1.4525 -0.4622  2.9434
  168SOPE  C31419001   6.801   2.893   8.080 -0.0112 -0.7069 -0.1044
  168SOPE  H14X19002   6.710   2.927   8.133 -0.4071  0.5046 -1.4735
  168SOPE  H14Y19003   6.863   2.985   8.089 -3.1835  1.5430  0.5714
  168SOPE  C31519004   6.870   2.781   8.165 -0.0558 -0.0901 -1.1032
  168SOPE  H15X19005   6.973   2.758   8.130  1.7531  2.5751  1.9363
  168SOPE  H15Y19006   6.815   2.684   8.168 -0.0395 -0.0730  0.9517
  168SOPE  C31619007   6.891   2.819   8.313 -0.2465  0.2549 -0.1830
  168SOPE  H16X19008   6.951   2.911   8.330 -1.7667  1.1318  0.7315
  168SOPE  H16Y19009   6.944   2.733   8.359  1.8945  1.2674 -0.6687
  168SOPE  C31719010   6.757   2.835   8.383  0.2183 -0.6132 -0.8541
  168SOPE  H17X19011   6.694   2.747   8.355 -1.6106  0.4652 -0.3482
  168SOPE  H17Y19012   6.716   2.932   8.350  2.5126  1.0913  0.9446
  168SOPE  C31819013   6.773   2.845   8.538 -0.1729  0.3159  0.3530
  168SOPE  H18X19014   6.828   2.763   8.588  1.3802  0.9314 -0.2786
  168SOPE  H18Y19015   6.674   2.851   8.588  0.2789  0.1487  1.2906
  168SOPE  H18Z19016   6.833   2.933   8.572  2.8139 -1.7476  0.8832
  169SOPE     N19017   0.728   4.709   6.158 -0.2229 -0.1521 -0.1948
  169SOPE   HN119018   0.649   4.643   6.141 -1.9894  1.5855  0.8546
  169SOPE   HN219019   0.699   4.802   6.122  1.6188  1.4753  2.1559
  169SOPE   HN319020   0.812   4.678   6.105  0.4022  0.5106  0.3851
  169SOPE   C1219021   0.767   4.726   6.298 -0.2223 -0.2998  0.1118
  169SOPE  H12A19022   0.773   4.621   6.334  3.1111 -1.4669 -3.2072
  169SOPE  H12B19023   0.694   4.782   6.360  2.5317 -0.7909  4.1241
  169SOPE   C1119024   0.905   4.806   6.323  0.2445  0.0888  0.4862
  169SOPE  H11A19025   0.981   4.734   6.287 -0.8739 -0.4457 -0.9073
  169SOPE  H11B19026   0.925   4.820   6.432  0.3792 -1.7130  0.7329
  169SOPE     P19027   0.931   5.067   6.297 -0.1481 -0.1302 -0.5139
  169SOPE   O1319028   0.888   5.156   6.195  0.0523  0.4292  0.0653
  169SOPE   O1419029   1.076   5.083   6.335 -0.2731  0.1274 -0.5423
  169SOPE   O1219030   0.914   4.925   6.245  0.9542  0.5388  0.1549
  169SOPE   O1119031   0.848   5.078   6.426  0.5732  0.0002 -0.4574
  169SOPE    C119032   0.705   5.091   6.423 -0.0420  0.2661  0.1890
  169SOPE    HA19033   0.665   5.026   6.503  0.7089 -0.2084  0.1900
  169SOPE    HB19034   0.665   5.058   6.325  1.0819  1.5521 -0.7563
  169SOPE    C219035   0.658   5.240   6.442 -0.7025  0.2147 -0.1712
  169SOPE    HS19036   0.699   5.305   6.362  0.9254 -1.2953 -0.5911
  169SOPE   O2119037   0.700   5.301   6.568  0.7535  0.2983  0.0647
  169SOPE   C2119038   0.819   5.361   6.582 -0.5608  0.6150 -0.7220
  169SOPE   O2219039   0.902   5.377   6.495  0.2121  0.0899 -0.5649
  169SOPE   C2219040   0.842   5.396   6.727  0.6405 -0.1437  0.7073
  169SOPE   H2R19041   0.750   5.391   6.789  1.2768  1.6057  1.8796
  169SOPE   H2S19042   0.875   5.502   6.726 -0.2655  0.1417 -0.4514
  169SOPE    C319043   0.505   5.253   6.439  0.5780  0.6346  0.7823
  169SOPE    HX19044   0.479   5.224   6.335  3.1020 -0.9416  0.4887
  169SOPE    HY19045   0.484   5.360   6.461  0.9107  0.2908  3.0272
  169SOPE   O3119046   0.441   5.176   6.545  0.0061 -0.6988 -0.1971
  169SOPE   C3119047   0.395   5.054   6.510  0.8227  0.8003  0.4612
  169SOPE   O3219048   0.394   5.016   6.394  0.6134  0.4305 -0.1760
  169SOPE   C3219049   0.332   4.987   6.636 -0.5641 -0.3490  1.2023
  169SOPE   H2X19050   0.420   4.939   6.684  0.9567  2.5494  1.5744
  169SOPE   H2Y19051   0.257   4.921   6.588  0.3584  1.0123 -2.4208
  169SOPE   C2319052   0.952   5.326   6.805 -0.4499  0.5262  0.3162
  169SOPE   H3R19053   1.043   5.317   6.741  0.3977  0.2195  1.5265
  169SOPE   H3S19054   0.917   5.224   6.833  0.8021  0.1259  0.4926
  169SOPE   C2419055   1.012   5.389   6.929  0.0452 -0.0124  0.1842
  169SOPE   H4R19056   0.933   5.409   7.005  0.5101 -1.7159  1.1638
  169SOPE   H4S19057   1.087   5.321   6.973 -0.1443  0.5580  1.4096
  169SOPE   C2519058   1.093   5.515   6.904  0.4523  0.4006  0.5457
  169SOPE   H5R19059   1.170   5.491   6.828  0.0937 -0.3987  0.4203
  169SOPE   H5S19060   1.029   5.594   6.860 -0.9515 -1.8246 -1.6893
  169SOPE   C2619061   1.161   5.572   7.031  0.9067 -0.0509  0.1142
  169SOPE   H6R19062   1.208   5.479   7.069  0.8375  0.4092  1.3457
  169SOPE   H6S19063   1.240   5.649   7.012  1.3057 -1.0053 -2.4845
  169SOPE   C2719064   1.068   5.630   7.138 -0.1942 -0.3366  0.3223
  169SOPE   H7R19065   1.036   5.732   7.107 -0.5439 -0.5311  0.0317
  169SOPE   H7S19066   0.975   5.570   7.142  0.1508 -0.9291 -0.2417
  169SOPE   C2819067   1.112   5.652   7.282 -0.0911  0.0724  0.4050
  169SOPE   H8R19068   1.219   5.681   7.277 -0.1168  0.1670  0.4065
  169SOPE   H8S19069   1.054   5.733   7.331  0.2304 -0.0116  0.9389
  169SOPE   C2919070   1.103   5.523   7.371  0.2839  0.0817 -0.1452
  169SOPE   H9119071   1.142   5.436   7.315  1.9572 -0.8830  2.3491
  169SOPE  C21019072   1.063   5.503   7.500  0.5902 -0.2342  1.1238
  169SOPE  H10119073   1.067   5.401   7.542 -2.3858 -1.6824 -1.7096
  169SOPE  C21119074   1.017   5.605   7.599 -0.4356 -0.7078  0.0928
  169SOPE  H11R19075   0.909   5.589   7.619 -0.8195 -1.1902 -2.0563
  169SOPE  H11S19076   1.032   5.705   7.551 -0.4333 -1.0378 -0.6115
  169SOPE  C21219077   1.109   5.606   7.722 -0.1848  0.7920 -0.0580
  169SOPE  H12R19078   1.216   5.606   7.696 -0.2086 -1.8592 -0.4064
  169SOPE  H12S19079   1.093   5.514   7.783  0.7579  0.3514 -0.4570
  169SOPE  C21319080   1.083   5.724   7.820  0.3798  0.4362  0.0693
  169SOPE  H13R19081   1.091   5.826   7.777 -0.4364  0.2651 -0.5154
  169SOPE  H13S19082   1.155   5.726   7.904 -0.2105 -0.5555  0.6192
  169SOPE  C21419083   0.941   5.714   7.892 -0.8214  0.4876  0.0144
  169SOPE  H14R19084   0.946   5.609   7.927  0.1881  0.5084 -0.0428
  169SOPE  H14S19085   0.864   5.734   7.815 -1.0130 -0.7181 -0.1290
  169SOPE  C21519086   0.921   5.817   8.000 -0.2975 -0.2266 -0.3297
  169SOPE  H15R19087   0.916   5.919   7.955 -0.4466 -0.5829 -1.1437
  169SOPE  H15S19088   1.003   5.822   8.075  1.8526 -0.7296 -2.5156
  169SOPE  C21619089   0.789   5.791   8.070  0.4415  0.2426 -0.9167
  169SOPE  H16R19090   0.796   5.694   8.123 -0.0122 -0.1327 -1.5350
  169SOPE  H16S19091   0.706   5.777   7.997 -1.7276 -2.9618  1.8839
  169SOPE  C21719092   0.745   5.890   8.176 -0.4577 -0.7821  0.9054
  169SOPE  H17R19093   0.667   5.844   8.240 -0.6671 -1.9007 -0.1327
  169SOPE  H17S19094   0.725   5.986   8.124  0.1088 -0.1422  1.8141
  169SOPE  C21819095   0.861   5.921   8.273  0.0858 -0.1294  0.4523
  169SOPE  H18R19096   0.930   5.984   8.214  1.1153 -2.8509 -1.4391
  169SOPE  H18S19097   0.914   5.827   8.300  1.3059  0.1381 -0.8707
  169SOPE  H18T19098   0.822   5.961   8.369 -0.1669 -1.7831  1.0724
  169SOPE   C3319099   0.275   5.070   6.749 -0.1108 -1.1340  0.2924
  169SOPE   H3X19100   0.201   5.141   6.708  1.4368 -0.2468 -1.0772
  169SOPE   H3Y19101   0.354   5.137   6.789 -1.0693 -0.4675  1.1072
  169SOPE   C3419102   0.211   4.990   6.869 -0.1477  0.6704 -0.3228
  169SOPE   H4X19103   0.156   4.900   6.836  0.8518  0.1097 -0.4957
  169SOPE   H4Y19104   0.125   5.049   6.908 -0.3322  0.3470 -0.2341
  169SOPE   C3519105   0.300   4.961   6.992  1.0025  0.3486  0.0176
  169SOPE   H5X19106   0.341   5.053   7.040  1.8216  0.0442 -0.0783
  169SOPE   H5Y19107   0.399   4.928   6.953  1.3799  1.3166  0.1211
  169SOPE   C3619108   0.232   4.854   7.078 -0.8529 -0.0334  0.0869
  169SOPE   H6X19109   0.249   4.756   7.029 -2.2285 -0.3099  0.1238
  169SOPE   H6Y19110   0.124   4.878   7.083 -0.9208  0.0338 -1.3825
  169SOPE   C3719111   0.300   4.835   7.211  0.0394 -0.5493 -0.2724
  169SOPE   H7X19112   0.400   4.789   7.204  0.5830  0.6654 -0.8247
  169SOPE   H7Y19113   0.239   4.770   7.278  0.2063 -1.0871 -0.6429
  169SOPE   C3819114   0.311   4.975   7.285 -0.3799 -0.3214  0.5437
  169SOPE   H8X19115   0.376   5.045   7.229 -1.2999 -1.2015 -1.7596
  169SOPE   H8Y19116   0.204   5.006   7.291 -0.7027 -1.1776 -0.3665
  169SOPE   C3919117   0.357   4.942   7.431  0.7187  0.3068 -0.2483
  169SOPE   H9X19118   0.462   4.907   7.424  0.3239 -0.8265 -0.8852
  169SOPE   H9Y19119   0.309   4.845   7.458  0.4890  0.3257 -0.5788
  169SOPE  C31019120   0.332   5.050   7.541  0.1432  0.0334 -0.2642
  169SOPE  H10X19121   0.230   5.090   7.520  0.1235  0.9285  1.3712
  169SOPE  H10Y19122   0.393   5.142   7.533  0.6090  0.0035  2.2296
  169SOPE  C31119123   0.346   5.003   7.685 -0.2107  0.4296  0.5389
  169SOPE  H11X19124   0.438   4.945   7.710 -1.1722 -0.9766  0.9294
  169SOPE  H11Y19125   0.269   4.924   7.695  1.2814 -0.8571  2.6328
  169SOPE  C31219126   0.338   5.117   7.787  0.7714 -0.4706 -0.7466
  169SOPE  H12X19127   0.232   5.146   7.770  0.9424  0.3042 -0.5123
  169SOPE  H12Y19128   0.398   5.207   7.761 -1.9334  1.3180 -1.2660
  169SOPE  C31319129   0.363   5.055   7.930  0.4518 -0.1168  0.1444
  169SOPE  H13X19130   0.469   5.049   7.962  0.8028  0.8031 -0.8091
  169SOPE  H13Y19131   0.326   4.950   7.924 -0.0645 -0.4576  5.0691
  169SOPE  C31419132   0.265   5.118   8.023  0.3746  0.3815 -1.1874
  169SOPE  H14X19133   0.165   5.124   7.974  0.0283 -3.6798 -1.3302
  169SOPE  H14Y19134   0.301   5.216   8.059 -0.5508  0.6462 -0.9607
  169SOPE  C31519135   0.250   5.019   8.140 -0.5025 -1.0195 -0.3967
  169SOPE  H15X19136   0.347   4.966   8.147 -0.4825 -0.8577  0.8289
  169SOPE  H15Y19137   0.161   4.953   8.129 -1.9176  0.3178  2.0156
  169SOPE  C31619138   0.228   5.098   8.278 -0.1218  0.0323  0.2041
  169SOPE  H16X19139   0.166   5.185   8.246  0.0565  0.0529 -0.0836
  169SOPE  H16Y19140   0.328   5.122   8.320  0.4931 -1.2291 -0.4892
  169SOPE  C31719141   0.149   5.006   8.375 -0.2747  0.2598 -0.6426
  169SOPE  H17X19142   0.057   4.967   8.327 -0.7760  1.9414 -1.1478
  169SOPE  H17Y19143   0.112   5.081   8.449  0.6920 -1.1523  1.3468
  169SOPE  C31819144   0.237   4.899   8.432  0.0870 -0.5834 -1.0603
  169SOPE  H18X19145   0.306   4.846   8.362 -0.2440 -1.3569 -0.8104
  169SOPE  H18Y19146   0.178   4.821   8.485  0.1519 -0.2870 -0.5494
  169SOPE  H18Z19147   0.309   4.935   8.508 -0.3621 -1.3025 -0.2717
  170SOPE     N19148   1.955   4.154   6.359  0.7594  0.2684 -0.4741
  170SOPE   HN119149   1.998   4.070   6.402 -0.0054 -1.6564 -3.2127
  170SOPE   HN219150   1.939   4.138   6.258 -1.0318  2.0465 -0.5576
  170SOPE   HN319151   2.008   4.243   6.370 -1.1976  1.6860 -1.7238
  170SOPE   C1219152   1.821   4.185   6.434  0.2755 -0.1502  0.2327
  170SOPE  H12A19153   1.779   4.281   6.396 -3.4590 -1.4378  0.7047
  170SOPE  H12B19154   1.837   4.212   6.541 -1.2251  0.1333  0.4124
  170SOPE   C1119155   1.738   4.062   6.442  0.5112  0.0125  0.2698
  170SOPE  H11A19156   1.655   4.088   6.510  0.7964  2.2722 -0.1555
  170SOPE  H11B19157   1.804   3.986   6.489  2.7687  1.2740 -0.6761
  170SOPE     P19158   1.602   3.873   6.312 -0.1578 -0.2018  0.3398
  170SOPE   O1319159   1.702   3.768   6.346  0.2756  0.1727 -0.2106
  170SOPE   O1419160   1.538   3.861   6.179  0.5890 -0.0364 -0.3662
  170SOPE   O1219161   1.686   4.012   6.319 -0.6079  0.2751 -0.2817
  170SOPE   O1119162   1.497   3.887   6.430 -0.3513  0.0204 -0.0455
  170SOPE    C119163   1.445   3.763   6.487  0.7757  0.4049  0.5959
  170SOPE    HA19164   1.448   3.676   6.418  2.6829  0.6702  0.2952
  170SOPE    HB19165   1.334   3.769   6.486  0.6502 -0.9793 -1.5210
  170SOPE    C219166   1.487   3.736   6.635  0.8491 -0.5022 -0.1862
  170SOPE    HS19167   1.402   3.687   6.686 -0.5623 -0.9999 -2.8438
  170SOPE   O2119168   1.514   3.860   6.703  0.1788  0.3499 -0.0595
  170SOPE   C2119169   1.409   3.934   6.723 -0.4078  1.0994  0.1458
  170SOPE   O2219170   1.291   3.901   6.707  0.0104  0.0092  0.2206
  170SOPE   C2219171   1.445   4.072   6.782  0.5043 -0.3319  0.1610
  170SOPE   H2R19172   1.359   4.142   6.776 -0.2903 -1.3177 -0.1199
  170SOPE   H2S19173   1.536   4.099   6.723  0.8622  0.3588  1.0104
  170SOPE    C319174   1.618   3.649   6.648  0.4992 -0.1200  0.6161
  170SOPE    HX19175   1.700   3.717   6.616 -0.3577  0.8725  0.4731
  170SOPE    HY19176   1.617   3.563   6.578  0.3383  0.2637  0.1432
  170SOPE   O3119177   1.632   3.611   6.781 -0.3887 -0.2134  0.0507
  170SOPE   C3119178   1.747   3.541   6.801 -0.1441  0.1081  0.0394
  170SOPE   O3219179   1.831   3.511   6.716 -0.3460 -0.3596 -0.1932
  170SOPE   C3219180   1.770   3.505   6.951  0.3100 -0.2633 -0.7187
  170SOPE   H2X19181   1.699   3.421   6.967 -2.0084  1.6675 -0.3629
  170SOPE   H2Y19182   1.731   3.586   7.016  1.9437 -0.4783  0.5863
  170SOPE   C2319183   1.466   4.046   6.927 -0.0463 -0.3845  0.1453
  170SOPE   H3R19184   1.548   4.109   6.969  0.3019 -1.3530  0.9553
  170SOPE   H3S19185   1.508   3.944   6.935  1.8886  0.1297 -2.2862
  170SOPE   C2419186   1.352   4.040   7.032  0.3747 -0.5216  0.2724
  170SOPE   H4R19187   1.288   4.131   7.028 -0.7992 -1.3396 -0.5409
  170SOPE   H4S19188   1.276   3.962   7.010 -0.2451  0.2578 -0.4489
  170SOPE   C2519189   1.418   4.008   7.170  0.2466 -0.0713  0.1086
  170SOPE   H5R19190   1.515   4.058   7.188  1.5735 -1.8293 -1.7745
  170SOPE   H5S19191   1.341   4.036   7.246 -1.1883 -0.5416 -1.1212
  170SOPE   C2619192   1.461   3.861   7.199 -0.1390  0.4155  0.2697
  170SOPE   H6R19193   1.371   3.798   7.214 -0.5143  0.9832  0.4379
  170SOPE   H6S19194   1.506   3.806   7.114  1.1725  0.2646  1.0234
  170SOPE   C2719195   1.564   3.862   7.318  0.1451  0.5789 -0.0224
  170SOPE   H7R19196   1.665   3.899   7.290  0.6801  0.0034  1.0919
  170SOPE   H7S19197   1.527   3.937   7.391 -1.8989 -1.0873  0.7688
  170SOPE   C2819198   1.571   3.745   7.411  0.2947 -0.2213 -0.3515
  170SOPE   H8R19199   1.474   3.739   7.464  0.0215  0.7824 -0.7127
  170SOPE   H8S19200   1.594   3.652   7.355  0.7252  1.0892 -2.4621
  170SOPE   C2919201   1.674   3.764   7.515  0.0256  0.0041  0.4129
  170SOPE   H9119202   1.763   3.713   7.476 -1.0003 -1.5850  0.0748
  170SOPE  C21019203   1.675   3.815   7.638 -0.1862  0.3904 -1.1008
  170SOPE  H10119204   1.761   3.804   7.705 -1.4175  0.0297  0.4714
  170SOPE  C21119205   1.554   3.877   7.705  0.2748 -0.5143  0.0274
  170SOPE  H11R19206   1.490   3.794   7.740 -0.6007  0.2686  0.3120
  170SOPE  H11S19207   1.492   3.929   7.629  1.0835 -1.2643 -1.1882
  170SOPE  C21219208   1.589   3.958   7.835 -0.0922  0.1489  0.5620
  170SOPE  H12R19209   1.514   4.038   7.856  0.7768  1.7463 -1.9585
  170SOPE  H12S19210   1.688   4.007   7.819 -0.8025  2.2092  1.9567
  170SOPE  C21319211   1.596   3.870   7.962 -0.7069  0.4452 -0.1746
  170SOPE  H13R19212   1.676   3.795   7.942 -1.9249 -0.4212 -2.0812
  170SOPE  H13S19213   1.497   3.821   7.967 -0.5058  0.0262 -0.2400
  170SOPE  C21419214   1.635   3.953   8.084 -1.2436  0.1009  0.9976
  170SOPE  H14R19215   1.603   4.060   8.081 -0.9748  0.1879  1.1307
  170SOPE  H14S19216   1.746   3.948   8.085 -1.2720 -2.3555 -0.8541
  170SOPE  C21519217   1.572   3.891   8.208  0.4086  0.3651  0.1141
  170SOPE  H15R19218   1.588   3.781   8.212 -1.2440  0.0920 -0.2493
  170SOPE  H15S19219   1.462   3.896   8.194  0.0894 -2.7152  0.7237
  170SOPE  C21619220   1.617   3.945   8.345  0.0967 -0.0581  0.2784
  170SOPE  H16R19221   1.595   4.052   8.365  4.5102  0.8805  1.1821
  170SOPE  H16S19222   1.728   3.940   8.351  0.3967  0.9933 -2.6219
  170SOPE  C21719223   1.543   3.867   8.460 -0.1350 -0.5826 -0.0845
  170SOPE  H17R19224   1.586   3.764   8.460  1.4702  0.0426  0.9734
  170SOPE  H17S19225   1.434   3.873   8.443 -0.0689 -1.8384 -1.1077
  170SOPE  C21819226   1.574   3.927   8.604 -0.5663 -0.5263  0.1770
  170SOPE  H18R19227   1.677   3.967   8.591  0.0183 -2.7053 -3.1955
  170SOPE  H18S19228   1.578   3.847   8.681  1.9908  0.5850  1.3095
  170SOPE  H18T19229   1.494   4.000   8.630 -0.7546 -1.0178  0.9962
  170SOPE   C3319230   1.910   3.476   6.998  0.1117  0.2859  0.2253
  170SOPE   H3X19231   1.969   3.570   6.988 -0.5487  0.6937  0.1162
  170SOPE   H3Y19232   1.956   3.393   6.941  1.1050  1.5202 -0.8314
  170SOPE   C3419233   1.912   3.433   7.145  0.2576  0.1465 -0.2097
  170SOPE   H4X19234   1.856   3.513   7.197 -0.2402  2.6230 -4.1768
  170SOPE   H4Y19235   2.010   3.430   7.198 -0.2590  0.9287  0.8296
  170SOPE   C3519236   1.857   3.287   7.171 -0.7989  0.3261  0.5266
  170SOPE   H5X19237   1.916   3.214   7.112 -0.0111  2.4652 -1.4856
  170SOPE   H5Y19238   1.757   3.275   7.123 -0.4421 -2.0405  0.2143
  170SOPE   C3619239   1.852   3.250   7.315 -0.4218 -0.2156 -0.6368
  170SOPE   H6X19240   1.948   3.278   7.365  0.2564  0.3496 -2.2000
  170SOPE   H6Y19241   1.840   3.140   7.325 -1.7991 -0.0014  0.4260
  170SOPE   C3719242   1.732   3.312   7.389 -0.1546 -0.1146 -0.1868
  170SOPE   H7X19243   1.641   3.312   7.325 -0.8619 -0.6589  0.7848
  170SOPE   H7Y19244   1.754   3.420   7.406 -3.5240  0.1868  4.2950
  170SOPE   C3819245   1.695   3.231   7.512 -0.5565  1.4666  0.0422
  170SOPE   H8X19246   1.650   3.135   7.481 -0.8977  2.1310 -1.6649
  170SOPE   H8Y19247   1.618   3.289   7.567 -1.5795  0.0333  0.1543
  170SOPE   C3919248   1.812   3.216   7.612 -0.1416 -0.0721 -0.4473
  170SOPE   H9X19249   1.855   3.315   7.637 -1.9411  0.5862  0.2316
  170SOPE   H9Y19250   1.885   3.145   7.568  1.5078  0.9099  0.6047
  170SOPE  C31019251   1.758   3.162   7.743  0.7515  0.3627 -0.3204
  170SOPE  H10X19252   1.705   3.067   7.719  2.0371 -1.2739  2.7520
  170SOPE  H10Y19253   1.676   3.225   7.782 -0.5186 -2.4868  2.0124
  170SOPE  C31119254   1.865   3.137   7.847 -0.0453  1.0165 -0.2657
  170SOPE  H11X19255   1.928   3.229   7.845 -0.6254  1.4057 -0.8497
  170SOPE  H11Y19256   1.922   3.047   7.813  2.0191  1.9709  0.5120
  170SOPE  C31219257   1.810   3.122   7.997  0.6457  0.0265 -0.2315
  170SOPE  H12X19258   1.728   3.048   8.013  0.8433  0.3454  3.0083
  170SOPE  H12Y19259   1.781   3.225   8.025  2.0055  0.4832 -0.4734
  170SOPE  C31319260   1.924   3.087   8.088 -0.0299  0.8789 -0.3034
  170SOPE  H13X19261   1.998   3.167   8.072  0.6240  0.2669 -0.3927
  170SOPE  H13Y19262   1.974   2.996   8.048 -1.1059  0.8005 -1.5577
  170SOPE  C31419263   1.900   3.063   8.239 -0.4154 -0.2262 -0.0140
  170SOPE  H14X19264   2.000   3.029   8.275  0.4400  0.9316 -1.1913
  170SOPE  H14Y19265   1.820   2.991   8.263 -1.0729  0.4943  0.0136
  170SOPE  C31519266   1.855   3.190   8.315  0.0834 -0.0228  0.1746
  170SOPE  H15X19267   1.757   3.220   8.272  1.6936  0.0407 -3.9416
  170SOPE  H15Y19268   1.925   3.271   8.284  1.7997 -1.5571 -0.1157
  170SOPE  C31619269   1.867   3.175   8.473 -0.1527 -0.6620 -0.2983
  170SOPE  H16X19270   1.966   3.133   8.501 -0.0749  1.0555  2.3134
  170SOPE  H16Y19271   1.793   3.096   8.498 -0.2920 -0.5954 -0.4915
  170SOPE  C31719272   1.846   3.315   8.537  1.0298  0.9115 -0.1956
  170SOPE  H17X19273   1.805   3.291   8.638 -0.3823  2.8857 -0.2428
  170SOPE  H17Y19274   1.762   3.371   8.490 -1.5007  0.2650  3.1544
  170SOPE  C31819275   1.970   3.405   8.556 -0.2989 -0.1519 -0.0914
  170SOPE  H18X19276   2.047   3.361   8.624  0.5472  1.0974 -0.2050
  170SOPE  H18Y19277   1.952   3.504   8.602  0.1716 -0.7947  1.5570
  170SOPE  H18Z19278   2.013   3.425   8.455 -0.5961 -0.0365 -0.1949
  171SOPE     N19279   2.153   0.089   5.949  0.2477 -0.3337 -0.4080
  171SOPE   HN119280   2.058   0.063   5.914 -0.2827  2.8063 -1.6972
  171SOPE   HN219281   2.166   0.192   5.945  1.8371 -0.3639  1.9762
  171SOPE   HN319282   2.226   0.044   5.891  1.3726  0.9231  0.0016
  171SOPE   C1219283   2.167   0.041   6.084 -0.2370  0.2297 -0.7008
  171SOPE  H12A19284   2.259   0.085   6.128  0.3448 -1.1266 -0.5065
  171SOPE  H12B19285   2.197  -0.066   6.080  0.2215  0.3222  0.0127
  171SOPE   C1119286   2.043   0.074   6.168  0.2791  0.0911  0.2540
  171SOPE  H11A19287   2.042   0.010   6.259 -3.0961 -1.5049 -0.7504
  171SOPE  H11B19288   1.959   0.032   6.110  1.0784 -2.4303  0.7857
  171SOPE     P19289   1.903   0.266   6.263 -0.3883 -0.1289 -0.7570
  171SOPE   O1319290   1.801   0.268   6.162 -0.2740  0.1522  0.0813
  171SOPE   O1419291   1.940   0.389   6.335  0.5750  0.3574  0.5244
  171SOPE   O1219292   2.038   0.211   6.202 -0.2175  0.1255 -0.1273
  171SOPE   O1119293   1.864   0.151   6.362  0.5537 -0.5058 -0.9277
  171SOPE    C119294   1.932   0.135   6.484 -0.2540  0.3006  0.6530
  171SOPE    HA19295   2.040   0.145   6.461  0.1125 -0.8344  1.7408
  171SOPE    HB19296   1.917   0.032   6.525  1.4767  0.1522  0.9921
  171SOPE    C219297   1.902   0.244   6.596  0.1573  0.0493 -0.6576
  171SOPE    HS19298   1.947   0.342   6.568  0.0506  0.1633 -0.4310
  171SOPE   O2119299   1.952   0.195   6.721 -0.5811  0.0314 -0.1765
  171SOPE   C2119300   2.085   0.168   6.726 -0.2045  0.2081  0.0032
  171SOPE   O2219301   2.170   0.200   6.646 -0.1278  0.0597 -0.1550
  171SOPE   C2219302   2.109   0.085   6.858 -0.2984  0.1427 -0.1800
  171SOPE   H2R19303   2.019   0.025   6.881 -0.1466  0.2349  0.7027
  171SOPE   H2S19304   2.113   0.155   6.945  2.2383 -1.2867  0.9900
  171SOPE    C319305   1.751   0.269   6.613 -0.2899 -0.3076  0.6514
  171SOPE    HX19306   1.690   0.177   6.610 -0.4212 -0.2477  1.3692
  171SOPE    HY19307   1.710   0.330   6.530 -1.3639 -0.9319  0.7016
  171SOPE   O3119308   1.709   0.333   6.738 -0.4198  0.2789  0.7210
  171SOPE   C3119309   1.784   0.425   6.793 -0.2911  0.0739 -0.3967
  171SOPE   O3219310   1.863   0.501   6.736  0.5769  0.0066 -0.5096
  171SOPE   C3219311   1.755   0.431   6.948 -0.3400 -0.5428  0.5754
  171SOPE   H2X19312   1.651   0.391   6.955 -0.3490 -1.0060 -1.4090
  171SOPE   H2Y19313   1.756   0.537   6.981 -0.2512 -0.1876 -0.5041
  171SOPE   C2319314   2.237  -0.008   6.866  0.4024  0.4312  0.1921
  171SOPE   H3R19315   2.332   0.049   6.855  0.5496  0.5360  1.7307
  171SOPE   H3S19316   2.217  -0.077   6.782 -2.7411 -0.7528  1.7379
  171SOPE   C2419317   2.248  -0.089   6.995  0.0985  0.0416 -0.6834
  171SOPE   H4R19318   2.143  -0.103   7.029  0.1008  0.8987 -0.2826
  171SOPE   H4S19319   2.286  -0.188   6.962  1.1031 -0.3643  1.5050
  171SOPE   C2519320   2.335  -0.035   7.109 -0.0542  0.7495  0.1428
  171SOPE   H5R19321   2.443  -0.061   7.110 -0.2980 -0.3278  0.2941
  171SOPE   H5S19322   2.329   0.075   7.094  1.5647  0.6099 -1.9417
  171SOPE   C2619323   2.269  -0.065   7.248  0.1365  0.8233  0.5668
  171SOPE   H6R19324   2.242  -0.173   7.243  0.3470  0.8276 -1.2578
  171SOPE   H6S19325   2.338  -0.049   7.334 -0.2786 -2.0369  1.5739
  171SOPE   C2719326   2.141   0.022   7.267  0.0514 -0.1174  0.2107
  171SOPE   H7R19327   2.171   0.123   7.233  2.7697 -1.4704 -1.7727
  171SOPE   H7S19328   2.058  -0.023   7.207 -1.7104 -0.2891  2.6078
  171SOPE   C2819329   2.078   0.036   7.404  0.3997  0.1941  0.6442
  171SOPE   H8R19330   2.148   0.106   7.453  1.4503  1.2034 -2.1462
  171SOPE   H8S19331   1.976   0.078   7.394  0.0084 -0.0728  2.9147
  171SOPE   C2919332   2.069  -0.097   7.472 -0.3568  0.3160  0.1164
  171SOPE   H9119333   2.027  -0.178   7.410 -1.1564 -0.4367  1.5824
  171SOPE  C21019334   2.103  -0.119   7.600 -0.1528 -0.1169 -0.0979
  171SOPE  H10119335   2.094  -0.219   7.646  2.1701 -0.7384 -0.8343
  171SOPE  C21119336   2.150  -0.006   7.699  0.7686  1.4472  0.1433
  171SOPE  H11R19337   2.133   0.097   7.662 -1.5771  1.6976  1.6957
  171SOPE  H11S19338   2.259  -0.007   7.720  0.7436  1.5588  0.2835
  171SOPE  C21219339   2.075  -0.014   7.831  0.6400  0.4134  0.0463
  171SOPE  H12R19340   1.966   0.005   7.822  0.5862  1.0922  1.8072
  171SOPE  H12S19341   2.115   0.071   7.889  0.5661  0.9903 -0.7408
  171SOPE  C21319342   2.103  -0.150   7.904  0.2562  0.2521 -0.3008
  171SOPE  H13R19343   2.203  -0.190   7.874 -0.6239  0.2807 -3.6779
  171SOPE  H13S19344   2.025  -0.224   7.877  0.3203  0.1581 -0.2322
  171SOPE  C21419345   2.094  -0.139   8.064 -0.3709 -0.5644 -0.5398
  171SOPE  H14R19346   2.174  -0.067   8.090 -0.7380 -0.2502 -0.2665
  171SOPE  H14S19347   2.113  -0.242   8.100  1.7986  0.3506  1.1528
  171SOPE  C21519348   1.957  -0.075   8.096 -0.4113  0.1872  0.3734
  171SOPE  H15R19349   1.942   0.023   8.047  0.3144 -0.1116 -0.4739
  171SOPE  H15S19350   1.968  -0.049   8.203  0.2373 -1.2041  0.6723
  171SOPE  C21619351   1.841  -0.171   8.083  0.1414 -0.7148  0.2674
  171SOPE  H16R19352   1.853  -0.263   8.143 -2.7631 -0.5787  1.2281
  171SOPE  H16S19353   1.829  -0.206   7.978 -1.6205 -0.2235  0.2614
  171SOPE  C21719354   1.717  -0.099   8.123 -0.6829 -0.1890  0.0209
  171SOPE  H17R19355   1.624  -0.156   8.105  0.6733 -2.2102 -0.9392
  171SOPE  H17S19356   1.715   0.003   8.079 -0.1827  0.3797  1.2395
  171SOPE  C21819357   1.711  -0.063   8.281 -0.5942 -0.0458  0.5005
  171SOPE  H18R19358   1.771  -0.139   8.335  1.9584  1.5299  0.0527
  171SOPE  H18S19359   1.602  -0.051   8.300 -1.0798 -0.2220 -1.8883
  171SOPE  H18T19360   1.767   0.032   8.295  0.7313 -0.6591 -0.3730
  171SOPE   C3319361   1.860   0.353   7.030 -0.8039  0.4777 -0.4400
  171SOPE   H3X19362   1.957   0.406   7.016 -1.3616  1.6863  0.0837
  171SOPE   H3Y19363   1.877   0.255   6.981  0.1834  0.6542 -0.4746
  171SOPE   C3419364   1.827   0.319   7.176 -0.0618  0.2260 -0.1312
  171SOPE   H4X19365   1.903   0.248   7.217 -0.0045 -0.8646 -2.0383
  171SOPE   H4Y19366   1.728   0.268   7.174  0.7657 -1.4408 -0.8023
  171SOPE   C3519367   1.826   0.439   7.270 -0.1673  0.0164  0.7423
  171SOPE   H5X19368   1.760   0.519   7.229  0.7541 -0.8163 -2.7238
  171SOPE   H5Y19369   1.926   0.487   7.273 -0.6417  1.0106  1.3526
  171SOPE   C3619370   1.785   0.399   7.407  0.2652 -0.4271  0.4248
  171SOPE   H6X19371   1.722   0.308   7.401  1.0513 -0.8832 -2.1649
  171SOPE   H6Y19372   1.733   0.483   7.458 -1.1274 -0.8429 -0.2443
  171SOPE   C3719373   1.914   0.355   7.490 -0.2753 -0.0862 -0.3663
  171SOPE   H7X19374   1.956   0.455   7.514 -0.7708 -0.1259  0.7522
  171SOPE   H7Y19375   1.983   0.300   7.423 -2.1958 -2.7630 -0.3045
  171SOPE   C3819376   1.890   0.278   7.618  0.1643  0.2173 -0.1347
  171SOPE   H8X19377   1.988   0.246   7.659 -0.5607 -0.6289  0.9854
  171SOPE   H8Y19378   1.836   0.182   7.604  0.8896 -0.1224 -0.6811
  171SOPE   C3919379   1.813   0.359   7.721 -0.7670  0.1225 -0.1159
  171SOPE   H9X19380   1.708   0.363   7.684 -0.3038  1.1023 -1.3740
  171SOPE   H9Y19381   1.851   0.463   7.715 -0.6054 -0.0264 -3.3433
  171SOPE  C31019382   1.830   0.303   7.863 -0.6533  0.0065  0.3880
  171SOPE  H10X19383   1.937   0.330   7.871 -0.1957 -1.4508 -0.5037
  171SOPE  H10Y19384   1.829   0.192   7.864  2.3969 -0.0950  0.1220
  171SOPE  C31119385   1.744   0.368   7.967  0.1026 -0.0972 -0.0347
  171SOPE  H11X19386   1.646   0.317   7.973  0.9369 -1.6240  1.3798
  171SOPE  H11Y19387   1.729   0.476   7.943 -1.0015 -0.3950 -0.7639
  171SOPE  C31219388   1.805   0.356   8.105 -0.1031 -0.0683  0.1155
  171SOPE  H12X19389   1.906   0.400   8.096  0.2418 -0.9118 -0.2173
  171SOPE  H12Y19390   1.828   0.250   8.131 -0.2994 -0.3603 -0.8753
  171SOPE  C31319391   1.707   0.412   8.218 -0.3063 -0.7618  0.3904
  171SOPE  H13X19392   1.622   0.341   8.227  0.5128 -1.7187  0.8106
  171SOPE  H13Y19393   1.685   0.518   8.194  3.0793  0.0507  0.3071
  171SOPE  C31419394   1.802   0.406   8.344 -0.0321 -0.2318 -0.2498
  171SOPE  H14X19395   1.831   0.304   8.374 -1.7478 -0.6472  0.1297
  171SOPE  H14Y19396   1.746   0.446   8.431 -2.0883 -1.6041 -0.8619
  171SOPE  C31519397   1.929   0.484   8.335  0.6552  0.5540  0.5395
  171SOPE  H15X19398   1.927   0.560   8.254 -0.7524  0.3285  0.3425
  171SOPE  H15Y19399   2.003   0.406   8.306 -1.0433 -1.2274  0.7303
  171SOPE  C31619400   1.980   0.545   8.470  0.1862 -0.3893  0.1509
  171SOPE  H16X19401   1.898   0.601   8.520  0.8189  1.2224 -0.5601
  171SOPE  H16Y19402   2.056   0.615   8.431 -0.2140 -0.4669 -0.7810
  171SOPE  C31719403   2.044   0.443   8.569 -0.4088 -0.6934  0.0427
  171SOPE  H17X19404   2.120   0.389   8.509 -1.4674 -1.0812 -1.0015
  171SOPE  H17Y19405   1.974   0.361   8.595  1.1661 -1.6304  1.5379
  171SOPE  C31819406   2.112   0.507   8.694  0.1606  0.7865  0.0545
  171SOPE  H18X19407   2.145   0.424   8.760 -1.3352  0.6641  0.6973
  171SOPE  H18Y19408   2.033   0.565   8.746 -1.8497 -1.9711  0.3023
  171SOPE  H18Z19409   2.194   0.574   8.661  1.1787 -0.7002 -0.5498
  172SOPE     N19410   3.403   3.273   6.262 -0.4470  0.3950  0.3578
  172SOPE   HN119411   3.388   3.179   6.221 -2.2414  0.8111 -0.0649
  172SOPE   HN219412   3.340   3.339   6.212 -0.1904  0.0359 -0.4550
  172SOPE   HN319413   3.499   3.310   6.251 -0.1171 -0.9110 -1.6185
  172SOPE   C1219414   3.383   3.264   6.408  1.5417 -0.2508 -0.5773
  172SOPE  H12A19415   3.392   3.369   6.442 -0.1245  0.1478 -1.2608
  172SOPE  H12B19416   3.461   3.197   6.449  2.0307  0.7151  0.0973
  172SOPE   C1119417   3.237   3.208   6.428  0.0560 -0.3249 -0.1886
  172SOPE  H11A19418   3.167   3.287   6.394  0.1338  1.1224  2.7818
  172SOPE  H11B19419   3.217   3.204   6.537 -1.1179  2.5072 -0.2258
  172SOPE     P19420   3.233   2.949   6.427 -0.4120 -0.1547 -0.0825
  172SOPE   O1319421   3.315   2.859   6.345  0.4880  0.5881 -0.1664
  172SOPE   O1419422   3.104   2.904   6.476 -0.1841  0.0145 -0.2850
  172SOPE   O1219423   3.221   3.086   6.362 -0.5706  0.0445 -0.1496
  172SOPE   O1119424   3.326   2.980   6.544 -0.1160  0.0376 -0.1315
  172SOPE    C119425   3.361   2.887   6.645 -0.1217 -0.6394 -0.5565
  172SOPE    HA19426   3.467   2.858   6.630  0.5621  1.6560 -0.5540
  172SOPE    HB19427   3.290   2.801   6.650  0.4419 -1.1523 -1.2735
  172SOPE    C219428   3.336   2.969   6.775  0.4904  0.2868 -0.2863
  172SOPE    HS19429   3.382   3.069   6.761  0.3428  1.2740  4.5177
  172SOPE   O2119430   3.393   2.884   6.876 -0.5509  0.0416  0.1224
  172SOPE   C2119431   3.408   2.940   6.996  0.5990 -0.5704  0.3488
  172SOPE   O2219432   3.396   3.059   7.013  0.4362  0.1844 -0.1558
  172SOPE   C2219433   3.473   2.831   7.092  0.1336  0.0257  0.2787
  172SOPE   H2R19434   3.573   2.805   7.050 -1.0118  0.4904 -3.0437
  172SOPE   H2S19435   3.409   2.741   7.095 -0.2249  0.2957  1.0042
  172SOPE    C319436   3.178   2.987   6.805  0.3940 -0.7394 -0.4684
  172SOPE    HX19437   3.150   3.056   6.723  1.5136  0.8658  0.4433
  172SOPE    HY19438   3.163   3.050   6.895 -0.8394  0.4218 -1.4484
  172SOPE   O3119439   3.103   2.869   6.800  0.5545  0.1169 -0.9760
  172SOPE   C3119440   3.079   2.806   6.919  0.0219 -0.2872  0.3098
  172SOPE   O3219441   3.108   2.856   7.026  0.2176  0.1782  0.6864
  172SOPE   C3219442   3.026   2.666   6.896 -0.4538 -0.0649 -0.2325
  172SOPE   H2X19443   3.052   2.619   6.799  1.1032  0.4168 -0.0815
  172SOPE   H2Y19444   2.917   2.679   6.913 -0.3167 -1.3637  2.0575
  172SOPE   C2319445   3.508   2.873   7.241 -0.5938 -0.4509 -0.3070
  172SOPE   H3R19446   3.442   2.958   7.270  0.6879  0.6204 -0.4302
  172SOPE   H3S19447   3.612   2.910   7.233 -1.0168  0.9703  0.3742
  172SOPE   C2419448   3.491   2.747   7.332 -0.2533  0.1234  0.0636
  172SOPE   H4R19449   3.389   2.706   7.319 -0.2306  0.4211 -1.1876
  172SOPE   H4S19450   3.556   2.670   7.286 -0.8881 -0.9183  0.8649
  172SOPE   C2519451   3.519   2.780   7.481 -0.0999 -0.1808  0.0864
  172SOPE   H5R19452   3.625   2.785   7.511 -0.5053 -1.9657  2.0170
  172SOPE   H5S19453   3.474   2.879   7.507  0.3077 -0.4061  1.7502
  172SOPE   C2619454   3.451   2.676   7.572 -0.1421  0.2448  0.1704
  172SOPE   H6R19455   3.449   2.573   7.532  1.1149  0.3050 -0.0738
  172SOPE   H6S19456   3.501   2.669   7.671 -1.1065  1.3308  0.7603
  172SOPE   C2719457   3.305   2.717   7.592  0.4207 -0.9002  0.4631
  172SOPE   H7R19458   3.308   2.827   7.608 -1.5192 -0.6485 -0.6461
  172SOPE   H7S19459   3.246   2.704   7.499 -0.3181  0.7834  0.6599
  172SOPE   C2819460   3.236   2.648   7.715  0.6444 -0.5615  0.1657
  172SOPE   H8R19461   3.285   2.678   7.810 -0.7123  1.2082  0.3475
  172SOPE   H8S19462   3.133   2.688   7.719  0.3905 -1.3115  1.6374
  172SOPE   C2919463   3.240   2.496   7.689  0.1627 -0.6454  0.0983
  172SOPE   H9119464   3.207   2.465   7.589  3.0637 -0.7365 -0.9175
  172SOPE  C21019465   3.314   2.409   7.751  0.5741  0.5904 -0.0715
  172SOPE  H10119466   3.314   2.303   7.719  0.6280  0.8085 -0.8094
  172SOPE  C21119467   3.399   2.429   7.876  0.0293  0.6156  0.3273
  172SOPE  H11R19468   3.438   2.532   7.893 -1.6940  1.0012  2.2982
  172SOPE  H11S19469   3.490   2.366   7.867  0.0504  0.9475 -2.7839
  172SOPE  C21219470   3.319   2.375   7.994  0.1520 -0.5939 -0.5949
  172SOPE  H12R19471   3.235   2.439   8.030 -1.9433 -2.2849 -2.2420
  172SOPE  H12S19472   3.393   2.374   8.077  0.8732 -0.6020 -1.2288
  172SOPE  C21319473   3.272   2.228   7.974 -0.3787 -0.2608 -0.2881
  172SOPE  H13R19474   3.348   2.148   7.965 -1.4065 -1.4788  1.2793
  172SOPE  H13S19475   3.211   2.206   7.884  0.4897  0.2537 -1.0095
  172SOPE  C21419476   3.191   2.194   8.103  0.3401 -0.3254 -0.4816
  172SOPE  H14R19477   3.123   2.282   8.111  0.6891 -0.1677  0.8979
  172SOPE  H14S19478   3.245   2.200   8.199 -1.0622  1.4989  0.2559
  172SOPE  C21519479   3.127   2.062   8.079  0.1827  0.6372 -0.6308
  172SOPE  H15R19480   3.214   1.993   8.077 -0.2370  0.0473  0.4098
  172SOPE  H15S19481   3.088   2.069   7.975  1.4067 -0.0161 -1.1489
  172SOPE  C21619482   3.005   2.038   8.171 -0.1735  0.4357  0.4083
  172SOPE  H16R19483   2.927   2.105   8.130 -0.1133 -0.5335 -1.4065
  172SOPE  H16S19484   3.018   2.085   8.271  2.2759 -0.4662  0.5887
  172SOPE  C21719485   2.963   1.891   8.193  0.1410 -1.0790 -0.5541
  172SOPE  H17R19486   3.051   1.841   8.240  1.0835  1.3296  0.4222
  172SOPE  H17S19487   2.943   1.847   8.093  1.8782 -2.2535 -0.4281
  172SOPE  C21819488   2.833   1.863   8.274  0.0012  0.0285 -0.7080
  172SOPE  H18R19489   2.853   1.894   8.379 -0.8118  0.0308 -0.5410
  172SOPE  H18S19490   2.817   1.753   8.281  1.0878 -0.0640  1.1383
  172SOPE  H18T19491   2.752   1.921   8.225  1.4133  0.6324 -2.3973
  172SOPE   C3319492   3.084   2.564   6.997 -0.0784  0.2475  0.0467
  172SOPE   H3X19493   3.195   2.561   6.988 -0.0838  0.0742  0.0414
  172SOPE   H3Y19494   3.063   2.466   6.950 -0.0806  1.1711 -1.9784
  172SOPE   C3419495   3.051   2.562   7.143  0.0820 -0.4745 -0.2504
  172SOPE   H4X19496   2.942   2.543   7.151  0.2323 -0.8281  1.2681
  172SOPE   H4Y19497   3.067   2.661   7.191  0.4459 -0.0375 -1.2470
  172SOPE   C3519498   3.113   2.447   7.226 -0.6724 -0.1218  0.4182
  172SOPE   H5X19499   3.221   2.453   7.249 -0.4943 -0.3852 -0.3178
  172SOPE   H5Y19500   3.099   2.361   7.156 -0.2140  0.1824 -0.0530
  172SOPE   C3619501   3.036   2.416   7.364  0.3159 -0.0058 -0.4588
  172SOPE   H6X19502   2.931   2.412   7.328 -0.1850  1.2621  0.7706
  172SOPE   H6Y19503   3.052   2.504   7.429  0.3609 -1.4140  1.5077
  172SOPE   C3719504   3.075   2.285   7.428  0.3125 -0.2370 -0.5244
  172SOPE   H7X19505   3.176   2.313   7.464 -0.4292  0.4096  1.1657
  172SOPE   H7Y19506   3.078   2.205   7.350 -1.5508 -2.2712  1.3353
  172SOPE   C3819507   2.990   2.241   7.554  1.1399 -0.5279  0.0134
  172SOPE   H8X19508   2.982   2.324   7.627 -2.8806 -0.2085 -0.5274
  172SOPE   H8Y19509   3.044   2.159   7.605  3.2143  0.7838  0.0293
  172SOPE   C3919510   2.841   2.201   7.528 -0.6552 -0.5937 -0.3546
  172SOPE   H9X19511   2.786   2.286   7.483 -0.9186 -1.1019 -1.0177
  172SOPE   H9Y19512   2.795   2.202   7.629  1.7824  1.8215  0.8516
  172SOPE  C31019513   2.811   2.079   7.435 -0.1769 -0.3021 -0.5633
  172SOPE  H10X19514   2.845   1.981   7.474  0.4259  0.1479  0.0809
  172SOPE  H10Y19515   2.873   2.098   7.345  1.2206 -2.0620 -0.0260
  172SOPE  C31119516   2.656   2.068   7.423 -0.6162 -0.1908 -0.4034
  172SOPE  H11X19517   2.618   2.168   7.394 -0.8982 -0.8220 -2.3589
  172SOPE  H11Y19518   2.613   2.047   7.523 -1.0081  3.8106  0.4655
  172SOPE  C31219519   2.607   1.982   7.315  0.0474  0.1765  0.8398
  172SOPE  H12X19520   2.653   1.881   7.324 -0.4232 -0.0878  0.3644
  172SOPE  H12Y19521   2.635   2.016   7.213 -0.5490  0.1869  0.6744
  172SOPE  C31319522   2.450   1.955   7.312 -0.0496 -0.0675  0.2391
  172SOPE  H13X19523   2.423   1.891   7.399 -0.5623 -0.3809 -0.1499
  172SOPE  H13Y19524   2.429   1.896   7.221  0.0574 -2.5217  1.7164
  172SOPE  C31419525   2.373   2.080   7.305  0.3444  0.0920 -0.0417
  172SOPE  H14X19526   2.420   2.133   7.219  2.1177 -0.8496  0.2958
  172SOPE  H14Y19527   2.385   2.139   7.399 -2.5767  0.4348  0.1975
  172SOPE  C31519528   2.229   2.066   7.291 -0.5653  0.1850 -0.6508
  172SOPE  H15X19529   2.217   2.014   7.194  0.9601  0.8840 -1.2326
  172SOPE  H15Y19530   2.171   2.161   7.287 -0.4278  0.2241 -2.3042
  172SOPE  C31619531   2.173   1.976   7.406 -0.0690  0.1086  0.2422
  172SOPE  H16X19532   2.177   2.036   7.500  0.0037  1.0304 -0.3412
  172SOPE  H16Y19533   2.229   1.882   7.425 -1.1246 -0.9435 -1.6524
  172SOPE  C31719534   2.028   1.931   7.385 -0.3975  0.5101  0.0141
  172SOPE  H17X19535   2.037   1.883   7.286  3.9336  2.4077 -0.7362
  172SOPE  H17Y19536   1.971   2.025   7.372 -0.9098  0.0927 -0.8235
  172SOPE  C31819537   1.960   1.856   7.490  0.4692 -0.2012 -0.3304
  172SOPE  H18X19538   2.023   1.768   7.516 -0.0632 -0.0203  1.8171
  172SOPE  H18Y19539   1.864   1.817   7.450  0.1209  0.1176  0.1790
  172SOPE  H18Z19540   1.945   1.926   7.575 -3.1389 -2.4594  1.1255
  173SAPI   C1219541   3.433   0.172  10.517  0.1571  0.0639  0.1753
  173SAPI    H219542   3.505   0.204  10.439 -1.7831 -0.2040 -1.8295
  173SAPI    O219543   3.292   0.178  10.477  0.2227  0.3681  0.2860
  173SAPI   HO219544   3.264   0.270  10.477  0.3319  0.4084 -0.5025
  173SAPI   C1319545   3.465   0.033  10.562 -0.5728 -0.3308 -0.0280
  173SAPI    H319546   3.573   0.033  10.588 -0.6417 -0.0345  0.2660
  173SAPI    O319547   3.449  -0.061  10.451  0.2206 -0.0158 -0.4113
  173SAPI   HO319548   3.354  -0.062  10.438 -0.5109  2.4194  3.3638
  173SAPI   C1419549   3.397  -0.008  10.693  0.5247  0.1976 -0.1012
  173SAPI    H419550   3.289   0.009  10.673  0.8941  1.0791 -1.4172
  173SAPI    O419551   3.423  -0.146  10.735 -0.1264 -0.3231 -0.0988
  173SAPI   HO419552   3.519  -0.148  10.745 -0.0119  1.8393 -0.3032
  173SAPI   C1519553   3.420   0.097  10.803 -0.1132 -0.2780 -0.8659
  173SAPI    H519554   3.531   0.101  10.816 -0.1890  0.4517 -0.3984
  173SAPI    O519555   3.362   0.071  10.929  0.8376  0.5106 -0.0863
  173SAPI   HO519556   3.269   0.054  10.910 -1.3745  6.2519  3.0047
  173SAPI   C1619557   3.384   0.240  10.755 -0.3124  0.2508  0.1871
  173SAPI    H619558   3.276   0.238  10.729 -0.0383 -1.0172 -0.9842
  173SAPI    O619559   3.410   0.336  10.855 -0.7725  0.0360 -0.3257
  173SAPI   HO619560   3.489   0.307  10.901 -0.9620 -0.2171 -0.1639
  173SAPI   C1119561   3.459   0.273  10.631 -0.1273 -0.3243  0.2978
  173SAPI    H119562   3.568   0.260  10.652  0.1821 -1.4389 -1.7171
  173SAPI     P19563   3.526   0.529  10.572  0.0248  0.1152 -0.5348
  173SAPI   O1319564   3.629   0.506  10.680  0.2919  0.1645 -0.1829
  173SAPI   O1419565   3.456   0.659  10.575  0.1851 -0.0590 -0.3658
  173SAPI   O1219566   3.423   0.406  10.587 -0.0358 -0.4252 -0.2752
  173SAPI   O1119567   3.584   0.520  10.432 -0.2353 -0.1789  0.4636
  173SAPI    C119568   3.685   0.428  10.394 -0.3048 -0.5351 -0.0532
  173SAPI    HA19569   3.694   0.339  10.459 -1.4932 -0.0144  0.8683
  173SAPI    HB19570   3.671   0.395  10.289 -0.8829  0.3037 -0.2555
  173SAPI    C219571   3.828   0.494  10.404 -0.2101 -0.3118  0.1543
  173SAPI    HS19572   3.836   0.547  10.501 -0.9550 -0.9279  0.5638
  173SAPI   O2119573   3.855   0.572  10.292 -0.0235 -0.0082  0.1098
  173SAPI   C2119574   3.838   0.706  10.314  0.0309 -0.5497  0.0291
  173SAPI   O2219575   3.808   0.758  10.416 -0.1346  0.4377 -0.0040
  173SAPI   C2219576   3.870   0.781  10.180  0.5593  0.3119 -0.3899
  173SAPI   H2R19577   3.882   0.886  10.216  1.8356  0.0385  0.0124
  173SAPI   H2S19578   3.962   0.744  10.130  3.4977  2.0667  3.2460
  173SAPI    C319579   3.941   0.379  10.407 -0.7433 -0.0187 -0.2089
  173SAPI    HX19580   3.936   0.316  10.499  1.9552  1.2183  0.8946
  173SAPI    HY19581   4.036   0.436  10.419  0.9017 -2.7317  0.5656
  173SAPI   O3119582   3.940   0.290  10.293  0.2619  0.1673 -0.0990
  173SAPI   C3119583   4.043   0.306  10.214  0.6230 -0.4169  0.7021
  173SAPI   O3219584   4.131   0.396  10.225 -0.0167  0.5030  0.0842
  173SAPI   C3219585   4.043   0.215  10.093 -0.4052 -0.7103 -0.7264
  173SAPI   H2X19586   3.962   0.139  10.100 -0.1744 -0.8217  1.0186
  173SAPI   H2Y19587   4.136   0.155  10.086 -0.6590 -1.1003 -0.8147
  173SAPI   C2319588   3.745   0.775  10.082  0.8133  1.0611 -0.1264
  173SAPI   H3R19589   3.760   0.862  10.014 -1.3279  0.7751 -1.0469
  173SAPI   H3S19590   3.656   0.799  10.144 -0.2796 -0.6513 -0.9762
  173SAPI   C2419591   3.725   0.643  10.000  1.1770  0.4079  0.0032
  173SAPI   H4R19592   3.626   0.626   9.953  1.4425 -3.0175  0.4378
  173SAPI   H4S19593   3.733   0.560  10.073 -2.7100 -1.0599 -1.0061
  173SAPI   C2519594   3.830   0.646   9.893  0.5437 -0.3691 -0.4126
  173SAPI   H5R19595   3.921   0.694   9.931  0.1149 -0.6139  0.9883
  173SAPI   C2619596   3.821   0.604   9.768 -0.7515  1.0743 -0.0306
  173SAPI   H6R19597   3.913   0.627   9.712 -1.1143 -0.2487 -1.2254
  173SAPI   C2719598   3.714   0.537   9.686 -0.3354 -0.1625  0.0395
  173SAPI   H7R19599   3.620   0.525   9.744  0.5783 -1.9869  1.2819
  173SAPI   H7S19600   3.759   0.438   9.665 -0.4557 -0.4213  0.9575
  173SAPI   C2819601   3.686   0.591   9.543  0.2116 -0.0277 -0.1548
  173SAPI   H8R19602   3.614   0.671   9.522  0.2604 -0.2216 -1.1093
  173SAPI   C2919603   3.746   0.539   9.437  0.2526  0.2714  0.5394
  173SAPI   H9R19604   3.734   0.591   9.340  1.5137 -1.0048 -0.3576
  173SAPI  C21019605   3.854   0.432   9.437  0.2090 -0.4208  0.3116
  173SAPI  H10R19606   3.810   0.333   9.462 -2.1106  0.4011 -0.3553
  173SAPI  H10S19607   3.917   0.456   9.525 -1.1162 -0.5534  1.3199
  173SAPI  C21119608   3.927   0.430   9.308 -0.1299 -0.1660 -0.4426
  173SAPI  H11R19609   4.007   0.506   9.300 -2.3594  2.3877  0.0436
  173SAPI  C21219610   3.912   0.349   9.201 -0.1837 -0.6163  0.2307
  173SAPI  H12R19611   3.977   0.351   9.113  0.4174  1.5286  0.6679
  173SAPI  C21319612   3.811   0.238   9.192 -0.1749  0.2115  0.0786
  173SAPI  H13R19613   3.717   0.255   9.249 -1.0922  1.5945 -1.7365
  173SAPI  H13S19614   3.870   0.152   9.231 -0.5168 -0.2556 -0.4182
  173SAPI  C21419615   3.757   0.193   9.055 -0.5926 -0.1675  0.3426
  173SAPI  H14R19616   3.822   0.118   9.006  0.4501  0.9393 -0.0274
  173SAPI  C21519617   3.656   0.243   8.980  0.0598  0.1328  0.4319
  173SAPI  H15R19618   3.625   0.182   8.894 -0.2298  2.4112 -1.1895
  173SAPI  C21619619   3.563   0.356   9.010  0.9586 -0.1932  0.3465
  173SAPI  H16R19620   3.619   0.419   9.081  2.3848 -0.4829 -0.4850
  173SAPI  H16S19621   3.468   0.323   9.059  0.5101  1.4503  0.6370
  173SAPI  C21719622   3.511   0.425   8.873 -0.4107  0.0269 -0.4874
  173SAPI  H17R19623   3.440   0.351   8.831  2.1274 -2.1896 -1.1763
  173SAPI  H17S19624   3.600   0.428   8.807  1.1095  3.5415  1.4542
  173SAPI  C21819625   3.465   0.568   8.884 -0.5670  0.2775  0.8154
  173SAPI  H18R19626   3.548   0.611   8.945 -1.2138 -2.1141  3.6393
  173SAPI  H18S19627   3.368   0.570   8.939  0.0809  0.7486  1.9804
  173SAPI  C21919628   3.460   0.634   8.747 -0.0163  0.1283 -0.4353
  173SAPI  H19R19629   3.566   0.648   8.717 -0.6245  3.3111 -1.5462
  173SAPI  H19S19630   3.430   0.741   8.752 -2.6463 -0.5732  0.1412
  173SAPI  C22019631   3.379   0.563   8.641 -0.4167  0.3588 -0.1128
  173SAPI  H20R19632   3.355   0.632   8.557 -1.7362 -1.2670 -1.1612
  173SAPI  H20S19633   3.285   0.517   8.678 -0.6122  1.0184  0.2123
  173SAPI  H20T19634   3.432   0.473   8.601 -0.0989 -0.1952  1.4804
  173SAPI   C3319635   4.009   0.296   9.961 -0.5676 -0.0609  0.2546
  173SAPI   H3X19636   4.085   0.368   9.924 -0.8384 -0.8384 -1.9461
  173SAPI   H3Y19637   3.918   0.356   9.980 -1.4811 -1.4719  0.5224
  173SAPI   C3419638   3.976   0.199   9.848 -0.1025 -0.2132  0.8223
  173SAPI   H4X19639   3.959   0.259   9.756  0.1898 -1.3088  0.0312
  173SAPI   H4Y19640   3.883   0.140   9.861 -0.3673  0.0365  0.1012
  173SAPI   C3519641   4.080   0.093   9.817 -0.3605 -0.2544 -0.0809
  173SAPI   H5X19642   4.110   0.022   9.898 -0.5072  0.8115  0.9312
  173SAPI   H5Y19643   4.172   0.146   9.785  1.2850 -2.4512  0.7468
  173SAPI   C3619644   4.046   0.010   9.690  0.4591 -0.2771  0.4074
  173SAPI   H6X19645   3.960  -0.054   9.718 -1.6568  3.2592  2.7851
  173SAPI   H6Y19646   4.138  -0.050   9.671  0.2957 -0.9263  1.5657
  173SAPI   C3719647   4.018   0.102   9.567  0.2771 -0.8102  0.1434
  173SAPI   H7X19648   4.085   0.190   9.580 -1.8892  0.6264  2.4312
  173SAPI   H7Y19649   3.912   0.132   9.572  0.7877  1.4792 -1.4762
  173SAPI   C3819650   4.036   0.030   9.438  0.3192  0.2054 -0.1444
  173SAPI   H8X19651   4.141  -0.007   9.442  0.9604  1.7692 -1.6072
  173SAPI   H8Y19652   4.026   0.106   9.358 -1.9803 -0.6981 -0.7874
  173SAPI   C3919653   3.949  -0.088   9.417 -0.2389  0.7172  0.4536
  173SAPI   H9X19654   3.850  -0.056   9.377  0.2052  0.2560 -1.0938
  173SAPI   H9Y19655   3.935  -0.146   9.511  1.9584  1.7473  1.4762
  173SAPI  C31019656   4.011  -0.183   9.314  0.1368  0.7301 -0.0301
  173SAPI  H10X19657   3.965  -0.284   9.323  1.2714 -0.0232 -2.0753
  173SAPI  H10Y19658   4.115  -0.207   9.347 -0.3251 -1.7496 -0.1348
  173SAPI  C31119659   3.982  -0.140   9.168  0.4164  0.1467 -0.1063
  173SAPI  H11X19660   4.046  -0.056   9.133  1.1908 -0.5215 -0.3372
  173SAPI  H11Y19661   3.879  -0.101   9.155  0.3403  1.0179  2.4705
  173SAPI  C31219662   4.008  -0.253   9.064  0.5613  0.1240  0.3131
  173SAPI  H12X19663   3.927  -0.326   9.084  0.3332  0.2598 -0.1059
  173SAPI  H12Y19664   4.105  -0.298   9.097 -0.2372 -0.2673  2.2913
  173SAPI  C31319665   3.999  -0.208   8.920 -0.7799  0.3198 -0.0778
  173SAPI  H13X19666   4.088  -0.152   8.885 -0.8221  0.1854 -0.4030
  173SAPI  H13Y19667   3.917  -0.133   8.912  0.0587  1.9600  3.9487
  173SAPI  C31419668   3.962  -0.320   8.815  0.2931 -0.1101 -0.2831
  173SAPI  H14X19669   3.868  -0.371   8.845 -0.2051  1.3673  0.7852
  173SAPI  H14Y19670   4.046  -0.393   8.815 -0.5563 -1.2654  3.1809
  173SAPI  C31519671   3.936  -0.266   8.671 -0.3587  0.4877  0.0374
  173SAPI  H15X19672   4.031  -0.232   8.625 -0.2207  2.3691  1.5545
  173SAPI  H15Y19673   3.872  -0.175   8.684 -0.5952  0.4928 -1.1060
  173SAPI  C31619674   3.847  -0.352   8.580  0.0132  0.8521 -0.3582
  173SAPI  H16X19675   3.751  -0.370   8.632  0.0099  0.5305 -0.4756
  173SAPI  H16Y19676   3.902  -0.448   8.571 -0.9616  0.1304  1.0365
  173SAPI  C31719677   3.816  -0.308   8.437  0.4507 -0.6239  0.2420
  173SAPI  H17X19678   3.914  -0.306   8.384  0.1274 -0.1616 -0.3528
  173SAPI  H17Y19679   3.772  -0.206   8.439 -2.1885 -1.7084  0.8030
  173SAPI  C31819680   3.718  -0.383   8.359 -0.2987  0.6601  0.4862
  173SAPI  H18X19681   3.757  -0.487   8.354  0.0180  0.3726  4.8577
  173SAPI  H18Y19682   3.723  -0.350   8.253 -0.0256 -1.9401 -0.3878
  173SAPI  H18Z19683   3.615  -0.384   8.400 -0.5294  0.1019 -0.0965
  174SAPI   C1219684   1.002   1.271  10.603 -0.2644  0.1589 -0.8113
  174SAPI    H219685   1.096   1.290  10.658 -1.0927  1.0163  0.3378
  174SAPI    O219686   1.009   1.332  10.476 -0.0906 -0.1384 -0.7142
  174SAPI   HO219687   1.024   1.425  10.490  0.6770 -0.3924  0.2733
  174SAPI   C1319688   0.980   1.127  10.599  0.3058 -0.0602  0.0738
  174SAPI    H319689   0.973   1.090  10.704 -1.1937  2.1247  0.7973
  174SAPI    O319690   1.101   1.057  10.556 -0.6365 -0.0729  0.7752
  174SAPI   HO319691   1.179   1.096  10.597 -1.1096  0.8599  0.7900
  174SAPI   C1419692   0.852   1.093  10.525 -0.4659  0.0289 -0.3928
  174SAPI    H419693   0.860   1.132  10.421 -0.6263  2.3784  0.4016
  174SAPI    O419694   0.839   0.950  10.521 -0.1500  0.0827 -0.2439
  174SAPI   HO419695   0.868   0.913  10.437 -0.0150 -1.6517  0.5317
  174SAPI   C1519696   0.734   1.156  10.591 -0.7620  0.3477  0.2658
  174SAPI    H519697   0.730   1.113  10.694 -0.1009 -2.1446 -0.6564
  174SAPI    O519698   0.610   1.123  10.520 -0.8123  0.1561 -0.1322
  174SAPI   HO519699   0.577   1.197  10.468 -3.3822  0.0510  1.2174
  174SAPI   C1619700   0.751   1.304  10.620 -0.0380  0.4840  0.8240
  174SAPI    H619701   0.762   1.358  10.524 -0.7532  0.3858  0.6844
  174SAPI    O619702   0.633   1.351  10.699 -0.1362 -0.4973 -0.2796
  174SAPI   HO619703   0.627   1.447  10.701  0.8504 -0.4295 -0.0238
  174SAPI   C1119704   0.888   1.334  10.680 -0.5311 -0.0001 -0.2563
  174SAPI    H119705   0.882   1.292  10.782 -0.4260  0.9033  0.1296
  174SAPI     P19706   0.970   1.548  10.821  0.5772  0.3715  0.2991
  174SAPI   O1319707   0.951   1.449  10.928 -0.0714 -0.0716  0.0133
  174SAPI   O1419708   0.902   1.682  10.842 -0.5836 -0.1690 -0.0488
  174SAPI   O1219709   0.907   1.474  10.692  0.5235 -0.5897 -0.4699
  174SAPI   O1119710   1.122   1.563  10.781 -0.9307 -0.0181 -0.3547
  174SAPI    C119711   1.175   1.673  10.712 -0.0123 -0.3228  1.2217
  174SAPI    HA19712   1.106   1.759  10.720 -0.8343 -0.9643  1.1714
  174SAPI    HB19713   1.265   1.717  10.760 -1.1548  0.9792  2.2801
  174SAPI    C219714   1.201   1.651  10.557  0.4729  0.1508  1.0468
  174SAPI    HS19715   1.239   1.746  10.514  0.4426 -0.5147 -0.5075
  174SAPI   O2119716   1.073   1.607  10.491 -0.4501  0.4417  0.3512
  174SAPI   C2119717   0.997   1.713  10.461 -0.2100  0.1218  0.5783
  174SAPI   O2219718   1.014   1.827  10.499  0.0255 -0.4067  0.5607
  174SAPI   C2219719   0.884   1.660  10.376  0.3230 -0.4324  0.7950
  174SAPI   H2R19720   0.917   1.573  10.314  1.5957 -0.2577  1.2043
  174SAPI   H2S19721   0.801   1.629  10.443 -1.4911 -0.5120 -1.3693
  174SAPI    C319722   1.315   1.553  10.528  0.0012 -0.3019  0.3379
  174SAPI    HX19723   1.287   1.464  10.588 -1.3217  0.5961  1.1020
  174SAPI    HY19724   1.407   1.596  10.574  1.4725 -1.5132 -1.3135
  174SAPI   O3119725   1.330   1.543  10.388  0.5365  0.0363  0.0156
  174SAPI   C3119726   1.361   1.413  10.352  0.0213  0.3440  0.5256
  174SAPI   O3219727   1.380   1.322  10.426  0.6386  0.0664 -0.3196
  174SAPI   C3219728   1.388   1.414  10.206 -0.2076 -0.3382 -1.0009
  174SAPI   H2X19729   1.439   1.320  10.174  0.3736 -1.0553  1.7663
  174SAPI   H2Y19730   1.459   1.495  10.181  0.7826 -0.2246  1.8713
  174SAPI   C2319731   0.828   1.781  10.288 -0.7680 -0.4413  0.1649
  174SAPI   H3R19732   0.813   1.872  10.351  2.8022 -0.1035  0.7589
  174SAPI   H3S19733   0.732   1.759  10.237 -0.0270 -2.1685 -0.5387
  174SAPI   C2419734   0.923   1.836  10.174 -0.3303  0.4503 -0.0338
  174SAPI   H4R19735   1.027   1.854  10.210 -1.2315  1.5802  2.2217
  174SAPI   H4S19736   0.887   1.932  10.132  2.3669  4.2036  5.0864
  174SAPI   C2519737   0.947   1.735  10.068  0.8542  0.2916 -0.5142
  174SAPI   H5R19738   0.976   1.641  10.116 -2.0303  0.1081  1.1258
  174SAPI   C2619739   0.919   1.742   9.934 -0.6637 -0.3312 -0.2212
  174SAPI   H6R19740   0.949   1.660   9.866 -2.1911 -0.4688 -0.7734
  174SAPI   C2719741   0.853   1.861   9.872 -0.8834  0.5624  0.2686
  174SAPI   H7R19742   0.904   1.877   9.775 -0.3373 -2.1608  0.0112
  174SAPI   H7S19743   0.864   1.959   9.923 -0.3766  0.4030  0.4784
  174SAPI   C2819744   0.709   1.834   9.847  0.1906 -0.1040 -0.0073
  174SAPI   H8R19745   0.643   1.878   9.924 -0.2470  1.2334 -1.0963
  174SAPI   C2919746   0.658   1.775   9.741 -0.7877  0.4010 -0.3745
  174SAPI   H9R19747   0.549   1.761   9.731 -0.7832 -1.3251  1.2959
  174SAPI  C21019748   0.734   1.722   9.618 -0.1848  0.0976 -0.7420
  174SAPI  H10R19749   0.677   1.633   9.583  1.8711 -1.7921  0.4626
  174SAPI  H10S19750   0.837   1.699   9.652 -0.7778  1.0981  1.9681
  174SAPI  C21119751   0.760   1.835   9.516 -0.1868 -0.3476 -0.6839
  174SAPI  H11R19752   0.777   1.934   9.560 -0.6482 -0.1000 -1.0557
  174SAPI  C21219753   0.772   1.824   9.385 -0.1765  0.4274 -0.2005
  174SAPI  H12R19754   0.804   1.906   9.319  2.3318  0.5694  1.0861
  174SAPI  C21319755   0.767   1.692   9.310 -0.5427 -0.4724  0.2208
  174SAPI  H13R19756   0.662   1.657   9.296 -0.8492 -0.1138  1.4842
  174SAPI  H13S19757   0.815   1.616   9.375 -0.9438 -0.4296  0.5736
  174SAPI  C21419758   0.854   1.701   9.186  0.3229 -0.0891  0.0757
  174SAPI  H14R19759   0.961   1.674   9.194  0.0324 -2.3191 -2.2269
  174SAPI  C21519760   0.813   1.695   9.055  0.0086  0.7707  0.1375
  174SAPI  H15R19761   0.884   1.706   8.971 -0.8878  1.6234 -0.5388
  174SAPI  C21619762   0.665   1.694   9.016 -0.0864 -0.5277  0.1124
  174SAPI  H16R19763   0.598   1.676   9.103 -3.2088  2.7648 -1.3561
  174SAPI  H16S19764   0.644   1.619   8.937 -1.4972  0.6221 -0.6389
  174SAPI  C21719765   0.628   1.840   8.963  0.0197  0.2160 -0.8405
  174SAPI  H17R19766   0.692   1.857   8.874  3.7974 -3.5963  0.8235
  174SAPI  H17S19767   0.671   1.917   9.030 -0.5411  0.4360 -0.7210
  174SAPI  C21819768   0.479   1.858   8.935  0.7834  0.4814 -0.6309
  174SAPI  H18R19769   0.422   1.880   9.028  0.3106  1.3898 -1.1323
  174SAPI  H18S19770   0.437   1.762   8.898 -0.1842  0.6961 -0.1085
  174SAPI  C21919771   0.440   1.963   8.839 -0.0013  0.0165 -0.3625
  174SAPI  H19R19772   0.458   2.066   8.877 -0.4039  0.3594 -1.0750
  174SAPI  H19S19773   0.331   1.968   8.821 -0.1205  0.7451  0.4818
  174SAPI  C22019774   0.495   1.943   8.696 -0.5452  0.3775  0.2350
  174SAPI  H20R19775   0.598   1.984   8.689 -0.9255  1.1180 -3.5403
  174SAPI  H20S19776   0.438   1.998   8.617 -0.8355 -1.5088 -0.9347
  174SAPI  H20T19777   0.509   1.834   8.679  2.5675  0.8755 -1.2331
  174SAPI   C3319778   1.256   1.440  10.130 -0.3204 -0.3563  0.6263
  174SAPI   H3X19779   1.210   1.536  10.161  0.2369 -0.7690  2.9025
  174SAPI   H3Y19780   1.188   1.353  10.141 -1.1787  0.0278 -1.2456
  174SAPI   C3419781   1.280   1.452   9.977 -0.0031  0.5455 -0.4736
  174SAPI   H4X19782   1.359   1.526   9.953 -0.8602  1.5761 -0.1986
  174SAPI   H4Y19783   1.188   1.489   9.927  0.6836  2.1710 -0.5822
  174SAPI   C3519784   1.329   1.326   9.908  0.3251  1.1595  0.2627
  174SAPI   H5X19785   1.294   1.235   9.962  2.3399 -0.2744 -0.7094
  174SAPI   H5Y19786   1.439   1.315   9.900  0.0441 -0.8869 -2.1606
  174SAPI   C3619787   1.259   1.319   9.766  0.3609 -0.3623 -0.3805
  174SAPI   H6X19788   1.292   1.414   9.719  4.4221 -0.1678  2.4354
  174SAPI   H6Y19789   1.148   1.311   9.773  0.4723 -2.9315 -0.5163
  174SAPI   C3719790   1.297   1.207   9.668  0.3903  0.3761  0.1644
  174SAPI   H7X19791   1.276   1.108   9.714  0.4829  0.2371 -0.0907
  174SAPI   H7Y19792   1.404   1.215   9.640  0.5099  0.2010  0.5651
  174SAPI   C3819793   1.217   1.226   9.535 -0.4528 -0.1719 -0.4888
  174SAPI   H8X19794   1.235   1.333   9.513  0.5403 -0.1205  0.4712
  174SAPI   H8Y19795   1.107   1.235   9.540 -0.4529 -0.7006  0.8780
  174SAPI   C3919796   1.261   1.127   9.433 -0.4083  0.1582  0.3393
  174SAPI   H9X19797   1.252   1.027   9.481  0.8782 -0.2567 -0.2272
  174SAPI   H9Y19798   1.371   1.136   9.421  0.1143 -2.5953  2.0424
  174SAPI  C31019799   1.185   1.112   9.303 -0.1354  0.4036 -0.0686
  174SAPI  H10X19800   1.079   1.088   9.325  0.3293 -1.5946  0.2729
  174SAPI  H10Y19801   1.223   1.034   9.233 -0.0771  0.8935 -0.5874
  174SAPI  C31119802   1.179   1.247   9.238 -0.4055  0.1995 -0.1677
  174SAPI  H11X19803   1.282   1.283   9.218 -0.4895 -0.2222 -1.5244
  174SAPI  H11Y19804   1.117   1.321   9.292  1.1884  2.5027 -1.3381
  174SAPI  C31219805   1.111   1.239   9.095 -0.8563 -0.6022 -0.4985
  174SAPI  H12X19806   1.006   1.206   9.087 -1.2304  0.2050  0.7883
  174SAPI  H12Y19807   1.168   1.167   9.033  0.9848  2.6890 -2.9466
  174SAPI  C31319808   1.112   1.378   9.030 -0.3927 -0.1861 -1.2018
  174SAPI  H13X19809   1.211   1.425   9.053 -0.0111 -2.1643  1.8718
  174SAPI  H13Y19810   1.034   1.443   9.076 -1.3793 -2.0746 -0.0869
  174SAPI  C31419811   1.074   1.376   8.881 -0.5417  0.6249  0.1215
  174SAPI  H14X19812   0.964   1.376   8.864 -0.6086 -0.6100  0.4362
  174SAPI  H14Y19813   1.125   1.285   8.843  0.8393  1.1009  0.7941
  174SAPI  C31519814   1.118   1.508   8.810 -0.1098  0.4252  0.1148
  174SAPI  H15X19815   1.228   1.517   8.826 -0.0181 -1.2700  0.6569
  174SAPI  H15Y19816   1.066   1.589   8.865  1.5698  1.7955 -0.2285
  174SAPI  C31619817   1.069   1.529   8.666  0.1752  0.1478  0.1610
  174SAPI  H16X19818   0.962   1.499   8.661  0.2773 -0.2241  0.1205
  174SAPI  H16Y19819   1.124   1.466   8.592 -0.3170  0.1682 -0.2284
  174SAPI  C31719820   1.095   1.671   8.617  0.0284 -0.5412 -0.3805
  174SAPI  H17X19821   1.204   1.689   8.614 -0.3321  1.9840 -0.1682
  174SAPI  H17Y19822   1.067   1.753   8.686 -2.4759 -0.4667 -1.3847
  174SAPI  C31819823   1.031   1.703   8.477 -0.0752  0.1548  0.4802
  174SAPI  H18X19824   1.052   1.616   8.410 -2.5500 -0.6697  0.6477
  174SAPI  H18Y19825   1.076   1.794   8.432  1.3190 -0.9588 -0.4669
  174SAPI  H18Z19826   0.920   1.713   8.484  0.1207  2.0709  1.1517
  175SAPI   C1219827   1.100   5.972   6.247  0.3076 -0.2606 -0.3741
  175SAPI    H219828   1.119   6.008   6.351 -0.3943  0.1777 -0.3941
  175SAPI    O219829   1.156   5.842   6.230  0.2135  0.4773  1.2038
  175SAPI   HO219830   1.094   5.790   6.281  0.0219  1.5612  2.1242
  175SAPI   C1319831   0.951   5.966   6.231 -0.0347  0.2741 -0.0010
  175SAPI    H319832   0.907   6.066   6.250 -0.4584  0.2448 -0.7825
  175SAPI    O319833   0.897   5.877   6.322 -0.1752  0.3123 -0.0025
  175SAPI   HO319834   0.802   5.871   6.336  0.0580  0.9102  2.1749
  175SAPI   C1419835   0.914   5.932   6.088  0.5435 -0.0851 -0.7746
  175SAPI    H419836   0.951   5.831   6.059  0.9411 -0.1281 -0.1435
  175SAPI    O419837   0.772   5.930   6.077  0.9531 -0.5587  0.5656
  175SAPI   HO419838   0.741   5.856   6.130 -2.1554  0.9059  1.0191
  175SAPI   C1519839   0.978   6.014   5.975  0.6009 -0.2092  0.1019
  175SAPI    H519840   0.940   6.118   5.977  1.8670  0.2642  1.4258
  175SAPI    O519841   0.952   5.955   5.845  0.5105  0.0330 -0.0796
  175SAPI   HO519842   0.931   6.030   5.788  2.1332  0.7884  0.2603
  175SAPI   C1619843   1.129   6.034   6.012  0.2513  0.2531  0.5016
  175SAPI    H619844   1.182   5.938   5.991 -2.0429 -1.1838  0.9386
  175SAPI    O619845   1.183   6.124   5.913  0.4178 -0.6305 -0.7801
  175SAPI   HO619846   1.258   6.154   5.966 -1.9934 -0.6891  3.0129
  175SAPI   C1119847   1.151   6.074   6.153 -0.5663 -0.3779 -0.2552
  175SAPI    H119848   1.098   6.170   6.171  0.5790 -0.1189  2.0798
  175SAPI     P19849   1.365   6.243   6.188  0.4670 -0.5002 -0.3334
  175SAPI   O1319850   1.329   6.318   6.066  0.1436 -0.0256  0.1851
  175SAPI   O1419851   1.508   6.214   6.197 -0.5304 -0.5163  0.2361
  175SAPI   O1219852   1.289   6.097   6.187 -0.1193 -0.1848 -0.6285
  175SAPI   O1119853   1.323   6.317   6.323 -0.1339 -0.2430 -0.1160
  175SAPI    C119854   1.255   6.247   6.426 -0.7693  0.5805 -0.5178
  175SAPI    HA19855   1.149   6.232   6.397 -0.7574  0.0229 -0.2823
  175SAPI    HB19856   1.316   6.158   6.451  0.2096  0.8966 -1.7247
  175SAPI    C219857   1.267   6.333   6.565 -0.3771  0.2128  0.3235
  175SAPI    HS19858   1.223   6.275   6.649 -0.9380  1.0502  0.6331
  175SAPI   O2119859   1.190   6.456   6.549  0.3227 -0.3449  0.3994
  175SAPI   C2119860   1.058   6.437   6.544 -0.3689 -0.3128 -0.2923
  175SAPI   O2219861   0.998   6.333   6.566  0.1239  0.0582 -0.0599
  175SAPI   C2219862   0.992   6.580   6.537 -0.1519 -0.0210  0.2193
  175SAPI   H2R19863   1.046   6.644   6.610 -1.2957  0.7544  0.4252
  175SAPI   H2S19864   1.020   6.616   6.436  1.2153 -1.7337 -0.0381
  175SAPI    C319865   1.404   6.363   6.612 -0.7455  0.2612  0.4907
  175SAPI    HX19866   1.449   6.440   6.545 -0.1887  1.8552  2.6031
  175SAPI    HY19867   1.456   6.265   6.609  0.7265  1.0351 -0.4988
  175SAPI   O3119868   1.396   6.422   6.745 -0.0784 -0.1678 -0.2118
  175SAPI   C3119869   1.413   6.338   6.846 -0.0882 -0.5327 -0.2589
  175SAPI   O3219870   1.397   6.219   6.844 -0.0832  0.2706  0.2392
  175SAPI   C3219871   1.442   6.425   6.967 -0.3553  0.1427  0.3696
  175SAPI   H2X19872   1.375   6.510   6.944 -0.7114 -0.5455 -1.2885
  175SAPI   H2Y19873   1.546   6.461   6.952  0.0108 -0.6946  0.8147
  175SAPI   C2319874   0.839   6.600   6.550 -0.2049  0.9261 -0.3796
  175SAPI   H3R19875   0.791   6.512   6.501  1.5247 -1.3237  1.6911
  175SAPI   H3S19876   0.802   6.693   6.502 -1.2104  1.4377  1.3085
  175SAPI   C2419877   0.791   6.590   6.695  0.2130 -0.3064 -0.0208
  175SAPI   H4R19878   0.686   6.621   6.710  0.6980  0.2245  2.9699
  175SAPI   H4S19879   0.851   6.667   6.750  1.6414 -1.1600 -0.3226
  175SAPI   C2519880   0.807   6.464   6.762  0.0709  0.6942 -0.6322
  175SAPI   H5R19881   0.755   6.382   6.711  2.3240 -0.9622 -0.4151
  175SAPI   C2619882   0.887   6.431   6.870 -0.0827 -0.3044  0.0540
  175SAPI   H6R19883   0.884   6.329   6.911 -0.2869  0.1047  1.0944
  175SAPI   C2719884   0.982   6.527   6.940 -0.2570 -0.8646 -0.0649
  175SAPI   H7R19885   0.926   6.623   6.945  1.4591  0.4174 -2.9907
  175SAPI   H7S19886   1.068   6.542   6.872 -0.4785 -2.4718 -0.7464
  175SAPI   C2819887   1.032   6.476   7.069  0.2461  0.3160  0.0054
  175SAPI   H8R19888   1.071   6.373   7.062  1.3393  0.8037 -1.2862
  175SAPI   C2919889   1.032   6.535   7.196 -0.1451 -0.0388  0.0621
  175SAPI   H9R19890   1.070   6.480   7.283  1.2606  0.1197 -0.4221
  175SAPI  C21019891   0.981   6.671   7.227  0.0070 -0.7838  0.0801
  175SAPI  H10R19892   0.873   6.668   7.252 -0.4989  4.1813 -0.3984
  175SAPI  H10S19893   0.971   6.736   7.137  0.1179  0.2958  0.8224
  175SAPI  C21119894   1.062   6.732   7.334 -0.2605 -0.2445 -0.6392
  175SAPI  H11R19895   1.134   6.807   7.298  0.6881 -0.6834  0.2706
  175SAPI  C21219896   1.051   6.704   7.463  0.0253 -0.0895  0.4322
  175SAPI  H12R19897   1.110   6.759   7.538 -1.1394 -1.5057  2.5104
  175SAPI  C21319898   0.959   6.612   7.531  0.4378 -0.7180 -0.4224
  175SAPI  H13R19899   0.913   6.535   7.465 -1.3951  0.8348 -1.0469
  175SAPI  H13S19900   0.863   6.666   7.544 -0.8079 -2.9499  0.0966
  175SAPI  C21419901   1.012   6.549   7.660  0.2545 -0.4011  0.1445
  175SAPI  H14R19902   1.085   6.470   7.635 -1.3028 -1.6939 -0.4652
  175SAPI  C21519903   0.980   6.592   7.780 -0.7085 -0.4753  0.4057
  175SAPI  H15R19904   1.030   6.549   7.867  0.0629 -2.0258 -0.7470
  175SAPI  C21619905   0.879   6.700   7.803  0.0310 -0.6004  0.0422
  175SAPI  H16R19906   0.785   6.684   7.746 -0.7335 -1.8985  1.6125
  175SAPI  H16S19907   0.923   6.793   7.761  1.5536 -1.8452 -1.2748
  175SAPI  C21719908   0.869   6.738   7.953 -0.0953  0.0950  0.0875
  175SAPI  H17R19909   0.964   6.788   7.983  2.5757 -3.4756 -1.7298
  175SAPI  H17S19910   0.864   6.642   8.008  3.9020 -0.4586 -0.2110
  175SAPI  C21819911   0.757   6.826   7.996  0.7922  0.5576 -0.0683
  175SAPI  H18R19912   0.654   6.785   7.994  0.5374  1.0997  1.0694
  175SAPI  H18S19913   0.743   6.900   7.915 -2.4662 -0.2716 -0.4078
  175SAPI  C21919914   0.784   6.901   8.131 -0.5893  0.2503  0.2464
  175SAPI  H19R19915   0.702   6.975   8.136 -0.4198  0.6334 -1.6501
  175SAPI  H19S19916   0.871   6.969   8.119 -0.4456 -0.1603 -1.2912
  175SAPI  C22019917   0.791   6.821   8.265  0.9746 -0.2144 -0.0177
  175SAPI  H20R19918   0.796   6.895   8.348  1.6318  1.7975 -1.7686
  175SAPI  H20S19919   0.874   6.747   8.266  0.3188 -0.9509  0.7965
  175SAPI  H20T19920   0.695   6.766   8.272  0.8273  0.2038  1.8115
  175SAPI   C3319921   1.419   6.345   7.095  0.0948 -0.1176  0.9940
  175SAPI   H3X19922   1.501   6.271   7.109 -0.0017 -0.6071 -0.8095
  175SAPI   H3Y19923   1.316   6.306   7.087  0.4521 -0.9927  0.5650
  175SAPI   C3419924   1.410   6.439   7.213  0.3228 -0.0974 -0.1664
  175SAPI   H4X19925   1.331   6.513   7.189  1.7154  1.4755 -0.0507
  175SAPI   H4Y19926   1.502   6.498   7.231  0.9272 -0.7333 -1.0814
  175SAPI   C3519927   1.367   6.362   7.336  0.0482 -0.0840 -0.1531
  175SAPI   H5X19928   1.443   6.281   7.349  3.0301  2.5417 -0.0251
  175SAPI   H5Y19929   1.266   6.316   7.327 -0.6808  1.0979  1.4961
  175SAPI   C3619930   1.384   6.442   7.465 -0.2365  0.3395 -0.3348
  175SAPI   H6X19931   1.300   6.514   7.463 -1.4080 -0.9800 -3.0363
  175SAPI   H6Y19932   1.480   6.498   7.458  0.6356 -0.8682  1.2230
  175SAPI   C3719933   1.396   6.366   7.598 -0.1453  0.0354  0.1115
  175SAPI   H7X19934   1.493   6.313   7.601 -1.0792 -1.8908 -1.5962
  175SAPI   H7Y19935   1.319   6.286   7.602 -0.5433  0.4462  2.0425
  175SAPI   C3819936   1.397   6.453   7.725 -0.1390 -0.4122  0.0733
  175SAPI   H8X19937   1.409   6.381   7.810 -0.9379  1.3146  1.7155
  175SAPI   H8Y19938   1.301   6.506   7.742  0.1882 -0.3178  1.7935
  175SAPI   C3919939   1.509   6.558   7.728  0.2184  0.3798  0.1406
  175SAPI   H9X19940   1.499   6.621   7.637  0.2534 -1.9943 -1.6026
  175SAPI   H9Y19941   1.611   6.515   7.716 -0.7696 -2.4628  1.1473
  175SAPI  C31019942   1.500   6.633   7.860 -0.4834  0.0356 -0.4302
  175SAPI  H10X19943   1.600   6.671   7.887 -0.8543  0.3582  0.5339
  175SAPI  H10Y19944   1.470   6.563   7.940 -0.4422  1.5247  0.9442
  175SAPI  C31119945   1.400   6.755   7.864  0.5029 -0.2077 -0.0263
  175SAPI  H11X19946   1.367   6.780   7.967  3.5391 -1.2262  1.3055
  175SAPI  H11Y19947   1.309   6.730   7.806  0.5518 -0.1983 -0.1080
  175SAPI  C31219948   1.454   6.881   7.798 -0.1852 -0.1948  0.6278
  175SAPI  H12X19949   1.484   6.867   7.692  2.2742  0.9850  1.1095
  175SAPI  H12Y19950   1.551   6.913   7.840 -0.6125 -0.2186  1.6609
  175SAPI  C31319951   1.368   7.007   7.824  0.4110  0.1406  0.7808
  175SAPI  H13X19952   1.404   7.091   7.759  3.4311 -0.3144  1.7261
  175SAPI  H13Y19953   1.374   7.021   7.934  0.2640 -0.8487  0.9191
  175SAPI  C31419954   1.219   6.985   7.780 -0.1422  0.6211 -0.1943
  175SAPI  H14X19955   1.180   6.901   7.840 -1.5465  1.5063  0.1681
  175SAPI  H14Y19956   1.221   6.947   7.675 -1.5897 -1.6444  0.5258
  175SAPI  C31519957   1.137   7.109   7.808  0.1761  0.3901  0.1117
  175SAPI  H15X19958   1.156   7.187   7.731 -2.5449  2.0069  0.9441
  175SAPI  H15Y19959   1.175   7.157   7.901  0.9512  0.5023 -0.2467
  175SAPI  C31619960   0.985   7.080   7.818 -0.1876 -0.2077  0.0671
  175SAPI  H16X19961   0.969   7.010   7.903 -0.2456  1.8391  1.8404
  175SAPI  H16Y19962   0.951   7.028   7.726 -2.6183 -0.1763  0.8560
  175SAPI  C31719963   0.906   7.210   7.830 -0.1170  0.7628 -0.3650
  175SAPI  H17X19964   0.801   7.184   7.806  0.2924  0.3571 -1.8620
  175SAPI  H17Y19965   0.945   7.285   7.756 -2.0425  0.6481 -1.5749
  175SAPI  C31819966   0.905   7.274   7.965  0.6882 -0.1412 -0.2652
  175SAPI  H18X19967   0.827   7.352   7.977  1.8308  1.2374 -1.4030
  175SAPI  H18Y19968   1.001   7.325   7.984  0.1921 -0.1835  2.8527
  175SAPI  H18Z19969   0.893   7.197   8.045  0.2516  3.1854  3.1437
  176SAPI   C1219970   2.725   4.519   6.460 -0.2885  0.2555  0.0679
  176SAPI    H219971   2.727   4.457   6.551 -0.5628  1.1266  0.6808
  176SAPI    O219972   2.596   4.554   6.413  0.3308 -0.1250 -0.6804
  176SAPI   HO219973   2.538   4.477   6.420 -2.0338  1.6516  1.0836
  176SAPI   C1319974   2.796   4.647   6.490  0.0332 -0.1034  0.3520
  176SAPI    H319975   2.900   4.621   6.521  0.3927 -0.9393 -1.4421
  176SAPI    O319976   2.729   4.722   6.591 -0.0433  0.3389  0.5275
  176SAPI   HO319977   2.639   4.725   6.558 -0.3030 -1.4884  0.9514
  176SAPI   C1419978   2.814   4.732   6.365  0.6704  0.1057  0.6382
  176SAPI    H419979   2.711   4.762   6.337  0.2320 -0.7693  1.2728
  176SAPI    O419980   2.881   4.851   6.404  0.4779  0.2014  0.2457
  176SAPI   HO419981   2.837   4.884   6.483 -1.1039  0.3361 -0.6402
  176SAPI   C1519982   2.886   4.656   6.250 -0.8143  0.0145 -0.3055
  176SAPI    H519983   2.989   4.638   6.286 -1.6802 -0.9986  1.8464
  176SAPI    O519984   2.904   4.731   6.126  0.0103  0.1896 -0.1637
  176SAPI   HO519985   2.820   4.757   6.088 -0.4864 -1.1792 -0.0771
  176SAPI   C1619986   2.819   4.518   6.221 -0.5280  0.1994 -0.7626
  176SAPI    H619987   2.720   4.530   6.172 -0.0276  2.3334 -1.3790
  176SAPI    O619988   2.889   4.447   6.126 -0.7057 -0.3132  0.4308
  176SAPI   HO619989   2.924   4.365   6.160 -0.0927 -0.2035  0.0915
  176SAPI   C1119990   2.805   4.445   6.353 -0.5573  0.7025  0.6956
  176SAPI    H119991   2.906   4.438   6.399 -0.5600 -0.3678  0.5667
  176SAPI     P19992   2.825   4.190   6.336 -0.1949 -0.0418  0.1019
  176SAPI   O1319993   2.952   4.208   6.258  0.6147  0.1828 -0.5005
  176SAPI   O1419994   2.745   4.077   6.288 -0.6320  0.3377  0.1077
  176SAPI   O1219995   2.733   4.321   6.342 -1.2410 -0.2533  0.4779
  176SAPI   O1119996   2.846   4.164   6.488  0.2294 -0.3050  0.5076
  176SAPI    C119997   2.964   4.098   6.526 -0.3623 -0.2248 -0.7878
  176SAPI    HA19998   2.975   4.009   6.461 -3.7608  0.0281 -1.9159
  176SAPI    HB19999   3.052   4.162   6.504 -0.2974  0.5859  1.4954
  176SAPI    C220000   2.956   4.069   6.676  0.1345 -0.2656 -1.1037
  176SAPI    HS20001   2.866   4.005   6.689  1.2828 -1.6686  0.1463
  176SAPI   O2120002   2.951   4.189   6.751  0.2270  0.0224 -0.2235
  176SAPI   C2120003   2.873   4.178   6.860 -0.5702  0.0755  0.5661
  176SAPI   O2220004   2.816   4.082   6.903 -0.0688  0.0368  0.2930
  176SAPI   C2220005   2.847   4.315   6.917 -0.3698 -0.5781 -0.1529
  176SAPI   H2R20006   2.934   4.349   6.977  0.6641 -2.5239 -0.4449
  176SAPI   H2S20007   2.838   4.384   6.830  0.4932 -1.1016 -0.6830
  176SAPI    C320008   3.074   3.979   6.732  0.2765  0.0920  0.9640
  176SAPI    HX20009   3.165   4.042   6.735  1.0378 -0.9203 -0.1244
  176SAPI    HY20010   3.105   3.904   6.657 -0.1358  1.8596 -1.0894
  176SAPI   O3120011   3.048   3.921   6.861 -0.0851  0.0480 -0.1935
  176SAPI   C3120012   2.957   3.830   6.869  0.1169 -0.6321 -0.0745
  176SAPI   O3220013   2.883   3.790   6.773 -0.5470  0.0310  0.2692
  176SAPI   C3220014   2.935   3.767   7.009 -0.1971  0.4938  0.1597
  176SAPI   H2X20015   3.007   3.683   7.019  1.1199  1.4457 -0.9473
  176SAPI   H2Y20016   2.828   3.737   7.010 -0.3068  0.8538 -0.1648
  176SAPI   C2320017   2.732   4.317   7.017  1.0197  0.3257  0.0757
  176SAPI   H3R20018   2.750   4.239   7.093 -0.1404  1.7069  1.8334
  176SAPI   H3S20019   2.636   4.294   6.967  1.8417  2.8833 -3.0987
  176SAPI   C2420020   2.719   4.443   7.105 -0.0209 -0.6611 -0.1218
  176SAPI   H4R20021   2.806   4.458   7.173  0.9563  1.4830 -1.7310
  176SAPI   H4S20022   2.621   4.424   7.153 -1.2111  1.1334 -1.7342
  176SAPI   C2520023   2.714   4.567   7.019 -0.6288 -0.0084 -0.2762
  176SAPI   H5R20024   2.765   4.569   6.922 -0.8844  3.9575 -0.4906
  176SAPI   C2620025   2.636   4.677   7.044 -0.2959  0.0817  1.0267
  176SAPI   H6R20026   2.646   4.761   6.974  1.7306  1.2731  2.5988
  176SAPI   C2720027   2.554   4.701   7.166 -0.1032 -0.7310  0.3278
  176SAPI   H7R20028   2.624   4.703   7.252 -1.7598  0.7132  1.7100
  176SAPI   H7S20029   2.491   4.610   7.175 -0.3280 -0.8210 -1.6603
  176SAPI   C2820030   2.475   4.831   7.155 -0.3653 -0.2689 -0.8818
  176SAPI   H8R20031   2.464   4.875   7.055 -0.7824  1.4130 -0.1368
  176SAPI   C2920032   2.423   4.902   7.257  0.0828 -0.0395  0.5497
  176SAPI   H9R20033   2.348   4.981   7.244  1.1432  0.8078 -0.6433
  176SAPI  C21020034   2.440   4.844   7.398 -0.1564 -0.0744  0.5813
  176SAPI  H10R20035   2.531   4.896   7.433 -0.5690  2.5436 -1.8250
  176SAPI  H10S20036   2.450   4.734   7.403 -0.9106 -0.4177 -2.9181
  176SAPI  C21120037   2.329   4.873   7.498  0.2779 -0.4645 -0.4185
  176SAPI  H11R20038   2.250   4.797   7.491  0.8310 -1.6145  3.4455
  176SAPI  C21220039   2.323   4.967   7.593 -0.1055 -0.0607 -0.1090
  176SAPI  H12R20040   2.226   4.996   7.637  0.2353  0.8183  0.0980
  176SAPI  C21320041   2.424   5.077   7.623  0.7418  0.3290 -0.6883
  176SAPI  H13R20042   2.386   5.157   7.691 -0.5613 -0.9000  0.0723
  176SAPI  H13S20043   2.430   5.141   7.531 -1.9751  2.9944  0.8050
  176SAPI  C21420044   2.560   5.034   7.669  0.2763 -0.3030  0.5771
  176SAPI  H14R20045   2.639   5.037   7.592  0.1789  0.5023  0.4994
  176SAPI  C21520046   2.587   4.987   7.793 -0.4761 -1.0126 -0.5368
  176SAPI  H15R20047   2.683   4.939   7.817 -0.3276 -0.4282  0.0908
  176SAPI  C21620048   2.478   4.983   7.899  0.3890 -0.5217 -0.4151
  176SAPI  H16R20049   2.497   4.902   7.973 -0.5176 -0.0534  0.3600
  176SAPI  H16S20050   2.377   4.955   7.862 -1.3500  1.3187  2.4526
  176SAPI  C21720051   2.460   5.106   7.987 -0.1193  0.3763  0.2129
  176SAPI  H17R20052   2.412   5.190   7.931 -1.1981  1.2988  2.3992
  176SAPI  H17S20053   2.546   5.149   8.042  0.0813 -0.2302  0.3822
  176SAPI  C21820054   2.345   5.087   8.096  0.2601  0.8210  0.2762
  176SAPI  H18R20055   2.392   5.015   8.167  1.9057  1.8980  0.3371
  176SAPI  H18S20056   2.247   5.048   8.063  0.0591  1.3800  0.2081
  176SAPI  C21920057   2.310   5.214   8.172  0.7243 -0.2516  0.1697
  176SAPI  H19R20058   2.278   5.292   8.100 -0.8824 -0.3254  0.7616
  176SAPI  H19S20059   2.404   5.246   8.223  0.7780 -0.0843 -0.0321
  176SAPI  C22020060   2.204   5.194   8.284 -0.8030 -0.4529  0.6480
  176SAPI  H20R20061   2.199   5.289   8.341 -1.6541 -0.3285  0.3783
  176SAPI  H20S20062   2.231   5.113   8.354 -0.5071 -1.0933 -0.1926
  176SAPI  H20T20063   2.107   5.169   8.236 -0.9693 -1.2332  1.3893
  176SAPI   C3320064   2.955   3.864   7.128 -0.2899 -0.5791 -0.1792
  176SAPI   H3X20065   2.896   3.956   7.106  0.9358  0.1097 -0.6508
  176SAPI   H3Y20066   3.062   3.888   7.144 -0.6858  0.0535  1.6954
  176SAPI   C3420067   2.898   3.793   7.255 -0.1454  0.2025  0.0292
  176SAPI   H4X20068   2.972   3.726   7.305 -0.7512  0.5925  1.5057
  176SAPI   H4Y20069   2.804   3.748   7.217 -1.4520  1.7337  1.2884
  176SAPI   C3520070   2.854   3.903   7.355 -0.2465  0.1148 -0.0439
  176SAPI   H5X20071   2.786   3.979   7.312 -0.4909 -0.2773 -0.3512
  176SAPI   H5Y20072   2.942   3.949   7.406  0.0944 -0.6317  0.0598
  176SAPI   C3620073   2.784   3.843   7.477 -0.4551  0.3938  0.1042
  176SAPI   H6X20074   2.791   3.914   7.563  2.4353  0.4830 -0.1136
  176SAPI   H6Y20075   2.831   3.748   7.512 -0.3029  1.2207  2.3078
  176SAPI   C3720076   2.634   3.813   7.456 -0.7989  0.0325 -0.6417
  176SAPI   H7X20077   2.628   3.753   7.362 -2.4228 -0.6514 -0.1361
  176SAPI   H7Y20078   2.570   3.903   7.457  0.4618  0.9702  1.0523
  176SAPI   C3820079   2.573   3.722   7.564 -0.0747 -0.3170 -0.6433
  176SAPI   H8X20080   2.632   3.629   7.577  0.4479 -0.0480 -1.0543
  176SAPI   H8Y20081   2.472   3.692   7.527  0.2017 -0.3587 -1.3697
  176SAPI   C3920082   2.557   3.795   7.702 -0.4073  0.0681 -0.3945
  176SAPI   H9X20083   2.521   3.899   7.686  1.9430  0.7944 -1.4737
  176SAPI   H9Y20084   2.658   3.800   7.747  0.1599 -0.9928 -1.4956
  176SAPI  C31020085   2.459   3.718   7.793 -0.2389  0.1830  0.6333
  176SAPI  H10X20086   2.509   3.619   7.803 -0.5714  0.1227  1.7303
  176SAPI  H10Y20087   2.367   3.705   7.732 -0.8707  0.4831  1.5131
  176SAPI  C31120088   2.441   3.766   7.932  0.0822  0.0600 -0.7444
  176SAPI  H11X20089   2.360   3.843   7.927 -1.0610 -1.1514 -1.8556
  176SAPI  H11Y20090   2.540   3.809   7.959  1.7654 -3.1433 -1.3909
  176SAPI  C31220091   2.406   3.656   8.036 -0.2465  1.1831 -0.3910
  176SAPI  H12X20092   2.485   3.578   8.037 -0.9450  0.4173 -1.8911
  176SAPI  H12Y20093   2.315   3.598   8.007  0.9641 -0.1448 -1.7016
  176SAPI  C31320094   2.400   3.706   8.185  0.9852  0.1154 -1.0499
  176SAPI  H13X20095   2.357   3.626   8.248  0.0984 -1.2622 -3.2808
  176SAPI  H13Y20096   2.336   3.797   8.190 -0.9332 -1.2281  0.4611
  176SAPI  C31420097   2.532   3.726   8.251  0.6208  0.1804 -0.4321
  176SAPI  H14X20098   2.598   3.781   8.180 -0.5306  3.2956  0.7066
  176SAPI  H14Y20099   2.579   3.627   8.270 -1.3306 -0.5593  0.8898
  176SAPI  C31520100   2.506   3.810   8.374  0.7204  0.0801  0.1296
  176SAPI  H15X20101   2.427   3.760   8.433  0.4469 -2.5871 -2.2553
  176SAPI  H15Y20102   2.457   3.904   8.338  0.4472 -0.5908 -1.3112
  176SAPI  C31620103   2.633   3.839   8.461 -0.0072 -0.5763  0.5822
  176SAPI  H16X20104   2.710   3.890   8.400  0.5488  1.5431  2.9278
  176SAPI  H16Y20105   2.656   3.745   8.515 -0.0251 -0.9512 -0.0555
  176SAPI  C31720106   2.582   3.934   8.574 -0.3416  0.5505 -0.2836
  176SAPI  H17X20107   2.666   3.931   8.646 -0.0744 -0.5950 -0.6282
  176SAPI  H17Y20108   2.494   3.891   8.626 -0.9678  2.3109  0.1850
  176SAPI  C31820109   2.550   4.071   8.533  0.8953 -0.1586 -0.0637
  176SAPI  H18X20110   2.446   4.069   8.494  0.5054  1.4458  0.7838
  176SAPI  H18Y20111   2.617   4.115   8.457  0.1539  3.4563  1.1852
  176SAPI  H18Z20112   2.559   4.132   8.625 -2.6323 -1.1977  1.1323
  177SLPC     N20113   1.721   1.244  10.961 -0.1529  0.2521 -0.2237
  177SLPC   C1320114   1.635   1.129  10.962  0.2145 -0.2215  0.1593
  177SLPC  H13A20115   1.651   1.081  11.058 -0.2511  1.0633  0.9124
  177SLPC  H13B20116   1.530   1.147  10.941  0.3674 -0.9218 -1.3534
  177SLPC  H13C20117   1.660   1.052  10.891 -1.2046  0.3142 -0.9668
  177SLPC   C1420118   1.863   1.195  10.974 -0.4554 -0.2875  0.0337
  177SLPC  H14A20119   1.926   1.281  10.958 -0.5351  0.3036  2.5299
  177SLPC  H14B20120   1.867   1.166  11.078 -3.5029 -0.2997  0.2526
  177SLPC  H14C20121   1.886   1.112  10.909 -0.4010 -0.2588  0.0166
  177SLPC   C1520122   1.680   1.340  11.067  0.1365 -0.0869 -0.2988
  177SLPC  H15A20123   1.572   1.343  11.074  0.0735 -0.9237 -0.7775
  177SLPC  H15B20124   1.710   1.307  11.166 -2.8005 -2.6513 -0.0897
  177SLPC  H15C20125   1.699   1.441  11.033 -2.0031  0.5018  0.1324
  177SLPC   C1220126   1.720   1.312  10.822 -0.5677 -0.0930  0.6724
  177SLPC  H12A20127   1.766   1.241  10.755 -0.3044  0.0879  0.6626
  177SLPC  H12B20128   1.792   1.392  10.832  0.5075 -1.2208  2.6335
  177SLPC   C1120129   1.601   1.362  10.749  0.5315  0.1382 -0.1849
  177SLPC  H11A20130   1.531   1.276  10.741  0.1735  0.1817  1.8954
  177SLPC  H11B20131   1.634   1.389  10.647  2.3128  1.6714  0.7361
  177SLPC     P20132   1.611   1.609  10.830  0.2553 -0.0490 -0.0844
  177SLPC   O1320133   1.513   1.711  10.884  0.3322  0.4087  0.3525
  177SLPC   O1420134   1.734   1.593  10.913  0.0121  0.2988  0.0364
  177SLPC   O1220135   1.536   1.471  10.822 -0.1625 -0.3589  1.2462
  177SLPC   O1120136   1.651   1.644  10.684 -0.8065  0.1940 -0.5077
  177SLPC    C120137   1.734   1.762  10.656  0.4215 -0.2463 -0.0693
  177SLPC    HA20138   1.781   1.803  10.748  1.3454 -0.7017 -0.3340
  177SLPC    HB20139   1.823   1.745  10.593  0.5278 -1.3846  0.3543
  177SLPC    C220140   1.650   1.879  10.592 -0.6076  0.2037 -0.1018
  177SLPC    HS20141   1.566   1.904  10.659  0.6884  1.7894  1.0138
  177SLPC   O2120142   1.601   1.831  10.469  0.1010 -0.3076  0.9872
  177SLPC   C2120143   1.488   1.868  10.425 -0.0754 -0.2372 -0.0141
  177SLPC   O2220144   1.402   1.935  10.482 -0.4775 -0.0257  0.3087
  177SLPC   C2220145   1.481   1.810  10.286  0.3070  0.6276  0.0869
  177SLPC   H2R20146   1.575   1.811  10.228  0.3291 -0.7476  0.0758
  177SLPC   H2S20147   1.450   1.705  10.308 -0.4225  1.0179  1.0382
  177SLPC    C320148   1.739   2.005  10.564 -0.6447 -0.1934  0.9772
  177SLPC    HX20149   1.843   1.972  10.544 -0.5359 -1.5852  3.4457
  177SLPC    HY20150   1.752   2.058  10.661  3.0707  1.0510 -0.0546
  177SLPC   O3120151   1.687   2.098  10.465  0.6133 -0.1365  0.0751
  177SLPC   C3120152   1.764   2.208  10.453  0.1465 -0.2586 -0.8163
  177SLPC   O3220153   1.864   2.234  10.522  0.2766 -0.2420  0.5137
  177SLPC   C3220154   1.716   2.290  10.337 -0.4006 -0.3368 -1.0201
  177SLPC   H2X20155   1.802   2.348  10.298  0.4131 -0.7877  0.0299
  177SLPC   H2Y20156   1.639   2.357  10.380  0.8052 -0.3140  1.3152
  177SLPC   C2320157   1.380   1.886  10.200 -0.1559  0.1502  0.4230
  177SLPC   H3R20158   1.422   1.987  10.182  0.8704 -0.3969 -0.3458
  177SLPC   H3S20159   1.277   1.886  10.243 -1.2262  1.5971 -1.9701
  177SLPC   C2420160   1.369   1.823  10.062 -0.6471 -0.7756 -0.0444
  177SLPC   H4R20161   1.313   1.729  10.081 -0.8758 -0.3244  1.6973
  177SLPC   H4S20162   1.472   1.801  10.025 -0.6492 -0.4918 -0.2191
  177SLPC   C2520163   1.300   1.918   9.964  0.3486 -0.3810  0.3198
  177SLPC   H5R20164   1.352   2.013   9.941  0.5964  0.7503  4.6542
  177SLPC   H5S20165   1.205   1.947  10.012  0.4050 -0.5544  0.5387
  177SLPC   C2620166   1.262   1.845   9.836 -0.0043  0.3490 -0.1985
  177SLPC   H6R20167   1.195   1.757   9.849 -0.4685  0.7430  0.1333
  177SLPC   H6S20168   1.354   1.809   9.785  0.5104 -1.6664  1.9950
  177SLPC   C2720169   1.175   1.940   9.755 -0.4269 -0.3132 -0.3211
  177SLPC   H7R20170   1.237   2.029   9.733  0.0995 -0.5674  0.1169
  177SLPC   H7S20171   1.096   1.988   9.817  0.5705  2.6698 -1.2119
  177SLPC   C2820172   1.117   1.897   9.621 -0.2472  0.1103 -0.3011
  177SLPC   H8R20173   1.024   1.956   9.604 -0.0045  0.9304  1.0146
  177SLPC   H8S20174   1.073   1.796   9.637  0.3071 -0.2031 -0.7449
  177SLPC   C2920175   1.217   1.897   9.508 -0.2765  0.1244 -0.7191
  177SLPC   H9R20176   1.313   1.852   9.535 -0.7839 -0.7260 -0.2735
  177SLPC  C21020177   1.207   1.930   9.378  0.7947 -0.3276 -0.2936
  177SLPC  H10R20178   1.296   1.919   9.313  1.6845 -3.5138  1.2840
  177SLPC  C21120179   1.082   1.995   9.315  0.1825  0.1174  0.8875
  177SLPC  H11R20180   1.007   1.919   9.283 -2.8105  3.1104  0.3032
  177SLPC  H11S20181   1.019   2.047   9.390  0.5583  0.8021  0.7324
  177SLPC  C21220182   1.111   2.093   9.206 -0.3792 -0.1072 -0.7653
  177SLPC  H12R20183   1.082   2.198   9.224 -0.7232 -0.2181 -0.6612
  177SLPC  C21320184   1.149   2.064   9.079 -0.8627  0.0280  0.6018
  177SLPC  H13R20185   1.171   2.139   9.002  1.7828 -1.7706 -0.5565
  177SLPC  C21420186   1.168   1.931   9.006 -0.8381 -0.4568  0.1215
  177SLPC  H14R20187   1.074   1.871   9.010 -1.0911 -0.0951 -0.2512
  177SLPC  H14S20188   1.252   1.876   9.052  0.3374 -1.0206 -2.5292
  177SLPC  C21520189   1.211   1.947   8.861 -0.1458 -0.3930  0.1244
  177SLPC  H15R20190   1.139   2.016   8.812 -0.7815  0.4324  2.1160
  177SLPC  H15S20191   1.194   1.846   8.818 -0.3571  0.1192 -1.0194
  177SLPC  C21620192   1.359   1.982   8.849 -0.9566 -0.0112 -0.4388
  177SLPC  H16R20193   1.413   1.909   8.913 -0.7635 -0.0605 -0.6546
  177SLPC  H16S20194   1.366   2.083   8.896 -0.0147 -1.1839  2.1151
  177SLPC  C21720195   1.421   1.968   8.712 -0.3113  0.2847  0.7202
  177SLPC  H17R20196   1.359   2.013   8.631  0.3658  2.2502  1.2326
  177SLPC  H17S20197   1.439   1.862   8.685 -0.7861  0.5731 -0.8083
  177SLPC  C21820198   1.555   2.045   8.696 -0.3035  0.2929  1.6103
  177SLPC  H18R20199   1.541   2.142   8.747 -1.2049  1.8426 -1.3251
  177SLPC  H18S20200   1.585   2.044   8.588 -0.4022 -2.9832  1.5009
  177SLPC  H18T20201   1.631   1.986   8.751  0.1169 -0.6592  0.1021
  177SLPC   C3320202   1.659   2.217  10.223 -0.1758 -0.1210 -0.1953
  177SLPC   H3X20203   1.580   2.266  10.163 -1.9490 -2.0010  0.4849
  177SLPC   H3Y20204   1.609   2.123  10.252 -1.0547 -0.1435 -1.6805
  177SLPC   C3420205   1.772   2.200  10.122 -0.2945  0.5977  0.5374
  177SLPC   H4X20206   1.869   2.181  10.174 -0.1549 -0.0718  0.0397
  177SLPC   H4Y20207   1.785   2.301  10.078  1.1768 -0.0868 -0.7062
  177SLPC   C3520208   1.734   2.088  10.022  0.1503 -0.5517  0.1202
  177SLPC   H5X20209   1.720   1.989  10.070  2.0841 -1.2715 -0.6706
  177SLPC   H5Y20210   1.823   2.092   9.956 -0.6590  0.4690 -0.9458
  177SLPC   C3620211   1.618   2.117   9.937  0.1140  0.0732 -0.0206
  177SLPC   H6X20212   1.623   2.227   9.920 -2.4827  0.3890  0.8228
  177SLPC   H6Y20213   1.528   2.104  10.000  0.0625  2.9515  0.6415
  177SLPC   C3720214   1.617   2.034   9.812 -0.5743 -0.3052 -0.5896
  177SLPC   H7X20215   1.510   2.023   9.785 -0.7421 -3.9712  0.9549
  177SLPC   H7Y20216   1.653   1.930   9.828  0.0706 -0.2606 -1.6197
  177SLPC   C3820217   1.707   2.070   9.689  0.0873 -0.4354  0.4549
  177SLPC   H8X20218   1.804   2.017   9.697  0.0073 -0.7770 -0.6275
  177SLPC   H8Y20219   1.723   2.179   9.673 -1.1285 -0.0465  1.6567
  177SLPC   C3920220   1.650   2.028   9.549 -0.2735 -0.0556 -0.5995
  177SLPC   H9X20221   1.549   2.073   9.540 -1.3273 -1.7601  1.7601
  177SLPC   H9Y20222   1.642   1.919   9.533 -1.6379 -0.0605 -0.0242
  177SLPC  C31020223   1.747   2.073   9.438  0.6331  0.2050 -0.5436
  177SLPC  H10X20224   1.840   2.014   9.455 -0.9299 -2.0230  0.9171
  177SLPC  H10Y20225   1.767   2.180   9.456 -0.1408 -0.0786  2.6439
  177SLPC  C31120226   1.694   2.051   9.293 -0.2204  0.0017 -0.3140
  177SLPC  H11X20227   1.601   2.110   9.276 -0.9449 -0.6480  1.2217
  177SLPC  H11Y20228   1.651   1.952   9.269 -0.5740  0.3262 -1.0440
  177SLPC  C31220229   1.802   2.073   9.188 -0.5600  0.5119  0.5891
  177SLPC  H12X20230   1.893   2.017   9.219 -1.3396 -0.7561  0.6566
  177SLPC  H12Y20231   1.828   2.181   9.187  1.0464  0.1618 -0.4897
  177SLPC  C31320232   1.764   2.054   9.039  0.1552  0.3743 -0.9457
  177SLPC  H13X20233   1.679   2.122   9.018  0.3258 -0.1499 -3.8042
  177SLPC  H13Y20234   1.722   1.951   9.034 -0.5083  0.4540  1.8400
  177SLPC  C31420235   1.872   2.078   8.933  0.1440  0.3063  0.1780
  177SLPC  H14X20236   1.908   2.183   8.940  0.6827  0.1790 -0.5614
  177SLPC  H14Y20237   1.832   2.057   8.832  2.0071 -1.8209 -0.2127
  177SLPC  C31520238   1.984   1.979   8.948  0.3510  0.1918  0.4577
  177SLPC  H15X20239   1.948   1.875   8.931  1.1263 -0.1889  1.0840
  177SLPC  H15Y20240   2.024   1.979   9.051  2.0823 -2.9392 -0.0888
  177SLPC  C31620241   2.111   2.006   8.870  0.4791 -0.4024  0.0852
  177SLPC  H16X20242   2.135   2.114   8.882  1.2532 -0.7311  1.9691
  177SLPC  H16Y20243   2.092   1.981   8.764 -0.7598 -0.5351  0.3272
  177SLPC  C31720244   2.229   1.920   8.921 -1.1898  0.2190 -0.4898
  177SLPC  H17X20245   2.195   1.876   9.017 -1.6521  3.0780  0.7510
  177SLPC  H17Y20246   2.324   1.975   8.934 -1.3312  0.1209  1.0908
  177SLPC  C31820247   2.280   1.800   8.837 -0.2952 -0.7415  0.0097
  177SLPC  H18X20248   2.193   1.733   8.816 -0.9197  0.0943 -0.1195
  177SLPC  H18Y20249   2.360   1.740   8.885  1.8710 -0.9406 -3.4812
  177SLPC  H18Z20250   2.306   1.828   8.733  2.5770  0.5443  0.9896
  178SLPC     N20251   3.919   4.552  10.657  0.2515  0.0376  0.6689
  178SLPC   C1320252   3.881   4.575  10.800 -0.3419 -0.0617  0.4090
  178SLPC  H13A20253   3.867   4.479  10.847  1.3408  0.4697  2.1024
  178SLPC  H13B20254   3.964   4.622  10.850  0.5123  0.8462 -1.7409
  178SLPC  H13C20255   3.787   4.629  10.806  0.3510  1.0694  1.4311
  178SLPC   C1420256   3.852   4.434  10.595  0.2156 -0.0864 -0.5985
  178SLPC  H14A20257   3.871   4.425  10.489  1.9579 -0.7006 -0.2673
  178SLPC  H14B20258   3.877   4.342  10.646  0.6406  0.9466  1.1618
  178SLPC  H14C20259   3.746   4.451  10.594  0.2856  0.3314 -1.4016
  178SLPC   C1520260   4.071   4.519  10.660 -0.0983 -0.6059  0.2812
  178SLPC  H15A20261   4.082   4.418  10.696  2.0651 -1.7300 -3.0153
  178SLPC  H15B20262   4.114   4.517  10.560  0.3073  2.7000  0.2668
  178SLPC  H15C20263   4.133   4.587  10.716  0.9410 -1.2530 -0.0559
  178SLPC   C1220264   3.891   4.675  10.572  0.3069  0.3619 -0.2335
  178SLPC  H12A20265   3.900   4.652  10.467  1.7786  2.4886 -0.6425
  178SLPC  H12B20266   3.967   4.746  10.599 -0.1440  0.1864  1.6229
  178SLPC   C1120267   3.749   4.742  10.582  0.1169  0.3094  0.6263
  178SLPC  H11A20268   3.676   4.670  10.540 -1.7623  1.7122  1.3491
  178SLPC  H11B20269   3.750   4.828  10.513  0.0636  0.5923  0.9752
  178SLPC     P20270   3.720   4.908  10.772 -0.3914  0.1441 -0.0388
  178SLPC   O1320271   3.645   4.926  10.898  0.1521  0.0911 -0.0224
  178SLPC   O1420272   3.865   4.931  10.780 -0.2292 -0.0070  0.3382
  178SLPC   O1220273   3.699   4.768  10.714  0.4759  0.0965 -0.2374
  178SLPC   O1120274   3.650   5.000  10.668  0.3021 -0.0697  0.1621
  178SLPC    C120275   3.518   5.061  10.681 -0.7735 -0.0277 -0.4708
  178SLPC    HA20276   3.431   4.997  10.707 -2.6871  2.9586  1.1143
  178SLPC    HB20277   3.516   5.137  10.763  0.6048  0.3010 -0.7209
  178SLPC    C220278   3.472   5.123  10.545  0.0224 -0.0104  0.1897
  178SLPC    HS20279   3.361   5.121  10.550  0.0707 -1.5996  1.3715
  178SLPC   O2120280   3.511   5.061  10.421 -0.1449  0.0270  0.1973
  178SLPC   C2120281   3.483   4.932  10.406  0.0153  0.1054  0.5613
  178SLPC   O2220282   3.425   4.862  10.483 -0.4639  0.0075 -0.4272
  178SLPC   C2220283   3.528   4.892  10.269  0.4029 -0.7619 -0.2211
  178SLPC   H2R20284   3.453   4.919  10.191  0.9381 -0.1735 -0.5429
  178SLPC   H2S20285   3.624   4.941  10.243  1.6538  0.6834  5.7634
  178SLPC    C320286   3.526   5.269  10.532 -0.5836 -0.2644  0.2310
  178SLPC    HX20287   3.636   5.256  10.532 -0.6028 -0.5882 -1.4029
  178SLPC    HY20288   3.498   5.333  10.619 -0.9068  2.1526 -1.5447
  178SLPC   O3120289   3.479   5.334  10.411 -0.4689 -0.5800  0.1350
  178SLPC   C3120290   3.583   5.354  10.318 -0.1912  0.1219 -0.7155
  178SLPC   O3220291   3.701   5.323  10.332  0.1372  0.1941 -0.0415
  178SLPC   C3220292   3.531   5.413  10.185  0.1681  0.2544 -0.1801
  178SLPC   H2X20293   3.541   5.523  10.197  0.4314  0.2084  0.0171
  178SLPC   H2Y20294   3.428   5.379  10.159  0.0304 -1.7549  2.6195
  178SLPC   C2320295   3.533   4.743  10.263  0.3871  0.5341  0.2623
  178SLPC   H3R20296   3.443   4.691  10.302  0.7362 -0.2284  0.0839
  178SLPC   H3S20297   3.617   4.701  10.323 -1.0573 -3.6453 -0.3433
  178SLPC   C2420298   3.554   4.691  10.121 -0.5022 -0.2092 -0.1813
  178SLPC   H4R20299   3.560   4.581  10.136  0.1000 -0.3681 -1.4733
  178SLPC   H4S20300   3.647   4.743  10.090 -0.6832  0.3595  0.2115
  178SLPC   C2520301   3.443   4.726  10.021 -0.2612  0.6837  0.1858
  178SLPC   H5R20302   3.456   4.833   9.998  3.1403  0.2841 -0.3573
  178SLPC   H5S20303   3.342   4.699  10.058  0.3580  1.4309  2.6682
  178SLPC   C2620304   3.471   4.649   9.888  0.2365  0.0845  0.4858
  178SLPC   H6R20305   3.483   4.540   9.903  1.6465  0.1620  0.0605
  178SLPC   H6S20306   3.575   4.680   9.865  0.5571 -0.1858  1.5211
  178SLPC   C2720307   3.370   4.670   9.773 -0.5034  0.2010 -0.3880
  178SLPC   H7R20308   3.342   4.773   9.744 -1.7813 -0.4902 -1.8104
  178SLPC   H7S20309   3.282   4.624   9.823 -1.6103  1.6848 -0.9057
  178SLPC   C2820310   3.394   4.599   9.644  0.6347  0.5222  0.4884
  178SLPC   H8R20311   3.297   4.581   9.593 -0.1453 -1.4222  2.5126
  178SLPC   H8S20312   3.423   4.495   9.669  0.0201  0.4412  0.8778
  178SLPC   C2920313   3.488   4.670   9.558 -0.0851 -0.1018  0.1558
  178SLPC   H9R20314   3.558   4.740   9.606 -1.2628  0.8373  0.5447
  178SLPC  C21020315   3.476   4.667   9.426  0.4583 -0.3471  0.4804
  178SLPC  H10R20316   3.560   4.716   9.374 -0.1179  0.0254 -0.1066
  178SLPC  C21120317   3.386   4.589   9.336  0.0952  0.9654 -0.8208
  178SLPC  H11R20318   3.325   4.660   9.276 -4.2540  0.2165  2.2217
  178SLPC  H11S20319   3.313   4.525   9.390  1.7348  0.7268  1.2345
  178SLPC  C21220320   3.461   4.489   9.263  0.3945  0.4609 -0.0259
  178SLPC  H12R20321   3.487   4.388   9.299  1.8687  0.7952 -0.0966
  178SLPC  C21320322   3.494   4.501   9.134 -0.0190 -0.6178  0.3369
  178SLPC  H13R20323   3.552   4.418   9.090  1.7684  0.7465  0.0141
  178SLPC  C21420324   3.472   4.619   9.044 -0.3939 -0.1976 -0.4928
  178SLPC  H14R20325   3.571   4.647   9.004  1.4681 -1.3400  2.9668
  178SLPC  H14S20326   3.437   4.710   9.097 -0.2103 -1.0467  1.1650
  178SLPC  C21520327   3.385   4.587   8.921 -0.0696 -0.6428  0.0296
  178SLPC  H15R20328   3.287   4.560   8.969 -0.3707  1.8574  0.9782
  178SLPC  H15S20329   3.410   4.485   8.885  1.1632 -1.2185  2.2984
  178SLPC  C21620330   3.383   4.702   8.822  1.0375  0.4583 -0.4797
  178SLPC  H16R20331   3.469   4.700   8.752  0.2836 -3.6326 -1.5426
  178SLPC  H16S20332   3.388   4.796   8.881 -1.3265  0.4228 -0.1446
  178SLPC  C21720333   3.261   4.695   8.728 -0.5381  0.4560 -0.4475
  178SLPC  H17R20334   3.269   4.782   8.660  0.6073 -1.7661 -3.3918
  178SLPC  H17S20335   3.168   4.701   8.789 -0.8583  1.2484 -0.9915
  178SLPC  C21820336   3.251   4.570   8.642  0.4099  0.3589  0.0500
  178SLPC  H18R20337   3.231   4.478   8.700  0.2400 -0.4024 -1.1684
  178SLPC  H18S20338   3.340   4.560   8.576 -1.1151 -0.2264 -2.0136
  178SLPC  H18T20339   3.158   4.569   8.581 -0.8102 -2.0552  1.7725
  178SLPC   C3320340   3.625   5.373  10.070 -0.1379 -0.1374  0.1090
  178SLPC   H3X20341   3.719   5.426  10.098 -1.5217  1.8413  1.2038
  178SLPC   H3Y20342   3.583   5.427   9.982  0.8050 -2.9721 -2.2538
  178SLPC   C3420343   3.634   5.226  10.034  0.5306  0.0847  0.1810
  178SLPC   H4X20344   3.640   5.171  10.130  1.2940 -0.7227 -0.3230
  178SLPC   H4Y20345   3.723   5.203   9.973 -0.6568 -0.3957 -1.4524
  178SLPC   C3520346   3.522   5.165   9.957  1.5108 -0.4943 -0.2640
  178SLPC   H5X20347   3.422   5.193   9.997  1.2340  0.2480 -1.4354
  178SLPC   H5Y20348   3.539   5.055   9.965  2.3420 -0.5510 -2.2590
  178SLPC   C3620349   3.519   5.208   9.806  1.0113 -0.4308 -1.0018
  178SLPC   H6X20350   3.617   5.194   9.755  0.5255 -1.8296 -1.5947
  178SLPC   H6Y20351   3.498   5.316   9.815 -0.2138 -0.7292 -0.0059
  178SLPC   C3720352   3.408   5.130   9.739  0.0035  0.7427 -0.2061
  178SLPC   H7X20353   3.319   5.131   9.805  0.3468 -0.1596  0.2844
  178SLPC   H7Y20354   3.437   5.025   9.716 -4.0723 -0.1446 -2.1774
  178SLPC   C3820355   3.364   5.176   9.596  0.4840 -0.1565 -0.2949
  178SLPC   H8X20356   3.390   5.284   9.586 -1.8359  0.7438  2.1715
  178SLPC   H8Y20357   3.254   5.178   9.579  0.9889  1.7282 -5.0718
  178SLPC   C3920358   3.408   5.081   9.478 -0.3462  0.1698 -0.2956
  178SLPC   H9X20359   3.357   4.982   9.468  2.0976 -1.0394 -1.5968
  178SLPC   H9Y20360   3.517   5.066   9.487 -0.4131 -0.5472 -0.6384
  178SLPC  C31020361   3.385   5.148   9.336 -0.3968 -0.2426  0.4307
  178SLPC  H10X20362   3.437   5.246   9.333  0.3421 -0.6080  0.8921
  178SLPC  H10Y20363   3.276   5.167   9.337 -0.5087 -0.6477 -1.2386
  178SLPC  C31120364   3.421   5.053   9.222 -0.0603 -0.8841 -0.6414
  178SLPC  H11X20365   3.353   4.965   9.214 -0.1690 -0.6006 -4.7716
  178SLPC  H11Y20366   3.524   5.014   9.232 -0.2797 -1.5531 -0.9190
  178SLPC  C31220367   3.429   5.109   9.076 -0.2710  0.2564 -1.0908
  178SLPC  H12X20368   3.334   5.159   9.047 -1.2292  0.3028  1.7951
  178SLPC  H12Y20369   3.448   5.019   9.014 -3.4381 -3.0688  2.2149
  178SLPC  C31320370   3.545   5.213   9.060  0.1240 -0.3619  0.0396
  178SLPC  H13X20371   3.634   5.190   9.122  0.2450  2.9778  1.3178
  178SLPC  H13Y20372   3.509   5.309   9.101  2.2812 -0.0410  1.3177
  178SLPC  C31420373   3.593   5.215   8.911 -1.3339  0.9966 -0.4895
  178SLPC  H14X20374   3.521   5.230   8.828 -0.9871 -2.6009 -1.5969
  178SLPC  H14Y20375   3.640   5.119   8.879 -0.1802  1.0662  0.9003
  178SLPC  C31520376   3.694   5.327   8.883  0.6445 -0.2101  0.2398
  178SLPC  H15X20377   3.634   5.418   8.904  0.7937  0.2390 -1.1382
  178SLPC  H15Y20378   3.781   5.323   8.952  0.7796 -0.6994  0.0504
  178SLPC  C31620379   3.749   5.352   8.741 -0.3115  0.1832 -0.4684
  178SLPC  H16X20380   3.666   5.360   8.667 -1.0771 -2.9944 -0.0903
  178SLPC  H16Y20381   3.808   5.265   8.704  1.1663 -0.6687  3.3992
  178SLPC  C31720382   3.838   5.478   8.738 -0.2484  0.7562 -0.0600
  178SLPC  H17X20383   3.914   5.453   8.816  0.2812  0.8623 -0.5347
  178SLPC  H17Y20384   3.776   5.561   8.776 -3.0886 -1.2785  0.0772
  178SLPC  C31820385   3.909   5.502   8.604 -0.2970 -0.3158 -0.4272
  178SLPC  H18X20386   3.842   5.522   8.518  1.4627 -1.1417 -2.0466
  178SLPC  H18Y20387   3.968   5.409   8.589 -1.7195 -1.5579  1.1911
  178SLPC  H18Z20388   3.982   5.585   8.613 -0.0651 -0.5624  0.0157
  179SLPC     N20389   4.436   2.085  10.724 -0.6649  0.3687  0.7405
  179SLPC   C1320390   4.520   2.082  10.853  0.7116  0.4069 -0.2641
  179SLPC  H13A20391   4.601   2.012  10.838  1.2541  0.8943  0.3188
  179SLPC  H13B20392   4.567   2.179  10.858  1.0321  0.1997  0.9475
  179SLPC  H13C20393   4.476   2.042  10.943  0.8188  0.1862 -0.3090
  179SLPC   C1420394   4.508   2.176  10.625 -0.3846  0.9368 -0.2007
  179SLPC  H14A20395   4.497   2.278  10.658 -0.8814  0.1247  2.4099
  179SLPC  H14B20396   4.612   2.148  10.617 -0.1170  1.5222  1.0080
  179SLPC  H14C20397   4.480   2.159  10.522  0.7109  0.2940 -0.4097
  179SLPC   C1520398   4.305   2.141  10.757  0.1762  0.1763  0.1389
  179SLPC  H15A20399   4.316   2.241  10.794  1.2160  0.0232  0.2661
  179SLPC  H15B20400   4.246   2.148  10.666  1.8545  0.6253 -0.9656
  179SLPC  H15C20401   4.259   2.082  10.835  0.2733  1.1814  0.9681
  179SLPC   C1220402   4.423   1.937  10.673  0.3862  0.3506 -0.4381
  179SLPC  H12A20403   4.415   1.872  10.760  0.3815 -1.3127 -1.6244
  179SLPC  H12B20404   4.514   1.920  10.616  1.2032  1.0606  0.6077
  179SLPC   C1120405   4.307   1.906  10.578 -0.2014 -0.0447  0.0789
  179SLPC  H11A20406   4.213   1.934  10.629 -0.6193 -2.7179  0.9254
  179SLPC  H11B20407   4.297   1.799  10.551 -4.6753  0.4284 -0.9030
  179SLPC     P20408   4.400   1.940  10.341 -0.1664  0.2864 -0.1687
  179SLPC   O1320409   4.368   2.037  10.236 -0.2379  0.6559 -0.2937
  179SLPC   O1420410   4.541   1.917  10.378 -0.0037  0.0226  0.1539
  179SLPC   O1220411   4.318   1.984  10.463 -0.5924 -0.2272  0.0999
  179SLPC   O1120412   4.334   1.799  10.301 -0.3736 -0.4447 -0.0912
  179SLPC    C120413   4.200   1.758  10.288  0.7018 -0.3833  0.0412
  179SLPC    HA20414   4.176   1.671  10.353  1.2397  0.6703  1.7465
  179SLPC    HB20415   4.136   1.845  10.318  1.0303  0.1457 -0.7480
  179SLPC    C220416   4.166   1.713  10.146 -0.9029  0.0896 -0.6825
  179SLPC    HS20417   4.059   1.683  10.141 -1.6423  1.9749  1.8792
  179SLPC   O2120418   4.262   1.620  10.098 -0.2657 -0.2939 -0.1392
  179SLPC   C2120419   4.230   1.488  10.115  0.4778  0.0779  0.0608
  179SLPC   O2220420   4.134   1.448  10.183  0.0312 -0.1918  0.5040
  179SLPC   C2220421   4.313   1.406  10.021 -0.2418  0.1544  0.1210
  179SLPC   H2R20422   4.413   1.395  10.068 -0.7148  0.3763  1.2151
  179SLPC   H2S20423   4.266   1.306  10.011  0.5468 -0.5624  2.7346
  179SLPC    C320424   4.183   1.839  10.056 -0.6606  0.1702  0.2372
  179SLPC    HX20425   4.291   1.860  10.045 -0.4315 -0.8870  0.3111
  179SLPC    HY20426   4.121   1.916  10.106 -0.9714 -0.2442  0.5047
  179SLPC   O3120427   4.134   1.816   9.926  0.1481 -0.2552 -0.0469
  179SLPC   C3120428   4.130   1.926   9.850  0.3242 -0.4260  0.7226
  179SLPC   O3220429   4.159   2.039   9.891 -0.5738  0.7696 -0.2690
  179SLPC   C3220430   4.074   1.897   9.713  0.1516 -0.2927  0.1861
  179SLPC   H2X20431   3.973   1.943   9.703  0.5478  0.9158  1.4682
  179SLPC   H2Y20432   4.079   1.786   9.703 -0.7779 -0.4487  1.2940
  179SLPC   C2320433   4.336   1.468   9.880  0.1549 -0.7514 -0.4034
  179SLPC   H3R20434   4.431   1.423   9.843 -0.5800 -1.6555 -1.2385
  179SLPC   H3S20435   4.357   1.577   9.883 -1.1503 -0.5094  1.3419
  179SLPC   C2420436   4.211   1.455   9.786  0.3849 -0.0359  0.1979
  179SLPC   H4R20437   4.126   1.520   9.816  0.1903  0.1347 -0.6920
  179SLPC   H4S20438   4.179   1.349   9.786  0.8901 -0.2085 -1.4800
  179SLPC   C2520439   4.239   1.500   9.642  0.6305 -1.4128  0.0623
  179SLPC   H5R20440   4.292   1.595   9.624 -0.0287 -1.5834 -3.6868
  179SLPC   H5S20441   4.147   1.504   9.579  2.1786  1.6729 -2.2873
  179SLPC   C2620442   4.321   1.387   9.564  0.0157 -0.2650 -0.9584
  179SLPC   H6R20443   4.391   1.346   9.640  0.1294  2.3245  0.4424
  179SLPC   H6S20444   4.378   1.446   9.488 -0.0253  0.0151 -0.7717
  179SLPC   C2720445   4.222   1.295   9.496 -0.2254  0.4128 -0.1635
  179SLPC   H7R20446   4.154   1.356   9.433  0.7340  2.8315  0.9903
  179SLPC   H7S20447   4.150   1.251   9.568  1.7657 -0.0268  1.6727
  179SLPC   C2820448   4.302   1.185   9.416  0.2014  0.2724  0.5332
  179SLPC   H8R20449   4.222   1.128   9.363  0.2033  1.1137 -0.4069
  179SLPC   H8S20450   4.355   1.119   9.488 -0.2723  0.5016  1.1013
  179SLPC   C2920451   4.405   1.237   9.318  0.1140 -0.2709  0.3622
  179SLPC   H9R20452   4.453   1.320   9.370  1.4335 -0.3829 -0.6340
  179SLPC  C21020453   4.438   1.209   9.191 -0.6216  0.0609 -0.0352
  179SLPC  H10R20454   4.512   1.273   9.141 -0.3589  1.2123  1.7498
  179SLPC  C21120455   4.371   1.098   9.112 -0.3915  0.6033  0.3035
  179SLPC  H11R20456   4.295   1.045   9.172 -0.1981  0.2900  0.2724
  179SLPC  H11S20457   4.453   1.026   9.089 -2.0125 -0.8173 -1.3814
  179SLPC  C21220458   4.324   1.157   8.982  0.7532  0.4837 -0.8774
  179SLPC  H12R20459   4.288   1.261   8.986  1.3787  0.6676  0.1164
  179SLPC  C21320460   4.342   1.113   8.854  0.9189  0.4198  0.2996
  179SLPC  H13R20461   4.301   1.173   8.771  1.4059  0.2589 -0.0587
  179SLPC  C21420462   4.402   0.986   8.811 -0.0224  0.5576  0.5225
  179SLPC  H14R20463   4.479   0.958   8.886 -0.2743  2.6062  1.6168
  179SLPC  H14S20464   4.456   1.010   8.716  1.8150  1.1861  1.6740
  179SLPC  C21520465   4.316   0.862   8.796  0.5059 -0.0495  0.4074
  179SLPC  H15R20466   4.236   0.893   8.726 -0.6955 -0.8210  1.4044
  179SLPC  H15S20467   4.278   0.815   8.889 -4.3225 -4.9095 -3.3887
  179SLPC  C21620468   4.379   0.750   8.726  0.5738 -0.0602  0.0443
  179SLPC  H16R20469   4.464   0.697   8.775  0.1534  0.4248  1.3367
  179SLPC  H16S20470   4.423   0.789   8.632 -0.5370 -3.2322 -1.9623
  179SLPC  C21720471   4.271   0.638   8.690 -0.2116 -0.4400  0.1788
  179SLPC  H17R20472   4.208   0.682   8.610 -5.0306 -3.8456  1.6177
  179SLPC  H17S20473   4.207   0.621   8.780 -0.5823  3.1364  0.7488
  179SLPC  C21820474   4.316   0.508   8.631  0.2220  0.2722  0.9889
  179SLPC  H18R20475   4.338   0.518   8.523 -0.0916  0.6376  0.9566
  179SLPC  H18S20476   4.228   0.440   8.627  0.2320  0.2062  1.6906
  179SLPC  H18T20477   4.399   0.464   8.690  1.3062 -0.4138 -0.9579
  179SLPC   C3320478   4.160   1.965   9.598  0.5974  0.0430 -0.4641
  179SLPC   H3X20479   4.269   1.946   9.587  0.4199 -1.9102  0.7714
  179SLPC   H3Y20480   4.125   2.070   9.593 -0.5146 -0.3446 -1.0932
  179SLPC   C3420481   4.096   1.905   9.472  0.6701  0.5418 -0.6838
  179SLPC   H4X20482   3.985   1.901   9.476  0.7294 -1.7724  2.9153
  179SLPC   H4Y20483   4.131   1.800   9.459  0.4199  0.2117  1.1185
  179SLPC   C3520484   4.145   1.982   9.342 -0.3295  0.4063 -0.4395
  179SLPC   H5X20485   4.254   1.968   9.358 -0.7541 -1.3152  1.4167
  179SLPC   H5Y20486   4.108   2.086   9.346 -1.4654  0.0399 -0.8479
  179SLPC   C3620487   4.095   1.914   9.212  0.1590 -0.1896  0.0292
  179SLPC   H6X20488   3.993   1.953   9.192 -0.1520 -1.0838 -0.1873
  179SLPC   H6Y20489   4.098   1.805   9.232  0.3235 -0.4246 -1.1987
  179SLPC   C3720490   4.177   1.962   9.089 -0.7482  0.2956  0.8477
  179SLPC   H7X20491   4.279   1.922   9.106 -1.2825 -1.8956 -0.6946
  179SLPC   H7Y20492   4.183   2.073   9.100 -2.5430  0.6647 -1.1957
  179SLPC   C3820493   4.117   1.921   8.956 -0.1207  0.2356  0.6203
  179SLPC   H8X20494   4.035   1.990   8.927 -0.2921  1.2989  3.3306
  179SLPC   H8Y20495   4.078   1.817   8.969  0.5579  0.1481  2.0940
  179SLPC   C3920496   4.208   1.932   8.840 -0.8210 -0.1296 -0.0548
  179SLPC   H9X20497   4.308   1.887   8.856 -1.5129 -0.9386  2.5959
  179SLPC   H9Y20498   4.238   2.039   8.841 -2.2993  0.3195 -0.7510
  179SLPC  C31020499   4.165   1.869   8.706  0.1476  0.2289 -0.0788
  179SLPC  H10X20500   4.174   1.759   8.721  1.9702  0.7047  3.3588
  179SLPC  H10Y20501   4.235   1.895   8.624 -1.2910 -0.9837 -1.7848
  179SLPC  C31120502   4.021   1.919   8.670  0.1964  0.1097  0.7297
  179SLPC  H11X20503   4.023   2.029   8.660  0.1270  0.0952  0.5451
  179SLPC  H11Y20504   3.946   1.892   8.747  2.0437 -0.9441  2.2439
  179SLPC  C31220505   3.970   1.861   8.537 -0.8900 -0.0454 -0.3809
  179SLPC  H12X20506   3.863   1.892   8.533 -0.0897  2.8681 -1.8499
  179SLPC  H12Y20507   3.975   1.750   8.533  2.3863 -0.1943  2.5601
  179SLPC  C31320508   4.055   1.913   8.424 -0.1300 -0.4115  0.6661
  179SLPC  H13X20509   4.152   1.861   8.412 -0.0547 -0.0054 -0.6303
  179SLPC  H13Y20510   4.072   2.021   8.445  0.9171  0.2488 -2.9260
  179SLPC  C31420511   3.972   1.909   8.294 -0.0509  0.8376 -0.4745
  179SLPC  H14X20512   3.878   1.953   8.332 -0.7003 -2.1314  1.8038
  179SLPC  H14Y20513   3.954   1.801   8.275  1.9520  0.2577  0.6306
  179SLPC  C31520514   4.031   1.985   8.172  0.0363 -0.5292 -0.0078
  179SLPC  H15X20515   4.025   2.090   8.207  0.8419 -1.2600  2.5951
  179SLPC  H15Y20516   3.956   1.968   8.092 -2.7125  0.6466  2.1217
  179SLPC  C31620517   4.174   1.937   8.143  0.3407 -0.5946 -0.1089
  179SLPC  H16X20518   4.188   1.827   8.137 -1.7599 -0.9189  0.3045
  179SLPC  H16Y20519   4.239   1.984   8.221  0.6537  1.9447 -1.7663
  179SLPC  C31720520   4.229   2.018   8.025  1.0468 -0.0925  0.0665
  179SLPC  H17X20521   4.179   2.118   8.028  0.0277 -0.6044  0.9776
  179SLPC  H17Y20522   4.199   1.981   7.924  2.4296  0.3224 -0.5201
  179SLPC  C31820523   4.373   2.059   8.021  0.0880 -0.0710  0.2908
  179SLPC  H18X20524   4.417   2.108   7.931  0.5431 -0.6505  0.1907
  179SLPC  H18Y20525   4.431   1.964   8.031 -0.4641 -0.3585  0.7896
  179SLPC  H18Z20526   4.392   2.126   8.107  2.4827 -3.1853  2.4503
  180SLPC     N20527   6.002   4.970  10.739  0.6272 -0.7628  0.6002
  180SLPC   C1320528   6.039   4.911  10.868 -0.2161  0.0200  0.1197
  180SLPC  H13A20529   5.999   4.812  10.887 -1.5605  0.2766 -1.1901
  180SLPC  H13B20530   6.146   4.902  10.859 -0.4455 -1.2701 -2.1526
  180SLPC  H13C20531   6.021   4.978  10.950 -2.3480  1.0861 -1.1365
  180SLPC   C1420532   6.074   4.903  10.627 -0.5654  0.3669 -0.5252
  180SLPC  H14A20533   6.054   4.798  10.611 -0.3194  0.7345 -4.1876
  180SLPC  H14B20534   6.039   4.948  10.535 -0.0552 -0.0540 -0.9284
  180SLPC  H14C20535   6.182   4.902  10.631 -0.5571 -2.0763  0.4295
  180SLPC   C1520536   6.052   5.108  10.721 -0.1095  0.5730  0.3167
  180SLPC  H15A20537   6.025   5.149  10.624 -0.1361  1.7920  0.8253
  180SLPC  H15B20538   6.009   5.186  10.781 -2.6342  0.5265 -1.2805
  180SLPC  H15C20539   6.159   5.105  10.738 -0.0896  0.2893  0.1552
  180SLPC   C1220540   5.853   4.977  10.713  0.6107 -0.3884 -0.3936
  180SLPC  H12A20541   5.806   5.024  10.798 -0.2943  1.0522 -1.6338
  180SLPC  H12B20542   5.817   4.876  10.721 -2.2671  0.5378 -0.2848
  180SLPC   C1120543   5.784   5.034  10.587  0.5510 -0.7857 -0.1486
  180SLPC  H11A20544   5.674   5.024  10.602  0.5803 -2.0978 -0.6826
  180SLPC  H11B20545   5.798   4.971  10.497  0.2932 -1.9460  0.5986
  180SLPC     P20546   5.758   5.294  10.633  0.2186 -0.2698  0.3583
  180SLPC   O1320547   5.685   5.253  10.753 -0.1692  0.0820 -0.2218
  180SLPC   O1420548   5.866   5.399  10.643  0.0907 -0.3861  0.3450
  180SLPC   O1220549   5.823   5.170  10.567 -0.1228  0.8340  0.5188
  180SLPC   O1120550   5.641   5.339  10.530  0.3145 -0.0806 -0.2148
  180SLPC    C120551   5.645   5.424  10.417  0.4244  0.2256 -0.5224
  180SLPC    HA20552   5.541   5.459  10.401  0.4904  0.7231  0.0991
  180SLPC    HB20553   5.713   5.511  10.430  0.3678 -0.0184  1.6957
  180SLPC    C220554   5.687   5.353  10.283  0.0234 -0.0341  0.0168
  180SLPC    HS20555   5.651   5.248  10.276  1.5106 -0.4444 -2.5941
  180SLPC   O2120556   5.832   5.356  10.276 -0.0215  0.1481 -0.5410
  180SLPC   C2120557   5.898   5.244  10.282  1.2436 -0.1999  0.1781
  180SLPC   O2220558   5.852   5.135  10.267  0.1252  0.1201  0.6303
  180SLPC   C2220559   6.047   5.272  10.309 -0.7082  0.4043  0.3455
  180SLPC   H2R20560   6.068   5.380  10.328  2.2927  0.0498 -0.4041
  180SLPC   H2S20561   6.085   5.217  10.397 -1.2508  1.6683  1.4059
  180SLPC    C320562   5.641   5.441  10.165 -0.1048 -0.6007 -0.2420
  180SLPC    HX20563   5.677   5.385  10.075  0.8271 -0.3195 -0.0478
  180SLPC    HY20564   5.700   5.534  10.152  1.0284 -1.2624  0.0365
  180SLPC   O3120565   5.497   5.445  10.166  0.0308  0.0848  0.0899
  180SLPC   C3120566   5.454   5.564  10.190  0.3687 -0.1515  0.2161
  180SLPC   O3220567   5.522   5.660  10.222 -0.4269  0.2527  0.0330
  180SLPC   C3220568   5.303   5.570  10.166  0.5064 -0.3797  0.3391
  180SLPC   H2X20569   5.263   5.660  10.216 -0.7505  0.8501 -2.6737
  180SLPC   H2Y20570   5.255   5.480  10.210 -0.7049 -1.4948 -2.9744
  180SLPC   C2320571   6.147   5.227  10.197  0.1285  0.1214  0.5251
  180SLPC   H3R20572   6.138   5.122  10.162  0.7109 -0.2256  1.3780
  180SLPC   H3S20573   6.248   5.262  10.227 -0.3161  1.3248  0.6661
  180SLPC   C2420574   6.129   5.302  10.061 -0.0534  0.5447  0.5839
  180SLPC   H4R20575   6.127   5.409  10.090 -0.4478  0.7970 -0.3123
  180SLPC   H4S20576   6.033   5.275  10.011  1.2235 -0.5230 -1.4580
  180SLPC   C2520577   6.246   5.269   9.964  0.5317 -0.8004 -0.3764
  180SLPC   H5R20578   6.243   5.162   9.934 -0.3982 -0.0818 -3.2223
  180SLPC   H5S20579   6.337   5.293  10.021  0.1184 -0.0869 -0.0072
  180SLPC   C2620580   6.234   5.351   9.830  0.1999 -0.1372 -0.2318
  180SLPC   H6R20581   6.239   5.460   9.849 -1.5717  0.1655 -1.2274
  180SLPC   H6S20582   6.139   5.337   9.774  0.7555  1.6355 -1.7107
  180SLPC   C2720583   6.348   5.311   9.738 -0.5148  0.0756  1.0248
  180SLPC   H7R20584   6.334   5.207   9.702  0.6984  0.1060  0.4196
  180SLPC   H7S20585   6.445   5.316   9.792 -0.7614  0.3247  1.4488
  180SLPC   C2820586   6.361   5.417   9.619  0.3810 -0.1462 -0.0522
  180SLPC   H8R20587   6.381   5.514   9.670  1.4453 -0.1954 -0.3525
  180SLPC   H8S20588   6.268   5.441   9.565  0.6714  1.6011  0.1785
  180SLPC   C2920589   6.476   5.386   9.517 -0.1111 -0.1928 -0.4777
  180SLPC   H9R20590   6.578   5.399   9.556 -0.6401 -0.1814  0.9789
  180SLPC  C21020591   6.457   5.331   9.397 -0.9077  0.4656  0.5972
  180SLPC  H10R20592   6.542   5.312   9.329 -3.5340 -0.5182 -2.6795
  180SLPC  C21120593   6.322   5.295   9.343  0.1468  0.6036 -0.7670
  180SLPC  H11R20594   6.277   5.389   9.304 -1.4252  0.4572  0.5694
  180SLPC  H11S20595   6.250   5.268   9.423  2.9672 -0.6144  1.5473
  180SLPC  C21220596   6.326   5.184   9.240  0.2711 -0.4022 -0.2704
  180SLPC  H12R20597   6.266   5.095   9.266  1.9906 -1.2599  0.9202
  180SLPC  C21320598   6.386   5.177   9.125 -0.1674 -0.6081  0.9022
  180SLPC  H13R20599   6.380   5.084   9.066  0.7781  0.8248 -1.6302
  180SLPC  C21420600   6.471   5.282   9.065  0.1505  0.0800  0.8624
  180SLPC  H14R20601   6.576   5.250   9.083  0.4102  0.7240  0.5192
  180SLPC  H14S20602   6.466   5.377   9.121 -1.0510  0.6383 -0.1464
  180SLPC  C21520603   6.447   5.300   8.911 -0.3140  0.1385 -0.7887
  180SLPC  H15R20604   6.519   5.382   8.888 -0.4441  0.3272 -0.5272
  180SLPC  H15S20605   6.352   5.343   8.872 -1.1444 -1.3592 -0.4850
  180SLPC  C21620606   6.482   5.179   8.827  0.1031  0.0769 -0.4251
  180SLPC  H16R20607   6.391   5.116   8.833 -0.0057  0.3705  1.3718
  180SLPC  H16S20608   6.570   5.117   8.856 -0.9983 -1.7965 -0.8882
  180SLPC  C21720609   6.523   5.209   8.675 -0.2571  0.4562 -0.1610
  180SLPC  H17R20610   6.529   5.115   8.616 -2.6495  1.3203 -1.9324
  180SLPC  H17S20611   6.629   5.241   8.665  0.2491 -0.3236  2.1228
  180SLPC  C21820612   6.419   5.279   8.595  0.0859  0.0120 -0.1752
  180SLPC  H18R20613   6.459   5.298   8.493 -1.8490 -2.2737 -1.4630
  180SLPC  H18S20614   6.391   5.369   8.653  2.0014  0.0440  0.7937
  180SLPC  H18T20615   6.331   5.217   8.570 -0.2588 -0.2933  1.6548
  180SLPC   C3320616   5.273   5.562  10.011  0.0338  0.0683  0.0538
  180SLPC   H3X20617   5.208   5.474   9.996  1.8806 -1.3004 -0.3713
  180SLPC   H3Y20618   5.368   5.566   9.952  0.6707  1.6240  1.1209
  180SLPC   C3420619   5.179   5.669   9.958  0.4866  0.1311 -0.0463
  180SLPC   H4X20620   5.222   5.771   9.971 -1.8584  1.3258 -1.0278
  180SLPC   H4Y20621   5.086   5.670  10.019  0.5290  2.5153  0.0662
  180SLPC   C3520622   5.146   5.664   9.813 -0.3954  0.0179 -0.8157
  180SLPC   H5X20623   5.241   5.676   9.756  1.3455  0.1753  1.9479
  180SLPC   H5Y20624   5.083   5.749   9.781 -0.5082  0.0494 -0.5093
  180SLPC   C3620625   5.065   5.536   9.773  0.0201 -0.1898 -0.1285
  180SLPC   H6X20626   4.975   5.531   9.839 -0.7355 -0.4555 -1.1516
  180SLPC   H6Y20627   5.134   5.450   9.775  1.2427  0.7601 -0.3331
  180SLPC   C3720628   5.014   5.558   9.631 -0.3135 -0.3562  0.4590
  180SLPC   H7X20629   4.975   5.660   9.609 -0.5178 -0.8010 -1.5126
  180SLPC   H7Y20630   4.920   5.498   9.627 -1.0520  0.7149  1.0339
  180SLPC   C3820631   5.109   5.506   9.525  0.1227 -0.2834  0.0762
  180SLPC   H8X20632   5.142   5.403   9.550  0.1366 -0.0237  1.1989
  180SLPC   H8Y20633   5.204   5.564   9.533  1.7541 -2.6509 -0.8159
  180SLPC   C3920634   5.042   5.503   9.391 -0.4972  0.5865  0.2405
  180SLPC   H9X20635   4.985   5.598   9.379 -2.6429 -0.7361 -0.4944
  180SLPC   H9Y20636   4.972   5.418   9.378 -0.3650  0.4224  0.5905
  180SLPC  C31020637   5.154   5.497   9.295 -0.4167  0.0312  0.5540
  180SLPC  H10X20638   5.207   5.400   9.292  0.1393  0.3500 -0.4272
  180SLPC  H10Y20639   5.231   5.573   9.319  2.1915 -2.6248  1.1902
  180SLPC  C31120640   5.114   5.505   9.147  0.6427  0.0866 -0.3660
  180SLPC  H11X20641   5.084   5.607   9.115  3.9222  0.7251 -1.8264
  180SLPC  H11Y20642   5.047   5.422   9.117  0.6596  0.8193 -2.6298
  180SLPC  C31220643   5.235   5.484   9.054 -0.5092 -0.1196 -0.7702
  180SLPC  H12X20644   5.273   5.382   9.074 -0.9866  0.0175  1.0529
  180SLPC  H12Y20645   5.319   5.548   9.091 -0.8265 -0.8486  1.3749
  180SLPC  C31320646   5.193   5.518   8.914  0.4966 -0.5070  0.4567
  180SLPC  H13X20647   5.138   5.614   8.919 -2.0922 -1.9713  3.3547
  180SLPC  H13Y20648   5.113   5.446   8.885  0.7023 -0.7418  0.4708
  180SLPC  C31420649   5.303   5.520   8.807 -1.0398  0.4187 -0.2729
  180SLPC  H14X20650   5.383   5.590   8.840 -1.1326 -0.9179  3.1541
  180SLPC  H14Y20651   5.268   5.555   8.708  0.3312 -0.5638 -1.1311
  180SLPC  C31520652   5.358   5.384   8.781  0.0697 -0.2684  0.4311
  180SLPC  H15X20653   5.270   5.326   8.747 -1.4304  1.1253  1.7388
  180SLPC  H15Y20654   5.405   5.345   8.873  1.4362  1.1006  0.3629
  180SLPC  C31620655   5.459   5.385   8.664 -0.8817  0.3683  0.4310
  180SLPC  H16X20656   5.529   5.469   8.682 -1.0887  0.5505  0.3973
  180SLPC  H16Y20657   5.391   5.416   8.581 -0.9480  0.2202  0.4294
  180SLPC  C31720658   5.520   5.246   8.634  1.0592 -0.6370 -0.1174
  180SLPC  H17X20659   5.449   5.163   8.614 -0.2656  0.4861 -0.1802
  180SLPC  H17Y20660   5.578   5.208   8.721 -1.6909 -2.3052  1.1091
  180SLPC  C31820661   5.626   5.250   8.528 -0.7719  0.2231  0.7302
  180SLPC  H18X20662   5.693   5.338   8.542 -2.8201  1.9272  0.3003
  180SLPC  H18Y20663   5.579   5.266   8.429  2.3612 -0.3854 -0.9840
  180SLPC  H18Z20664   5.691   5.160   8.525  1.3929  1.6778  1.2220
  181SLPC     N20665   3.115   3.793  11.098  0.5647  0.1077  0.1345
  181SLPC   C1320666   3.115   3.931  11.152  0.5925 -0.1229  0.5445
  181SLPC  H13A20667   3.016   3.942  11.195 -0.2993 -1.4931 -1.0459
  181SLPC  H13B20668   3.188   3.946  11.231 -0.4344  1.9270  1.1838
  181SLPC  H13C20669   3.129   3.995  11.067 -1.5028 -0.1854  0.1027
  181SLPC   C1420670   3.035   3.698  11.186  0.2727  0.4004 -0.3297
  181SLPC  H14A20671   3.091   3.672  11.275  3.3420  0.1823 -2.2106
  181SLPC  H14B20672   2.948   3.754  11.218  0.6420  3.1043 -3.4983
  181SLPC  H14C20673   3.007   3.616  11.121 -1.1579  2.1450 -2.0560
  181SLPC   C1520674   3.251   3.736  11.103 -1.0145  0.2359  0.1670
  181SLPC  H15A20675   3.286   3.755  11.204  0.5647  0.9603 -0.4722
  181SLPC  H15B20676   3.254   3.628  11.093  0.8774 -0.1864  3.5844
  181SLPC  H15C20677   3.313   3.782  11.027 -1.4944  0.6318  0.0142
  181SLPC   C1220678   3.063   3.791  10.958 -0.2921  0.1270  0.3741
  181SLPC  H12A20679   3.132   3.838  10.890  1.0488 -0.0313  1.5933
  181SLPC  H12B20680   2.974   3.853  10.954  1.8217  3.3655 -0.2063
  181SLPC   C1120681   3.005   3.658  10.890 -0.9900 -0.3631 -0.2946
  181SLPC  H11A20682   3.086   3.585  10.872 -2.4054 -1.6470 -1.8212
  181SLPC  H11B20683   2.964   3.699  10.795 -1.0001  1.2598  0.3719
  181SLPC     P20684   2.809   3.485  10.894 -0.0638 -0.5140  0.1402
  181SLPC   O1320685   2.896   3.364  10.912 -0.3712  0.4233 -0.2204
  181SLPC   O1420686   2.671   3.491  10.951 -0.7121  0.4586  0.4706
  181SLPC   O1220687   2.894   3.601  10.955  0.2146  0.0240  0.0949
  181SLPC   O1120688   2.806   3.518  10.741  0.0814  0.0724 -1.0997
  181SLPC    C120689   2.755   3.642  10.684  0.7515 -0.3761  0.2211
  181SLPC    HA20690   2.757   3.728  10.755  0.6766 -0.5003  0.3731
  181SLPC    HB20691   2.824   3.660  10.598  0.5905 -0.1729  0.1326
  181SLPC    C220692   2.609   3.624  10.627 -0.2140  0.6814 -0.0848
  181SLPC    HS20693   2.551   3.609  10.720  1.8184  3.0012  1.6727
  181SLPC   O2120694   2.606   3.505  10.545 -0.1850 -0.3399  0.2936
  181SLPC   C2120695   2.494   3.474  10.490 -0.2110 -0.8314  0.0247
  181SLPC   O2220696   2.382   3.529  10.501 -0.1357 -0.2737 -0.0257
  181SLPC   C2220697   2.525   3.371  10.387  0.2817  0.2461  0.4532
  181SLPC   H2R20698   2.618   3.384  10.328  0.5329  1.1878  1.0311
  181SLPC   H2S20699   2.543   3.274  10.438 -0.1008 -0.6089 -0.9696
  181SLPC    C320700   2.558   3.755  10.549 -0.0631  0.2540 -0.1443
  181SLPC    HX20701   2.596   3.847  10.599 -2.8033  0.4822  1.7433
  181SLPC    HY20702   2.449   3.746  10.566 -0.2929  1.8014 -0.6274
  181SLPC   O3120703   2.587   3.755  10.404 -0.1245  0.1601 -0.0697
  181SLPC   C3120704   2.703   3.809  10.371 -0.6458 -0.7031 -0.1123
  181SLPC   O3220705   2.782   3.864  10.446  0.1814 -0.2311  0.4522
  181SLPC   C3220706   2.730   3.779  10.220 -0.4066 -0.0831 -0.4659
  181SLPC   H2X20707   2.646   3.829  10.168 -1.4916 -0.8631  0.4996
  181SLPC   H2Y20708   2.741   3.669  10.206 -2.8322 -0.7107  1.7708
  181SLPC   C2320709   2.395   3.358  10.301  0.1788  0.2597  0.0886
  181SLPC   H3R20710   2.375   3.461  10.265  2.6118 -0.0022 -2.3221
  181SLPC   H3S20711   2.308   3.339  10.366  0.3417  1.5452  0.7183
  181SLPC   C2420712   2.404   3.258  10.183  0.2699  0.1202 -0.3849
  181SLPC   H4R20713   2.492   3.283  10.120 -0.2064 -0.6474 -1.3852
  181SLPC   H4S20714   2.309   3.260  10.126  0.4841  1.1086 -0.7306
  181SLPC   C2520715   2.437   3.111  10.215  0.5019  0.0554 -0.3304
  181SLPC   H5R20716   2.358   3.067  10.279 -2.1699  1.7297 -2.2467
  181SLPC   H5S20717   2.538   3.106  10.262  0.1249 -0.4390  0.4438
  181SLPC   C2620718   2.447   3.022  10.087  0.0778  0.7816  0.5531
  181SLPC   H6R20719   2.537   3.040  10.025 -0.2635 -1.8818 -0.8446
  181SLPC   H6S20720   2.363   3.023  10.015  0.3722  0.0813  0.1916
  181SLPC   C2720721   2.472   2.873  10.116 -0.8036 -0.8827  0.1994
  181SLPC   H7R20722   2.389   2.829  10.175 -1.8768 -0.3412 -0.8618
  181SLPC   H7S20723   2.567   2.874  10.174 -0.2258 -0.8964 -0.7139
  181SLPC   C2820724   2.498   2.785   9.992  0.1215  0.3171  0.0191
  181SLPC   H8R20725   2.607   2.789   9.972  0.2131 -0.8622  0.2456
  181SLPC   H8S20726   2.449   2.832   9.904 -1.6474 -0.0053  0.7923
  181SLPC   C2920727   2.468   2.635   9.992  0.3845  1.0690 -0.6415
  181SLPC   H9R20728   2.515   2.584  10.077  0.1396  0.5499 -0.8110
  181SLPC  C21020729   2.393   2.575   9.900  0.0289  0.1885 -0.1280
  181SLPC  H10R20730   2.370   2.468   9.916  0.8634  0.0882  0.4686
  181SLPC  C21120731   2.322   2.646   9.785 -0.5294  0.1973  0.6656
  181SLPC  H11R20732   2.390   2.718   9.735 -1.1447  1.2242  1.2738
  181SLPC  H11S20733   2.251   2.712   9.840  0.7189  3.3248 -1.1662
  181SLPC  C21220734   2.252   2.555   9.682  0.5453  0.9258  0.4607
  181SLPC  H12R20735   2.147   2.527   9.700  0.3718  0.3592 -1.3010
  181SLPC  C21320736   2.311   2.508   9.572  0.5563 -1.1291  0.7603
  181SLPC  H13R20737   2.246   2.458   9.498  0.5148  1.8878 -1.4457
  181SLPC  C21420738   2.459   2.533   9.522 -0.2581  0.7976  0.1594
  181SLPC  H14R20739   2.496   2.437   9.479 -2.0654  0.2617 -0.3010
  181SLPC  H14S20740   2.529   2.549   9.606 -2.1687  0.2803  1.9343
  181SLPC  C21520741   2.467   2.656   9.422 -0.4020  0.5556 -0.3698
  181SLPC  H15R20742   2.575   2.684   9.414 -0.8956  2.6833 -0.0791
  181SLPC  H15S20743   2.423   2.747   9.467  0.1326  0.6482 -0.0288
  181SLPC  C21620744   2.408   2.620   9.281  0.0797 -0.4426  0.0346
  181SLPC  H16R20745   2.302   2.590   9.299  0.2562 -0.2297  1.5662
  181SLPC  H16S20746   2.469   2.542   9.233  1.1073 -0.7139  1.6993
  181SLPC  C21720747   2.406   2.744   9.183  0.0749 -0.3786  0.2114
  181SLPC  H17R20748   2.505   2.765   9.138 -0.3904 -0.4886 -0.9095
  181SLPC  H17S20749   2.384   2.839   9.235  1.0187 -1.3189  2.4298
  181SLPC  C21820750   2.304   2.732   9.062 -0.3321  0.2226 -0.3719
  181SLPC  H18R20751   2.289   2.833   9.017  0.4210 -0.3044 -1.8867
  181SLPC  H18S20752   2.209   2.689   9.100 -0.1681 -1.2192 -1.5065
  181SLPC  H18T20753   2.342   2.656   8.990  1.4422 -0.4755  1.2339
  181SLPC   C3320754   2.871   3.838  10.175 -0.2926  0.2523  0.0565
  181SLPC   H3X20755   2.954   3.798  10.235  0.7673  1.7955 -0.3202
  181SLPC   H3Y20756   2.880   3.948  10.192  0.8149 -0.0204  1.3936
  181SLPC   C3420757   2.902   3.802  10.024  0.4099  0.1807 -0.0314
  181SLPC   H4X20758   2.816   3.826   9.957  0.0375  0.8123  0.6608
  181SLPC   H4Y20759   2.917   3.692  10.016 -1.7352 -0.1152 -0.5918
  181SLPC   C3520760   3.018   3.896   9.971  0.2561  0.8344 -0.0076
  181SLPC   H5X20761   3.103   3.844  10.021 -0.3287 -0.6991 -0.5347
  181SLPC   H5Y20762   2.999   3.996  10.015 -0.3046  0.5306  0.4700
  181SLPC   C3620763   3.038   3.889   9.816  0.2206  0.4016  0.1875
  181SLPC   H6X20764   3.048   3.785   9.778 -1.1835 -0.0310  0.9338
  181SLPC   H6Y20765   3.133   3.945   9.800 -0.0880  0.3571 -2.1480
  181SLPC   C3720766   2.919   3.950   9.736 -0.0831  0.0976 -0.0819
  181SLPC   H7X20767   2.871   4.029   9.796 -0.5494  0.6844 -1.2068
  181SLPC   H7Y20768   2.835   3.878   9.731 -0.8811  1.0522 -0.5268
  181SLPC   C3820769   2.951   4.008   9.597  0.6525  0.5048  0.1089
  181SLPC   H8X20770   3.043   4.067   9.614  1.3432  0.6021 -3.3078
  181SLPC   H8Y20771   2.875   4.082   9.564  0.3194  0.6930  1.2290
  181SLPC   C3920772   2.992   3.900   9.492  0.5571 -0.8733  0.7118
  181SLPC   H9X20773   2.907   3.834   9.467  0.4749 -1.0249  1.3890
  181SLPC   H9Y20774   3.086   3.851   9.525  0.3383 -1.2746  0.7383
  181SLPC  C31020775   3.028   3.983   9.363 -0.4228 -0.1047 -0.2580
  181SLPC  H10X20776   3.117   4.045   9.386 -1.5551  1.5082 -0.0928
  181SLPC  H10Y20777   2.942   4.048   9.335 -1.8626 -1.5078  0.7104
  181SLPC  C31120778   3.061   3.883   9.252 -0.2146  0.4066  0.4692
  181SLPC  H11X20779   2.989   3.798   9.254  1.1747 -0.8919 -1.0845
  181SLPC  H11Y20780   3.162   3.843   9.273 -0.5141  0.9366  3.2885
  181SLPC  C31220781   3.042   3.939   9.109  0.0764  0.4520  0.8835
  181SLPC  H12X20782   3.119   4.016   9.086  0.1769 -0.0254 -0.4496
  181SLPC  H12Y20783   2.946   3.995   9.106  1.4315  2.9816  1.3066
  181SLPC  C31320784   3.040   3.826   9.005 -0.0192  0.1420  0.6303
  181SLPC  H13X20785   3.002   3.725   9.031 -1.4879  0.1433 -1.2597
  181SLPC  H13Y20786   3.147   3.796   8.995  0.2381  0.2608  2.6306
  181SLPC  C31420787   2.983   3.851   8.864  0.3004  0.0860  0.7079
  181SLPC  H14X20788   3.010   3.954   8.833 -1.5303  0.5520  0.5188
  181SLPC  H14Y20789   2.873   3.841   8.878  0.2861 -3.0990 -0.6433
  181SLPC  C31520790   3.019   3.743   8.762  0.2666 -0.4690  0.1661
  181SLPC  H15X20791   2.995   3.649   8.817 -0.4070  0.0912  0.8506
  181SLPC  H15Y20792   3.129   3.744   8.744  0.2351  0.8399 -0.0568
  181SLPC  C31620793   2.953   3.758   8.620 -0.0042  0.1152  0.2440
  181SLPC  H16X20794   2.963   3.862   8.583 -1.1785 -0.7664 -2.9251
  181SLPC  H16Y20795   2.846   3.732   8.635 -0.0568  0.2733  0.1432
  181SLPC  C31720796   3.005   3.663   8.508  0.3312  0.1475  0.1493
  181SLPC  H17X20797   3.023   3.560   8.546  0.8140  0.4918  0.8677
  181SLPC  H17Y20798   3.099   3.694   8.459  0.3727 -1.6630 -1.0073
  181SLPC  C31820799   2.909   3.641   8.392  0.0005 -0.4377  0.5866
  181SLPC  H18X20800   2.879   3.740   8.350 -1.4722  0.1291  2.7574
  181SLPC  H18Y20801   2.814   3.587   8.415  0.0625 -0.6932  0.2422
  181SLPC  H18Z20802   2.965   3.592   8.310  0.2061  0.7754 -0.0302
  182SLPC     N20803   6.792   4.284  10.859  0.5458  0.4417  0.3873
  182SLPC   C1320804   6.922   4.308  10.797 -0.7570  0.0455  0.2788
  182SLPC  H13A20805   6.908   4.395  10.735 -1.2083 -0.2181 -0.0047
  182SLPC  H13B20806   6.998   4.338  10.867 -1.4237  1.5130  0.4171
  182SLPC  H13C20807   6.950   4.220  10.741 -1.5228 -0.6337  0.9313
  182SLPC   C1420808   6.765   4.412  10.926  0.4824 -0.0981 -0.4164
  182SLPC  H14A20809   6.760   4.493  10.855 -1.5659 -0.5723 -0.8771
  182SLPC  H14B20810   6.684   4.407  10.997 -0.3005  1.7321 -1.0950
  182SLPC  H14C20811   6.854   4.436  10.982  0.8553 -2.3886  0.0446
  182SLPC   C1520812   6.807   4.175  10.963  0.1740 -0.4715 -0.3593
  182SLPC  H15A20813   6.728   4.180  11.036  1.7954 -0.0968  1.4489
  182SLPC  H15B20814   6.811   4.073  10.928  1.2408 -0.6442  0.2238
  182SLPC  H15C20815   6.891   4.191  11.029 -0.2216 -0.2896  0.1088
  182SLPC   C1220816   6.680   4.266  10.756 -0.5762  0.5966  0.0740
  182SLPC  H12A20817   6.583   4.289  10.796  0.0816  2.8760  0.5144
  182SLPC  H12B20818   6.685   4.163  10.724  0.5806  0.5085  0.5114
  182SLPC   C1120819   6.690   4.341  10.616 -0.3801  0.4893  0.1286
  182SLPC  H11A20820   6.626   4.293  10.539  0.3174 -0.5863  0.1940
  182SLPC  H11B20821   6.788   4.320  10.567 -0.4357  1.3106 -0.3560
  182SLPC     P20822   6.530   4.544  10.657 -0.0390  0.5078  0.0397
  182SLPC   O1320823   6.464   4.481  10.774  0.2620  0.4620 -0.5604
  182SLPC   O1420824   6.557   4.689  10.661 -0.0406 -0.2368 -0.2784
  182SLPC   O1220825   6.672   4.479  10.630 -0.0222 -0.9189  0.1623
  182SLPC   O1120826   6.444   4.534  10.531  0.1938 -0.4557 -0.2625
  182SLPC    C120827   6.495   4.563  10.398 -0.3752 -0.5754  0.7540
  182SLPC    HA20828   6.566   4.649  10.393 -0.3254 -0.6944 -1.9227
  182SLPC    HB20829   6.564   4.483  10.366 -0.0476  0.3960 -1.0868
  182SLPC    C220830   6.381   4.581  10.298 -0.3013 -0.3487  0.3984
  182SLPC    HS20831   6.341   4.477  10.300  0.2521 -0.5987 -0.7336
  182SLPC   O2120832   6.422   4.621  10.161  0.6239  0.2581  0.1750
  182SLPC   C2120833   6.490   4.520  10.100  0.8794 -0.1646 -0.7647
  182SLPC   O2220834   6.512   4.406  10.141  0.4625 -0.0653 -0.8628
  182SLPC   C2220835   6.529   4.568   9.967 -0.0035 -0.1927  0.0723
  182SLPC   H2R20836   6.439   4.608   9.916 -0.9664 -0.6199  1.3863
  182SLPC   H2S20837   6.606   4.647   9.978  0.7027 -0.8068 -0.3201
  182SLPC    C320838   6.270   4.685  10.343  0.2091 -0.0728  0.2885
  182SLPC    HX20839   6.324   4.774  10.383 -0.3674  1.5675 -2.3402
  182SLPC    HY20840   6.208   4.642  10.425  0.4493 -0.8002  0.1037
  182SLPC   O3120841   6.194   4.726  10.226  0.1825  0.1650 -0.0290
  182SLPC   C3120842   6.118   4.836  10.241  0.0261  0.5344 -0.5425
  182SLPC   O3220843   6.133   4.916  10.330 -0.0185 -0.5595  0.3833
  182SLPC   C3220844   6.021   4.858  10.117  0.1180  0.2373 -0.5647
  182SLPC   H2X20845   5.957   4.945  10.141  0.6535  0.4758  0.0140
  182SLPC   H2Y20846   5.957   4.766  10.113  1.2939 -0.5992 -0.6274
  182SLPC   C2320847   6.575   4.448   9.877  0.3283 -0.5362  0.2169
  182SLPC   H3R20848   6.512   4.357   9.882 -0.3308 -0.1417 -0.6663
  182SLPC   H3S20849   6.676   4.411   9.905  1.2539 -0.7099 -2.9452
  182SLPC   C2420850   6.591   4.487   9.731  0.5638 -0.2982  0.9268
  182SLPC   H4R20851   6.649   4.582   9.729 -0.2130  0.3127  3.6370
  182SLPC   H4S20852   6.487   4.512   9.701  1.0483 -0.4059 -0.9482
  182SLPC   C2520853   6.621   4.369   9.641 -0.4875  0.5267  0.0027
  182SLPC   H5R20854   6.550   4.283   9.651  1.0366 -0.9627 -1.3557
  182SLPC   H5S20855   6.720   4.325   9.666 -1.0895 -1.0902 -0.2893
  182SLPC   C2620856   6.644   4.394   9.495  0.8197 -0.6121 -0.0372
  182SLPC   H6R20857   6.697   4.489   9.476  3.0470 -1.7147  0.3406
  182SLPC   H6S20858   6.553   4.410   9.433  1.2202  0.0084 -0.4705
  182SLPC   C2720859   6.741   4.297   9.428  0.1214  0.0836  0.4740
  182SLPC   H7R20860   6.686   4.200   9.423  2.0842 -1.0539 -0.0629
  182SLPC   H7S20861   6.823   4.266   9.496  0.8790  2.0128  0.4951
  182SLPC   C2820862   6.786   4.332   9.285  0.1144 -0.1390  0.3707
  182SLPC   H8R20863   6.862   4.258   9.251  1.4614  0.7408  1.3408
  182SLPC   H8S20864   6.836   4.432   9.285 -0.3264  0.0813  0.7353
  182SLPC   C2920865   6.673   4.342   9.194  0.5608 -0.3283 -0.3953
  182SLPC   H9R20866   6.602   4.258   9.186  0.0992  0.0782 -0.6995
  182SLPC  C21020867   6.637   4.448   9.122  0.1291 -0.1732 -0.8301
  182SLPC  H10R20868   6.549   4.426   9.060 -1.2683  0.8303  0.6861
  182SLPC  C21120869   6.696   4.585   9.106  0.0327 -0.7092 -0.3370
  182SLPC  H11R20870   6.758   4.614   9.194 -2.3291 -1.3770  1.6736
  182SLPC  H11S20871   6.615   4.661   9.105 -0.0563 -0.7998 -1.6979
  182SLPC  C21220872   6.776   4.595   8.977 -1.0999 -0.9119  0.2912
  182SLPC  H12R20873   6.875   4.547   8.979 -1.1964 -1.0927  0.8253
  182SLPC  C21320874   6.740   4.669   8.865 -0.3728 -0.3396  0.0750
  182SLPC  H13R20875   6.808   4.677   8.779 -0.3345  2.1865  0.2533
  182SLPC  C21420876   6.612   4.751   8.833 -0.2878  0.5115  0.5535
  182SLPC  H14R20877   6.631   4.859   8.814  0.0383  0.4138  0.3000
  182SLPC  H14S20878   6.549   4.753   8.924  0.3826  1.7431  1.0091
  182SLPC  C21520879   6.546   4.680   8.714 -0.3432  0.5638  0.4074
  182SLPC  H15R20880   6.496   4.586   8.746  1.2346  0.0678  1.5391
  182SLPC  H15S20881   6.618   4.660   8.632  1.1003  0.1668  1.7226
  182SLPC  C21620882   6.433   4.770   8.654  0.3801  0.6475 -0.5328
  182SLPC  H16R20883   6.470   4.862   8.604  1.1971  1.1168  0.8826
  182SLPC  H16S20884   6.381   4.798   8.748 -0.1069 -1.2212 -0.2093
  182SLPC  C21720885   6.336   4.698   8.561 -0.2014 -0.3217  0.1247
  182SLPC  H17R20886   6.295   4.616   8.624  0.2081 -0.5820  0.0547
  182SLPC  H17S20887   6.391   4.665   8.470 -0.1479  2.1760 -0.8319
  182SLPC  C21820888   6.225   4.797   8.532  0.2473 -0.0949  0.2224
  182SLPC  H18R20889   6.259   4.872   8.457  0.5620  0.6030  1.0402
  182SLPC  H18S20890   6.198   4.839   8.631 -2.2685 -0.3545 -0.2881
  182SLPC  H18T20891   6.135   4.748   8.489 -0.0540  2.0501 -1.8137
  182SLPC   C3320892   6.096   4.884   9.979  0.3761  0.1740 -0.0955
  182SLPC   H3X20893   6.127   4.793   9.923  1.5310  1.1123 -1.0583
  182SLPC   H3Y20894   6.191   4.940   9.989 -0.0461  1.1440 -1.3096
  182SLPC   C3420895   6.002   4.969   9.893  0.5292 -0.5634  0.2301
  182SLPC   H4X20896   5.988   5.066   9.947 -0.0152 -0.6018  0.1627
  182SLPC   H4Y20897   5.901   4.925   9.884  0.0408  0.8667 -1.9866
  182SLPC   C3520898   6.057   4.990   9.751  0.5201 -0.3385 -0.0449
  182SLPC   H5X20899   6.064   4.898   9.689 -1.6958 -1.3930  1.1674
  182SLPC   H5Y20900   6.153   5.046   9.764  0.7803 -0.8621  0.3226
  182SLPC   C3620901   5.961   5.084   9.674  0.2560 -0.0548  0.3400
  182SLPC   H6X20902   5.949   5.181   9.728  0.2548 -0.1832  0.5725
  182SLPC   H6Y20903   5.865   5.031   9.687  0.0938  0.1840  0.1205
  182SLPC   C3720904   6.002   5.098   9.525 -0.1007  0.1529 -0.1268
  182SLPC   H7X20905   6.001   4.994   9.488 -0.2654  0.3858 -0.7938
  182SLPC   H7Y20906   6.107   5.130   9.511  0.3541 -2.0226 -2.4468
  182SLPC   C3820907   5.911   5.201   9.445  0.3968  0.5802 -0.0721
  182SLPC   H8X20908   5.912   5.301   9.492  3.2213  0.4066  0.4247
  182SLPC   H8Y20909   5.803   5.174   9.453  0.8619 -1.3325  0.2974
  182SLPC   C3920910   5.954   5.203   9.297  0.4938  0.2394  0.8481
  182SLPC   H9X20911   5.957   5.100   9.254  1.8855  0.4646  0.3418
  182SLPC   H9Y20912   6.055   5.250   9.296 -0.4991  2.5650 -1.4909
  182SLPC  C31020913   5.863   5.298   9.211  0.6475 -0.0454 -0.2420
  182SLPC  H10X20914   5.883   5.405   9.231  1.1456 -0.4090  1.3500
  182SLPC  H10Y20915   5.756   5.285   9.238  0.3230  1.5311 -0.6556
  182SLPC  C31120916   5.870   5.263   9.059  0.3457 -0.1189  0.4080
  182SLPC  H11X20917   5.810   5.169   9.056 -2.4609  1.5426  0.3044
  182SLPC  H11Y20918   5.980   5.254   9.048  0.2735 -1.3969  0.5828
  182SLPC  C31220919   5.817   5.366   8.954  0.0552  0.0577 -0.6713
  182SLPC  H12X20920   5.853   5.466   8.987  2.0510 -0.5461 -0.9062
  182SLPC  H12Y20921   5.708   5.367   8.936  0.1818  0.5716 -1.4833
  182SLPC  C31320922   5.888   5.342   8.817 -0.0343  0.4921  0.0128
  182SLPC  H13X20923   5.839   5.262   8.758  3.2665 -0.7401 -1.2620
  182SLPC  H13Y20924   5.995   5.316   8.830  1.2316  4.1875 -1.6110
  182SLPC  C31420925   5.869   5.464   8.727 -1.2175  0.4620  0.1971
  182SLPC  H14X20926   5.912   5.552   8.779 -0.6807  0.8645 -0.8939
  182SLPC  H14Y20927   5.760   5.487   8.720 -0.8837  1.6160 -1.8141
  182SLPC  C31520928   5.943   5.444   8.589 -0.7306 -0.4270 -0.0893
  182SLPC  H15X20929   5.908   5.354   8.533  2.0244 -1.9327  0.4504
  182SLPC  H15Y20930   6.051   5.432   8.609 -1.1201 -1.8390  1.3789
  182SLPC  C31620931   5.931   5.575   8.506 -0.2927 -0.0569 -0.8109
  182SLPC  H16X20932   6.004   5.589   8.424 -0.6115  1.7554 -0.8455
  182SLPC  H16Y20933   5.951   5.662   8.573 -1.1771 -1.4708  1.4076
  182SLPC  C31720934   5.784   5.589   8.455  0.3175 -0.4492  0.6353
  182SLPC  H17X20935   5.716   5.603   8.542  0.1555  0.0643  0.4277
  182SLPC  H17Y20936   5.746   5.500   8.399  1.4243  0.9650 -2.6002
  182SLPC  C31820937   5.772   5.712   8.361 -0.2108  0.5956 -0.1548
  182SLPC  H18X20938   5.792   5.804   8.422  1.4196 -0.6875  1.3586
  182SLPC  H18Y20939   5.668   5.729   8.328 -0.1886  0.4109 -0.3166
  182SLPC  H18Z20940   5.837   5.718   8.271  0.8421  0.9360  0.5950
  183SLPC     N20941   1.367   5.342  10.544 -0.2662 -0.3378  0.4165
  183SLPC   C1320942   1.246   5.309  10.462  0.8193  0.0748 -0.6885
  183SLPC  H13A20943   1.185   5.229  10.501  0.7233  0.3733 -0.2149
  183SLPC  H13B20944   1.184   5.396  10.482  1.1695 -0.0715  1.2107
  183SLPC  H13C20945   1.271   5.286  10.360  2.5767 -0.2643 -0.2081
  183SLPC   C1420946   1.316   5.363  10.680 -0.1959 -0.4058  0.1583
  183SLPC  H14A20947   1.398   5.387  10.746 -0.0528 -1.0313  0.2151
  183SLPC  H14B20948   1.244   5.443  10.689  0.4209  0.3081 -1.0986
  183SLPC  H14C20949   1.262   5.280  10.724  0.9829 -2.5591 -2.2274
  183SLPC   C1520950   1.430   5.466  10.494 -0.3104  0.3213 -0.3697
  183SLPC  H15A20951   1.441   5.456  10.387  1.2825 -0.7877 -0.1458
  183SLPC  H15B20952   1.381   5.557  10.526 -1.1355 -0.4318  0.5380
  183SLPC  H15C20953   1.523   5.490  10.543 -0.6035  2.0390 -0.5886
  183SLPC   C1220954   1.474   5.228  10.537 -0.3328 -0.5947 -0.3814
  183SLPC  H12A20955   1.522   5.230  10.440  0.9473  3.1396  0.1509
  183SLPC  H12B20956   1.429   5.131  10.546 -1.6030 -0.1666 -1.6438
  183SLPC   C1120957   1.590   5.240  10.644  0.4974  0.0592 -0.3160
  183SLPC  H11A20958   1.551   5.218  10.746  0.3434  0.5317 -0.2671
  183SLPC  H11B20959   1.639   5.339  10.655  1.1563 -0.1957 -0.9356
  183SLPC     P20960   1.671   4.997  10.673  0.2013  0.0724  0.3188
  183SLPC   O1320961   1.719   4.994  10.813 -0.2106  0.2973 -0.1750
  183SLPC   O1420962   1.541   4.941  10.633  0.1951 -0.4951 -0.2510
  183SLPC   O1220963   1.686   5.142  10.618 -0.1488 -0.4978 -0.3803
  183SLPC   O1120964   1.776   4.925  10.585  0.1016  0.4385 -0.0302
  183SLPC    C120965   1.883   4.984  10.509  0.2055 -0.1309  0.5199
  183SLPC    HA20966   1.889   5.095  10.523  1.9712 -0.3003  1.3877
  183SLPC    HB20967   1.977   4.940  10.547 -0.1463 -0.0791  1.4861
  183SLPC    C220968   1.865   4.951  10.359  0.8017 -0.3201  0.3606
  183SLPC    HS20969   1.779   5.008  10.318  0.7240 -1.5254 -1.2424
  183SLPC   O2120970   1.854   4.813  10.339  0.9571 -0.1124 -0.1794
  183SLPC   C2120971   1.768   4.776  10.249 -0.0751  0.3726 -0.9625
  183SLPC   O2220972   1.695   4.847  10.188 -0.2895 -0.7851  0.1742
  183SLPC   C2220973   1.774   4.626  10.230 -0.5561  0.2920 -0.0940
  183SLPC   H2R20974   1.878   4.592  10.248  0.2985  2.4364 -0.5933
  183SLPC   H2S20975   1.701   4.568  10.289 -1.7623  0.0874 -1.7228
  183SLPC    C320976   1.992   4.996  10.278  0.8043  0.1462  0.4469
  183SLPC    HX20977   2.071   4.938  10.330  1.4975  0.7941  0.1193
  183SLPC    HY20978   2.005   5.105  10.292 -0.2313  0.6024 -1.6814
  183SLPC   O3120979   1.998   4.963  10.135  0.4469  0.6859  0.0485
  183SLPC   C3120980   1.923   5.048  10.072 -0.3247  0.2822  0.5665
  183SLPC   O3220981   1.873   5.149  10.121 -0.4783 -0.1712 -0.2477
  183SLPC   C3220982   1.916   5.013   9.922  0.4302 -0.2831 -0.0476
  183SLPC   H2X20983   1.870   4.913   9.911  0.1164  0.0082 -1.6116
  183SLPC   H2Y20984   2.021   5.001   9.888  0.3480 -2.8981  0.3940
  183SLPC   C2320985   1.737   4.596  10.079 -0.1349  0.0163  1.2930
  183SLPC   H3R20986   1.793   4.653  10.001  1.2472 -0.1023  2.1630
  183SLPC   H3S20987   1.631   4.621  10.060 -0.3907 -2.0585 -0.3886
  183SLPC   C2420988   1.738   4.443  10.046 -0.5582  0.1732 -0.3833
  183SLPC   H4R20989   1.659   4.397  10.110 -0.3673  0.5081  0.0975
  183SLPC   H4S20990   1.829   4.385  10.070 -0.3732 -0.0933 -1.6748
  183SLPC   C2520991   1.703   4.402   9.904 -0.0253 -0.2354  0.6273
  183SLPC   H5R20992   1.773   4.460   9.840  0.0962  1.1456  1.9448
  183SLPC   H5S20993   1.602   4.428   9.865  0.5611  2.1110  0.4988
  183SLPC   C2620994   1.726   4.250   9.889 -0.1984 -0.2792  0.3754
  183SLPC   H6R20995   1.650   4.198   9.951 -0.6356  2.5944  2.4219
  183SLPC   H6S20996   1.824   4.211   9.923  1.0236  1.8379 -0.4807
  183SLPC   C2720997   1.715   4.225   9.745 -0.3153  0.1429  0.0056
  183SLPC   H7R20998   1.786   4.291   9.691 -0.5981  2.3941  2.2309
  183SLPC   H7S20999   1.614   4.245   9.705 -1.1570 -1.4072  1.2275
  183SLPC   C2821000   1.734   4.077   9.697 -0.3188 -0.2884  0.2196
  183SLPC   H8R21001   1.835   4.049   9.733 -0.4229 -1.8082 -0.5764
  183SLPC   H8S21002   1.723   4.074   9.586 -0.0113 -0.1981  0.1878
  183SLPC   C2921003   1.626   3.987   9.769  0.4360 -0.8134 -0.5733
  183SLPC   H9R21004   1.643   3.990   9.878 -0.5099  0.7038 -0.4286
  183SLPC  C21021005   1.531   3.906   9.720 -0.1273  0.2003 -0.5757
  183SLPC  H10R21006   1.464   3.862   9.795  0.9898 -0.7381 -0.0918
  183SLPC  C21121007   1.512   3.876   9.569  0.3600 -0.0729  0.2927
  183SLPC  H11R21008   1.525   3.972   9.514  0.0022  0.4654  1.1227
  183SLPC  H11S21009   1.406   3.849   9.551  0.8418 -2.4034  0.6018
  183SLPC  C21221010   1.612   3.771   9.516  0.6356  0.5966 -0.1457
  183SLPC  H12R21011   1.630   3.683   9.580  0.6054  0.3327 -0.4980
  183SLPC  C21321012   1.689   3.783   9.409  0.6169 -0.5086 -0.0800
  183SLPC  H13R21013   1.765   3.708   9.384  2.1451  0.2384  2.0604
  183SLPC  C21421014   1.684   3.902   9.318 -0.6335 -0.0871  0.1574
  183SLPC  H14R21015   1.784   3.925   9.274  0.0562  0.0728  1.7319
  183SLPC  H14S21016   1.666   4.003   9.361  0.6801  0.4669 -0.5336
  183SLPC  C21521017   1.580   3.872   9.204  0.5219  0.0616 -1.2797
  183SLPC  H15R21018   1.481   3.891   9.252 -0.1879 -1.5182 -2.0398
  183SLPC  H15S21019   1.593   3.766   9.175 -0.1644 -1.3859  2.9593
  183SLPC  C21621020   1.593   3.962   9.083 -0.1533  0.0602 -0.3744
  183SLPC  H16R21021   1.697   3.956   9.044  0.3781  0.4750  0.9312
  183SLPC  H16S21022   1.570   4.065   9.115 -0.2907  0.1733 -0.8299
  183SLPC  C21721023   1.490   3.927   8.978  0.4129  0.1172 -0.0587
  183SLPC  H17R21024   1.483   3.817   8.972 -0.6207 -0.0323  2.4872
  183SLPC  H17S21025   1.519   3.974   8.882 -1.7299  0.3421 -0.6364
  183SLPC  C21821026   1.348   3.979   9.009  0.3423  0.3407  0.5514
  183SLPC  H18R21027   1.323   3.938   9.110 -1.8372  0.3458  0.0695
  183SLPC  H18S21028   1.281   3.933   8.933  1.2238 -0.1460  0.0454
  183SLPC  H18T21029   1.343   4.089   9.022 -0.3508  0.4701 -0.7281
  183SLPC   C3321030   1.829   5.108   9.841 -0.0677  0.2220 -0.5019
  183SLPC   H3X21031   1.845   5.217   9.854 -1.7089  0.5914 -1.2792
  183SLPC   H3Y21032   1.722   5.094   9.868  0.0439  1.7528  0.8414
  183SLPC   C3421033   1.839   5.071   9.694  0.3607 -0.2308 -0.5625
  183SLPC   H4X21034   1.940   5.097   9.657  0.8489 -1.1914  0.0465
  183SLPC   H4Y21035   1.768   5.141   9.646 -0.2663  0.9279  1.8806
  183SLPC   C3521036   1.797   4.926   9.656  0.3893  0.6954  0.0858
  183SLPC   H5X21037   1.687   4.926   9.673  0.6395 -0.3274  1.9053
  183SLPC   H5Y21038   1.853   4.850   9.715 -1.9970 -1.0024  0.2940
  183SLPC   C3621039   1.822   4.902   9.508  0.1257 -0.1927 -0.2454
  183SLPC   H6X21040   1.927   4.888   9.474  0.1959  1.7136 -0.8921
  183SLPC   H6Y21041   1.773   4.993   9.466 -0.6960 -0.7347 -0.4991
  183SLPC   C3721042   1.757   4.774   9.459 -0.4079  0.7911 -0.5047
  183SLPC   H7X21043   1.649   4.787   9.484 -0.8455  1.2810 -2.4168
  183SLPC   H7Y21044   1.792   4.682   9.510 -1.3068  1.0180  0.5563
  183SLPC   C3821045   1.761   4.747   9.305 -0.1555 -0.7928  0.0882
  183SLPC   H8X21046   1.720   4.650   9.271  1.7787 -1.1939 -1.2945
  183SLPC   H8Y21047   1.866   4.753   9.269  0.3665  1.5005  1.7271
  183SLPC   C3921048   1.688   4.856   9.217  0.0442  0.5937 -0.4437
  183SLPC   H9X21049   1.700   4.954   9.268  0.3572  0.6577 -0.6368
  183SLPC   H9Y21050   1.579   4.834   9.207 -0.1408  0.3686  1.6051
  183SLPC  C31021051   1.753   4.865   9.077 -0.2711 -0.9130  0.0535
  183SLPC  H10X21052   1.863   4.870   9.093  0.2710 -0.4000 -3.1155
  183SLPC  H10Y21053   1.718   4.956   9.023  1.1711  0.0294  0.6704
  183SLPC  C31121054   1.731   4.741   8.992  0.2111  1.3734  0.0579
  183SLPC  H11X21055   1.638   4.764   8.935  0.2635 -1.1011 -1.1433
  183SLPC  H11Y21056   1.726   4.653   9.059  1.6067  0.8537 -0.4900
  183SLPC  C31221057   1.844   4.716   8.894  1.1006  0.4985  0.0401
  183SLPC  H12X21058   1.869   4.818   8.858  0.9414  0.4553 -0.1956
  183SLPC  H12Y21059   1.806   4.665   8.803  1.0354  0.8902 -0.1538
  183SLPC  C31321060   1.964   4.647   8.952  0.1610 -0.1025  0.2550
  183SLPC  H13X21061   1.940   4.546   8.992  1.3272 -0.5100 -0.0465
  183SLPC  H13Y21062   1.990   4.705   9.044 -4.6203  1.7944  0.7226
  183SLPC  C31421063   2.077   4.624   8.849 -1.0252 -0.2697 -0.7619
  183SLPC  H14X21064   2.098   4.718   8.794  3.1991 -1.1624 -1.0277
  183SLPC  H14Y21065   2.051   4.553   8.768 -0.1178 -2.0084  0.4137
  183SLPC  C31521066   2.217   4.595   8.919 -0.5462 -0.4379 -0.1450
  183SLPC  H15X21067   2.212   4.521   9.001  0.7204  1.2922  1.5625
  183SLPC  H15Y21068   2.239   4.683   8.982 -0.3614  0.6327 -1.6346
  183SLPC  C31621069   2.332   4.572   8.814 -0.1568 -0.2453  0.3077
  183SLPC  H16X21070   2.293   4.600   8.714 -1.5158 -0.3398  0.7945
  183SLPC  H16Y21071   2.366   4.467   8.823 -1.2395 -0.8564 -2.0823
  183SLPC  C31721072   2.451   4.661   8.855 -0.3001 -0.6205 -0.0933
  183SLPC  H17X21073   2.412   4.764   8.873 -1.1896 -0.9082 -0.3224
  183SLPC  H17Y21074   2.520   4.650   8.769  3.0156  0.3493  2.2453
  183SLPC  C31821075   2.519   4.624   8.991  0.4057  0.3818  0.7690
  183SLPC  H18X21076   2.572   4.526   8.984 -0.3687 -0.0840  1.2683
  183SLPC  H18Y21077   2.440   4.617   9.069 -0.1576  1.0579  0.2695
  183SLPC  H18Z21078   2.585   4.711   9.013 -0.2603  1.4247 -1.1107
  184SLPC     N21079   3.339   1.052  10.877 -0.2905  0.4150  0.5635
  184SLPC   C1321080   3.285   0.988  10.999 -0.5888  0.3963  0.3247
  184SLPC  H13A21081   3.189   1.031  11.020 -0.8193 -0.5671  1.3348
  184SLPC  H13B21082   3.268   0.882  10.980 -1.4830  0.8635 -1.8179
  184SLPC  H13C21083   3.363   0.996  11.073 -0.2174 -0.1694  0.0079
  184SLPC   C1421084   3.473   0.990  10.855 -0.5094 -0.1232 -0.7980
  184SLPC  H14A21085   3.523   1.041  10.774  0.0702 -0.2174 -0.5086
  184SLPC  H14B21086   3.536   0.991  10.943 -0.7894 -0.7114 -0.5818
  184SLPC  H14C21087   3.478   0.884  10.832  2.0537 -0.0199 -1.0891
  184SLPC   C1521088   3.359   1.203  10.899  0.2005  0.3432 -0.4107
  184SLPC  H15A21089   3.263   1.252  10.892  0.6448  1.2166 -0.4788
  184SLPC  H15B21090   3.391   1.218  11.001  0.5117 -1.4528 -0.2024
  184SLPC  H15C21091   3.423   1.251  10.827  2.1682 -1.1242  0.2425
  184SLPC   C1221092   3.249   1.038  10.760  0.1538 -0.1065  0.0766
  184SLPC  H12A21093   3.147   1.069  10.775 -0.0289 -1.0334  0.8137
  184SLPC  H12B21094   3.238   0.936  10.728 -2.0985  0.7365 -2.1319
  184SLPC   C1121095   3.305   1.111  10.631  0.7741  0.1093  0.6610
  184SLPC  H11A21096   3.234   1.087  10.548  1.2968 -0.7999  0.4600
  184SLPC  H11B21097   3.402   1.070  10.597  0.0195  1.0610 -3.1196
  184SLPC     P21098   3.359   1.341  10.523  0.6976  0.1224  0.1920
  184SLPC   O1321099   3.289   1.473  10.539 -0.6238 -0.1008  0.0983
  184SLPC   O1421100   3.510   1.341  10.510 -0.2882  0.0537  0.6089
  184SLPC   O1221101   3.310   1.255  10.645 -0.0827  0.0125 -0.4297
  184SLPC   O1121102   3.303   1.274  10.391 -0.2501 -0.7311  0.4110
  184SLPC    C121103   3.360   1.165  10.313 -0.7628 -0.4654 -0.3893
  184SLPC    HA21104   3.431   1.104  10.373  0.8583  1.9120  0.2323
  184SLPC    HB21105   3.290   1.094  10.264  0.1607 -0.0173 -2.4156
  184SLPC    C221106   3.445   1.222  10.201  0.8652  0.3638  0.3283
  184SLPC    HS21107   3.520   1.275  10.263  2.1795  1.3492 -1.9487
  184SLPC   O2121108   3.370   1.313  10.117  0.0835  0.2342 -0.1677
  184SLPC   C2121109   3.429   1.426  10.087 -0.1215  0.8702 -0.3388
  184SLPC   O2221110   3.547   1.457  10.118  0.9547  0.1377  0.3273
  184SLPC   C2221111   3.328   1.518  10.019 -0.2846 -0.0152 -0.4420
  184SLPC   H2R21112   3.233   1.501  10.075  1.0143 -1.9159  1.3782
  184SLPC   H2S21113   3.358   1.624  10.031 -3.2221  1.1301 -2.1567
  184SLPC    C321114   3.524   1.110  10.123 -0.0100 -0.4620 -0.1336
  184SLPC    HX21115   3.447   1.079  10.049  2.0889 -0.8367 -2.2853
  184SLPC    HY21116   3.557   1.018  10.175  0.2091 -0.1954  0.2028
  184SLPC   O3121117   3.624   1.166  10.034 -0.0407  0.2258  0.3066
  184SLPC   C3121118   3.737   1.189  10.103 -0.2545 -1.3319 -0.2164
  184SLPC   O3221119   3.756   1.159  10.218  0.5130  0.6165 -0.2344
  184SLPC   C3221120   3.837   1.266  10.024 -0.5824  0.2354  0.3992
  184SLPC   H2X21121   3.878   1.349  10.085  1.1547 -1.1963  1.2789
  184SLPC   H2Y21122   3.785   1.307   9.935 -1.1478 -1.4201 -0.0800
  184SLPC   C2321123   3.301   1.477   9.868  0.3081  0.0002 -0.0859
  184SLPC   H3R21124   3.205   1.530   9.854  0.4022  0.6774  1.6238
  184SLPC   H3S21125   3.295   1.367   9.855 -1.6296  0.1980 -1.2260
  184SLPC   C2421126   3.400   1.537   9.768 -0.2812 -0.4081  0.5251
  184SLPC   H4R21127   3.505   1.502   9.781 -0.2636  0.1933  2.2958
  184SLPC   H4S21128   3.411   1.642   9.802 -0.3548  0.0025 -0.6627
  184SLPC   C2521129   3.350   1.535   9.630 -0.3707  0.0642 -0.1075
  184SLPC   H5R21130   3.279   1.620   9.620  0.1864  0.5660  0.1096
  184SLPC   H5S21131   3.290   1.442   9.621  0.1834 -0.6757  2.7079
  184SLPC   C2621132   3.460   1.562   9.523 -0.4069  0.0242  0.3150
  184SLPC   H6R21133   3.521   1.470   9.513 -0.0862  0.2261  0.4105
  184SLPC   H6S21134   3.526   1.640   9.565 -0.6650 -0.5076  1.7805
  184SLPC   C2721135   3.397   1.607   9.389 -0.5971  0.2098 -0.3364
  184SLPC   H7R21136   3.351   1.707   9.405  0.9526  0.6560  1.7803
  184SLPC   H7S21137   3.323   1.528   9.365 -1.8694  0.9935  0.8356
  184SLPC   C2821138   3.501   1.597   9.274 -0.5768  0.2738  0.4796
  184SLPC   H8R21139   3.532   1.492   9.259  1.8956  0.8209  1.3400
  184SLPC   H8S21140   3.591   1.655   9.303 -0.7758  0.6900  0.2739
  184SLPC   C2921141   3.438   1.646   9.144  0.7017  0.1967  0.1489
  184SLPC   H9R21142   3.339   1.692   9.161  0.6414 -0.0630  0.5153
  184SLPC  C21021143   3.480   1.636   9.017  0.4030  0.1250  1.0594
  184SLPC  H10R21144   3.417   1.673   8.935 -0.6316 -3.0955  0.2717
  184SLPC  C21121145   3.606   1.576   8.968  0.4128  0.3398  0.6102
  184SLPC  H11R21146   3.600   1.481   8.910  1.2992 -0.4303  1.7242
  184SLPC  H11S21147   3.660   1.547   9.061 -0.6481 -0.6430  0.9392
  184SLPC  C21221148   3.681   1.688   8.894 -0.4710 -1.3741  0.4735
  184SLPC  H12R21149   3.724   1.765   8.960 -0.1446 -1.5771  0.4991
  184SLPC  C21321150   3.724   1.694   8.765 -0.7257  0.1238  0.0796
  184SLPC  H13R21151   3.786   1.781   8.740 -0.4060  0.0980  0.7733
  184SLPC  C21421152   3.695   1.588   8.661  0.7104 -0.0236 -0.0269
  184SLPC  H14R21153   3.610   1.526   8.697 -0.8568  1.2876 -1.2416
  184SLPC  H14S21154   3.782   1.519   8.657 -0.2319 -1.3399  1.1677
  184SLPC  C21521155   3.673   1.636   8.511 -0.5251  0.4345 -0.5338
  184SLPC  H15R21156   3.687   1.550   8.441  0.4056  0.7798 -0.7940
  184SLPC  H15S21157   3.736   1.723   8.483  1.6008 -0.1338  2.0580
  184SLPC  C21621158   3.534   1.691   8.492 -0.4433  0.5131 -0.3101
  184SLPC  H16R21159   3.520   1.793   8.532  3.5586  1.3730 -0.7140
  184SLPC  H16S21160   3.465   1.625   8.548  0.9281 -1.2703 -0.5988
  184SLPC  C21721161   3.484   1.693   8.350  0.3108  0.0237  0.3429
  184SLPC  H17R21162   3.508   1.591   8.311  3.9026  0.1305  1.8155
  184SLPC  H17S21163   3.542   1.762   8.284 -1.5631 -0.2427 -1.6822
  184SLPC  C21821164   3.341   1.725   8.338  0.1882 -0.1623  0.2911
  184SLPC  H18R21165   3.311   1.830   8.362 -2.1652 -0.1762 -2.1381
  184SLPC  H18S21166   3.281   1.649   8.393  2.0802 -3.1409 -1.4823
  184SLPC  H18T21167   3.311   1.712   8.232  0.2759  2.1699 -0.0779
  184SLPC   C3321168   3.950   1.170   9.979 -0.9722 -0.9178  0.4872
  184SLPC   H3X21169   4.002   1.128  10.068  1.0238  1.8036  0.7373
  184SLPC   H3Y21170   4.032   1.231   9.935 -1.0409 -1.2806 -0.1656
  184SLPC   C3421171   3.909   1.065   9.876  0.0917  0.2019 -0.1772
  184SLPC   H4X21172   3.813   1.018   9.907 -0.1823  1.1520  0.4478
  184SLPC   H4Y21173   3.990   0.991   9.865  0.3344  0.5029 -0.4402
  184SLPC   C3521174   3.902   1.124   9.734  0.1500  0.1766 -0.1940
  184SLPC   H5X21175   4.003   1.165   9.710  0.7190 -1.7809 -1.3392
  184SLPC   H5Y21176   3.822   1.202   9.730 -1.0557 -1.0966 -2.9905
  184SLPC   C3621177   3.872   1.020   9.629 -0.2214  0.2792  0.3041
  184SLPC   H6X21178   3.772   0.973   9.638 -0.0955 -0.7980 -2.7815
  184SLPC   H6Y21179   3.945   0.938   9.646 -1.7483 -1.2283 -0.0437
  184SLPC   C3721180   3.880   1.074   9.485 -0.3956  0.1233 -0.4314
  184SLPC   H7X21181   3.974   1.132   9.471 -0.3102 -0.6329 -4.3805
  184SLPC   H7Y21182   3.801   1.150   9.468 -0.4344 -0.1104 -1.3983
  184SLPC   C3821183   3.872   0.968   9.368 -0.6269 -0.2952 -0.1511
  184SLPC   H8X21184   3.773   0.917   9.366  0.1640 -2.1582  2.3026
  184SLPC   H8Y21185   3.950   0.893   9.391 -0.5196 -0.3121 -0.5696
  184SLPC   C3921186   3.919   1.030   9.242  0.7558  0.9194 -0.1748
  184SLPC   H9X21187   4.028   1.052   9.249  1.3981 -2.1421  0.8610
  184SLPC   H9Y21188   3.858   1.119   9.214 -1.1938 -0.0312  0.8956
  184SLPC  C31021189   3.909   0.931   9.122  0.0074 -0.0715  0.2995
  184SLPC  H10X21190   3.956   0.973   9.031  0.7868 -0.9928  0.2551
  184SLPC  H10Y21191   3.803   0.905   9.105  0.4450 -1.4293 -0.5144
  184SLPC  C31121192   3.989   0.800   9.139  0.0002 -0.3114  1.0605
  184SLPC  H11X21193   3.939   0.747   9.223 -0.0140 -2.4235 -0.2187
  184SLPC  H11Y21194   4.097   0.811   9.163 -0.0392 -1.8317  2.1084
  184SLPC  C31221195   4.004   0.718   9.006  1.0371  0.7360 -0.4609
  184SLPC  H12X21196   4.046   0.619   9.036 -0.2646  0.0636 -0.7939
  184SLPC  H12Y21197   4.077   0.766   8.938  1.5758 -1.1628 -1.2917
  184SLPC  C31321198   3.874   0.698   8.918  0.5700  0.5712 -0.0646
  184SLPC  H13X21199   3.839   0.803   8.910  1.2668  0.8791  0.7878
  184SLPC  H13Y21200   3.801   0.636   8.972  2.4031 -0.7577  1.0043
  184SLPC  C31421201   3.893   0.653   8.763  0.5006 -0.1139 -0.2154
  184SLPC  H14X21202   3.975   0.723   8.736  0.8025 -0.3937 -0.0384
  184SLPC  H14Y21203   3.801   0.668   8.703  0.7973 -0.7414 -0.8403
  184SLPC  C31521204   3.937   0.502   8.735 -0.1121 -0.4171 -0.2283
  184SLPC  H15X21205   3.869   0.444   8.800 -0.7942  0.6696  0.0641
  184SLPC  H15Y21206   4.032   0.500   8.793 -1.7045  0.5619  2.6223
  184SLPC  C31621207   3.939   0.449   8.591  0.1808  0.7754 -0.2861
  184SLPC  H16X21208   4.018   0.506   8.538 -0.5710  1.8450 -0.3091
  184SLPC  H16Y21209   3.839   0.468   8.545 -1.5108 -0.5543  2.6124
  184SLPC  C31721210   3.974   0.299   8.571  0.2677 -0.5367  0.5632
  184SLPC  H17X21211   4.081   0.285   8.595  0.3590  0.6762  0.9172
  184SLPC  H17Y21212   3.970   0.274   8.463 -1.5644  1.9123 -0.0323
  184SLPC  C31821213   3.891   0.196   8.639 -0.6088 -0.0141  0.2571
  184SLPC  H18X21214   3.783   0.222   8.635 -0.5618  0.2082  0.3868
  184SLPC  H18Y21215   3.918   0.187   8.747  0.9563 -0.1477 -0.1228
  184SLPC  H18Z21216   3.898   0.100   8.584 -1.2733  0.2338 -0.2725
  185SLPC     N21217   2.337   5.409   6.509 -0.1412  0.3157 -0.5424
  185SLPC   C1321218   2.460   5.366   6.439 -0.4474 -0.4681 -0.2141
  185SLPC  H13A21219   2.501   5.279   6.489 -0.9567 -0.3837  0.3707
  185SLPC  H13B21220   2.453   5.352   6.332  0.9317  0.5159 -0.4578
  185SLPC  H13C21221   2.533   5.445   6.447 -1.3686  0.4504 -0.6804
  185SLPC   C1421222   2.264   5.521   6.439  0.0448 -0.4828 -0.4032
  185SLPC  H14A21223   2.273   5.519   6.331 -1.7562  4.1011 -0.8917
  185SLPC  H14B21224   2.165   5.538   6.478  0.2155  0.1464 -0.2273
  185SLPC  H14C21225   2.305   5.618   6.463 -0.7124  0.4699 -2.6797
  185SLPC   C1521226   2.378   5.467   6.642 -0.3055  0.0222 -0.8769
  185SLPC  H15A21227   2.433   5.397   6.703  1.0843  2.9060  1.4269
  185SLPC  H15B21228   2.439   5.554   6.623 -2.3184  2.0290  1.2378
  185SLPC  H15C21229   2.303   5.508   6.708  1.5956 -0.7923  1.9852
  185SLPC   C1221230   2.245   5.291   6.532 -0.5867  0.3985  0.3524
  185SLPC  H12A21231   2.165   5.327   6.594 -0.2981 -0.8377  1.4782
  185SLPC  H12B21232   2.288   5.217   6.598  0.0998  0.6853  0.2300
  185SLPC   C1121233   2.176   5.215   6.413  0.4187 -0.9375  1.1555
  185SLPC  H11A21234   2.128   5.288   6.345  3.8220  0.1996 -0.2387
  185SLPC  H11B21235   2.093   5.146   6.440 -1.6454  0.2191 -1.7173
  185SLPC     P21236   2.340   5.006   6.381  0.0681 -0.1107 -0.1200
  185SLPC   O1321237   2.276   4.895   6.306 -0.2173 -0.5832  0.4887
  185SLPC   O1421238   2.485   5.008   6.364 -0.0766 -0.5244  0.5017
  185SLPC   O1221239   2.277   5.146   6.336  0.4146 -0.9504 -0.3616
  185SLPC   O1121240   2.311   5.010   6.532 -0.2382  0.7648 -0.7666
  185SLPC    C121241   2.342   4.894   6.616  0.4311  0.4934 -0.1080
  185SLPC    HA21242   2.262   4.817   6.613 -0.0685  1.0010 -2.9904
  185SLPC    HB21243   2.432   4.837   6.585 -0.8771 -1.2030 -0.9404
  185SLPC    C221244   2.366   4.945   6.763  0.5426 -0.1395  0.6723
  185SLPC    HS21245   2.372   4.851   6.822  0.5120 -0.4680  0.1584
  185SLPC   O2121246   2.264   5.026   6.809 -0.1037  0.2378 -0.2274
  185SLPC   C2121247   2.137   4.982   6.808  0.0641  0.3284  0.1534
  185SLPC   O2221248   2.094   4.883   6.754 -0.3161  0.0901 -0.4818
  185SLPC   C2221249   2.051   5.102   6.834  0.7347 -0.7678 -0.1259
  185SLPC   H2R21250   2.118   5.191   6.840 -0.6441  0.1948  2.8104
  185SLPC   H2S21251   1.971   5.116   6.759 -0.4871 -1.3397  1.0312
  185SLPC    C321252   2.500   5.022   6.771 -0.4143  0.0312 -0.5151
  185SLPC    HX21253   2.514   5.102   6.695  1.1186 -3.0243 -3.7328
  185SLPC    HY21254   2.571   4.943   6.740 -1.1925 -0.8031 -0.2497
  185SLPC   O3121255   2.527   5.057   6.908 -0.5631 -0.3633 -0.2934
  185SLPC   C3121256   2.519   5.184   6.940  0.1283  0.2015  0.4391
  185SLPC   O3221257   2.482   5.273   6.869  0.1249 -0.0577 -0.3610
  185SLPC   C3221258   2.585   5.192   7.079 -0.3962  0.4361  0.4669
  185SLPC   H2X21259   2.682   5.245   7.070  0.2863 -0.8163  0.1958
  185SLPC   H2Y21260   2.608   5.091   7.120 -1.9866  0.0898  0.5837
  185SLPC   C2321261   1.987   5.079   6.971  0.5996 -0.6673  0.0330
  185SLPC   H3R21262   1.933   4.982   6.974 -0.0894 -0.3117 -0.4779
  185SLPC   H3S21263   1.901   5.148   6.989 -0.3193 -1.3119 -1.6050
  185SLPC   C2421264   2.094   5.095   7.084  0.0673 -0.1441  0.3341
  185SLPC   H4R21265   2.146   5.193   7.077  1.3806 -0.9367 -2.0097
  185SLPC   H4S21266   2.171   5.016   7.078  1.2384  1.0316 -0.7491
  185SLPC   C2521267   2.023   5.088   7.222  0.2028  0.5883 -0.0857
  185SLPC   H5R21268   1.988   4.983   7.237  0.3594  0.7595  1.6735
  185SLPC   H5S21269   1.939   5.161   7.226 -0.7370 -0.5053  1.2159
  185SLPC   C2621270   2.095   5.112   7.356 -0.4600 -0.5368 -0.1746
  185SLPC   H6R21271   2.143   5.210   7.339 -2.6103  0.8679  1.2624
  185SLPC   H6S21272   2.171   5.033   7.373  0.1733 -0.0033 -0.5186
  185SLPC   C2721273   1.994   5.132   7.469  0.1115  0.2030  0.0414
  185SLPC   H7R21274   2.024   5.051   7.540  1.1134 -0.3625 -0.9923
  185SLPC   H7S21275   1.891   5.094   7.452  1.0834 -1.7489 -1.8874
  185SLPC   C2821276   2.006   5.262   7.551 -0.1145 -1.5673 -0.5765
  185SLPC   H8R21277   1.910   5.265   7.607  0.0816 -0.0972 -0.2930
  185SLPC   H8S21278   1.998   5.352   7.487 -1.3614 -0.2140  1.3920
  185SLPC   C2921279   2.123   5.284   7.638 -0.8031  0.1559 -0.1765
  185SLPC   H9R21280   2.217   5.299   7.584 -0.9558 -0.3464 -0.5855
  185SLPC  C21021281   2.123   5.301   7.770  0.4236 -0.6320  0.5732
  185SLPC  H10R21282   2.224   5.295   7.814  1.0212  1.0655 -0.4664
  185SLPC  C21121283   2.013   5.302   7.877 -0.4715  0.4157 -0.0330
  185SLPC  H11R21284   2.057   5.268   7.973  1.8675  2.4594 -0.2849
  185SLPC  H11S21285   1.939   5.224   7.850 -0.1650 -0.3927  1.3344
  185SLPC  C21221286   1.945   5.438   7.886  0.0854 -0.1115  0.0383
  185SLPC  H12R21287   1.914   5.477   7.789  2.6490 -0.3714 -0.9632
  185SLPC  C21321288   1.926   5.516   7.994 -0.5604 -0.0936 -0.0209
  185SLPC  H13R21289   1.886   5.617   7.978 -2.0612 -0.7050 -0.3906
  185SLPC  C21421290   1.969   5.496   8.133 -0.8684  0.7286 -0.0041
  185SLPC  H14R21291   2.016   5.592   8.164 -0.9429  0.3555  1.3039
  185SLPC  H14S21292   2.047   5.417   8.133 -0.2567  1.1818 -3.1037
  185SLPC  C21521293   1.859   5.456   8.237  0.5069  0.3688  0.6716
  185SLPC  H15R21294   1.778   5.532   8.235 -0.3787 -0.5595  0.3851
  185SLPC  H15S21295   1.910   5.455   8.336  0.8302 -2.5365  0.5498
  185SLPC  C21621296   1.799   5.318   8.216  0.6873  0.7725 -0.5438
  185SLPC  H16R21297   1.858   5.231   8.179  0.9611  1.4909 -1.8681
  185SLPC  H16S21298   1.740   5.329   8.122  0.6765  0.5626 -0.5618
  185SLPC  C21721299   1.694   5.284   8.324  0.2289  0.1047 -0.5483
  185SLPC  H17R21300   1.634   5.200   8.282 -3.0691  1.8666  0.3134
  185SLPC  H17S21301   1.619   5.366   8.318 -0.6721 -0.6815 -0.3744
  185SLPC  C21821302   1.734   5.262   8.466  0.3665 -0.6795 -0.8310
  185SLPC  H18R21303   1.844   5.270   8.460  0.6369 -2.4040  0.8415
  185SLPC  H18S21304   1.688   5.173   8.514  0.9490 -0.0185  1.0471
  185SLPC  H18T21305   1.691   5.348   8.522 -0.4960 -1.9226  0.4918
  185SLPC   C3321306   2.508   5.279   7.180 -0.1239  0.2787 -0.1203
  185SLPC   H3X21307   2.412   5.230   7.207 -0.4588  0.6718 -0.5927
  185SLPC   H3Y21308   2.487   5.380   7.140  1.2525 -0.5004 -3.1242
  185SLPC   C3421309   2.583   5.288   7.315  0.3753 -0.6866  0.2495
  185SLPC   H4X21310   2.683   5.330   7.287  0.6810 -0.7782  1.1731
  185SLPC   H4Y21311   2.606   5.187   7.353  0.4813 -1.0395 -0.7192
  185SLPC   C3521312   2.520   5.379   7.421  0.6402  0.7272 -0.2811
  185SLPC   H5X21313   2.414   5.346   7.429  0.6543  0.1938 -1.9862
  185SLPC   H5Y21314   2.518   5.483   7.382  0.8562 -0.1546 -2.7772
  185SLPC   C3621315   2.604   5.373   7.549  0.0327 -0.0230  0.3094
  185SLPC   H6X21316   2.711   5.396   7.529  0.2965 -1.4346  0.0033
  185SLPC   H6Y21317   2.585   5.276   7.600  1.7540 -0.5966 -0.0708
  185SLPC   C3721318   2.539   5.464   7.668 -0.0872 -0.2473  1.0292
  185SLPC   H7X21319   2.432   5.436   7.680 -0.0577 -0.0638  1.7994
  185SLPC   H7Y21320   2.539   5.572   7.643 -0.2278 -0.8810 -2.1307
  185SLPC   C3821321   2.608   5.446   7.798 -1.3579 -0.3313 -0.0408
  185SLPC   H8X21322   2.708   5.494   7.794 -1.6596  0.3269  0.1119
  185SLPC   H8Y21323   2.623   5.336   7.810 -0.5947 -0.1829  0.4674
  185SLPC   C3921324   2.539   5.517   7.918 -0.0826  0.1038 -0.0076
  185SLPC   H9X21325   2.431   5.494   7.910  0.2866 -1.9137  0.2958
  185SLPC   H9Y21326   2.556   5.626   7.904 -1.6856  0.2299 -1.3265
  185SLPC  C31021327   2.604   5.480   8.055  0.6960  0.3609  0.2909
  185SLPC  H10X21328   2.713   5.480   8.036  0.3221 -0.4023 -2.1873
  185SLPC  H10Y21329   2.567   5.378   8.080 -0.1573  0.8458  1.0855
  185SLPC  C31121330   2.581   5.590   8.155 -0.3695 -0.3543  0.4866
  185SLPC  H11X21331   2.471   5.608   8.152 -0.5375 -1.4552 -0.6977
  185SLPC  H11Y21332   2.633   5.684   8.124  0.6917  0.3874  4.0484
  185SLPC  C31221333   2.623   5.544   8.295  0.4037 -0.0984  0.3476
  185SLPC  H12X21334   2.725   5.501   8.298  0.2567 -0.5961 -1.0475
  185SLPC  H12Y21335   2.551   5.467   8.332 -1.0851  0.8292 -0.5119
  185SLPC  C31321336   2.604   5.662   8.394 -0.3538  0.4665 -1.0453
  185SLPC  H13X21337   2.626   5.620   8.494 -1.0187  0.4306 -0.9109
  185SLPC  H13Y21338   2.500   5.699   8.389 -1.1141 -1.4904 -0.6757
  185SLPC  C31421339   2.694   5.784   8.375  0.2407  0.7497  0.3629
  185SLPC  H14X21340   2.664   5.838   8.284  0.1959  0.4423  0.1939
  185SLPC  H14Y21341   2.798   5.744   8.367 -0.3722 -0.8926  0.1704
  185SLPC  C31521342   2.715   5.870   8.504  0.1553  0.3344 -0.8012
  185SLPC  H15X21343   2.617   5.870   8.557 -0.4900  2.4353 -1.8884
  185SLPC  H15Y21344   2.736   5.971   8.463  1.9798 -0.5639 -2.2391
  185SLPC  C31621345   2.836   5.831   8.599 -0.3831 -0.0680 -0.2272
  185SLPC  H16X21346   2.937   5.824   8.552 -0.2614  1.7976 -0.3165
  185SLPC  H16Y21347   2.825   5.723   8.624  0.9159  0.1140  1.3055
  185SLPC  C31721348   2.862   5.921   8.723 -0.2166 -0.6374  0.5383
  185SLPC  H17X21349   2.775   5.913   8.791 -0.2744 -1.4518  0.3771
  185SLPC  H17Y21350   2.864   6.026   8.685 -1.0473 -0.1834  1.6863
  185SLPC  C31821351   2.994   5.883   8.800 -0.1352 -0.3967  0.3861
  185SLPC  H18X21352   3.085   5.901   8.739 -0.6315 -0.1629 -0.2932
  185SLPC  H18Y21353   2.994   5.777   8.831  0.7144 -0.8896 -1.1692
  185SLPC  H18Z21354   3.010   5.943   8.892 -1.7943  0.8580 -0.0911
  186SLPC     N21355   4.197   0.123   5.970  0.0858 -0.7751 -0.0665
  186SLPC   C1321356   4.248   0.011   5.881 -0.3153 -0.0481 -0.0840
  186SLPC  H13A21357   4.344   0.032   5.837 -0.4606  1.8367  0.4118
  186SLPC  H13B21358   4.247  -0.083   5.934 -2.5589 -0.3157 -0.4688
  186SLPC  H13C21359   4.176   0.008   5.800  0.5017  1.8323 -0.9257
  186SLPC   C1421360   4.042   0.123   5.974 -0.4748  0.3524  0.2741
  186SLPC  H14A21361   3.997   0.032   6.012 -0.7166 -0.7252 -2.3766
  186SLPC  H14B21362   4.002   0.203   6.034 -3.3308 -1.9097  1.6797
  186SLPC  H14C21363   4.002   0.144   5.876  0.5511 -3.5493 -1.1857
  186SLPC   C1521364   4.236   0.250   5.905  0.2339 -0.2963 -0.5098
  186SLPC  H15A21365   4.339   0.258   5.872  0.5039  0.1589  0.4122
  186SLPC  H15B21366   4.179   0.271   5.816  0.6516 -0.6447 -0.8635
  186SLPC  H15C21367   4.215   0.337   5.966  2.3766  0.2824 -0.5176
  186SLPC   C1221368   4.254   0.117   6.115 -0.3023  0.0934  0.7992
  186SLPC  H12A21369   4.214   0.025   6.154  2.0844 -1.6572 -0.6131
  186SLPC  H12B21370   4.223   0.197   6.181 -1.4110 -0.2043  0.6544
  186SLPC   C1121371   4.408   0.107   6.127 -0.2500  0.4065  0.4492
  186SLPC  H11A21372   4.416   0.109   6.238 -0.8992 -2.5786  0.6344
  186SLPC  H11B21373   4.464   0.193   6.084  0.8313  0.2700  1.5115
  186SLPC     P21374   4.440  -0.159   6.146 -0.4062  0.0796 -0.1448
  186SLPC   O1321375   4.303  -0.208   6.118  0.0480 -0.0418  0.2493
  186SLPC   O1421376   4.557  -0.246   6.119 -0.2335  0.0155 -0.3125
  186SLPC   O1221377   4.459  -0.020   6.080 -0.1516 -0.5428 -0.2637
  186SLPC   O1121378   4.451  -0.124   6.297 -0.3587 -0.4961 -0.0222
  186SLPC    C121379   4.378  -0.198   6.399  0.0451 -0.1776  0.4587
  186SLPC    HA21380   4.372  -0.304   6.366 -2.4776 -0.3407  1.2078
  186SLPC    HB21381   4.435  -0.204   6.494  3.0023 -2.7569 -1.2587
  186SLPC    C221382   4.231  -0.137   6.424 -1.0983  0.2033  0.2796
  186SLPC    HS21383   4.180  -0.152   6.326 -0.1849 -3.6035  0.1982
  186SLPC   O2121384   4.232  -0.001   6.473  0.3630 -0.5606 -0.3364
  186SLPC   C2121385   4.130   0.075   6.445  0.4698 -0.0862  0.4608
  186SLPC   O2221386   4.034   0.044   6.375 -0.0192  0.6485 -0.3662
  186SLPC   C2221387   4.131   0.208   6.524  0.2158  0.5126  0.5286
  186SLPC   H2R21388   4.201   0.203   6.609 -1.0619  0.2841  1.5945
  186SLPC   H2S21389   4.184   0.271   6.449  0.2468  2.0303  1.7800
  186SLPC    C321390   4.148  -0.227   6.522  0.5900  0.5910  0.0484
  186SLPC    HX21391   4.153  -0.329   6.477  0.2931 -0.2399  1.8305
  186SLPC    HY21392   4.043  -0.193   6.517  0.8890  1.4328 -1.3109
  186SLPC   O3121393   4.203  -0.226   6.649 -0.6644 -0.7694 -0.7925
  186SLPC   C3121394   4.127  -0.182   6.750  0.2193  0.3684 -0.0972
  186SLPC   O3221395   4.014  -0.144   6.738  0.3728 -0.4218 -0.4625
  186SLPC   C3221396   4.195  -0.199   6.888 -0.5953  0.0971 -0.5609
  186SLPC   H2X21397   4.127  -0.275   6.933  0.4162 -0.1520  0.5751
  186SLPC   H2Y21398   4.206  -0.102   6.940 -0.3761  0.2388 -0.8680
  186SLPC   C2321399   3.992   0.243   6.573  0.4109  1.5279 -0.7387
  186SLPC   H3R21400   3.918   0.268   6.494  0.3242  0.9831 -0.8362
  186SLPC   H3S21401   4.006   0.330   6.641  0.7546 -0.6260  2.1593
  186SLPC   C2421402   3.929   0.143   6.665 -0.9511  0.4395  0.1664
  186SLPC   H4R21403   3.998   0.116   6.748  0.3176 -0.5709 -1.1746
  186SLPC   H4S21404   3.905   0.051   6.607  1.3112  0.3705 -0.7836
  186SLPC   C2521405   3.786   0.187   6.716  0.1056 -0.2663 -0.1189
  186SLPC   H5R21406   3.708   0.213   6.641 -0.0318  0.1074  0.1476
  186SLPC   H5S21407   3.807   0.277   6.778  1.0076 -1.3782  1.2690
  186SLPC   C2621408   3.739   0.070   6.796 -0.0111  0.5372  0.3072
  186SLPC   H6R21409   3.818   0.011   6.848 -1.0986  0.4080  1.8748
  186SLPC   H6S21410   3.681  -0.009   6.745 -0.7721  0.3418  1.4458
  186SLPC   C2721411   3.648   0.109   6.922 -0.1464  0.8903 -0.0914
  186SLPC   H7R21412   3.577   0.185   6.882  1.3950  1.1656 -2.4982
  186SLPC   H7S21413   3.712   0.161   6.997 -1.4528  1.0865  0.9358
  186SLPC   C2821414   3.576  -0.017   6.983 -0.1403  0.5144 -0.6143
  186SLPC   H8R21415   3.512  -0.062   6.904 -1.3830  0.4400  0.4097
  186SLPC   H8S21416   3.504   0.032   7.053  0.0567  1.2727 -0.9272
  186SLPC   C2921417   3.674  -0.121   7.048  0.7694  0.1807  0.0543
  186SLPC   H9R21418   3.754  -0.152   6.979 -0.3570  1.9226 -2.1691
  186SLPC  C21021419   3.652  -0.176   7.171 -0.7569  0.3469  0.6681
  186SLPC  H10R21420   3.732  -0.227   7.227  0.1567  1.8087  0.7460
  186SLPC  C21121421   3.540  -0.146   7.272  0.4182 -0.5159 -0.0818
  186SLPC  H11R21422   3.454  -0.091   7.228  2.3374  1.1412 -2.0518
  186SLPC  H11S21423   3.575  -0.076   7.351  1.7827 -1.5046  0.2129
  186SLPC  C21221424   3.471  -0.275   7.324 -0.6089 -0.1563 -0.1973
  186SLPC  H12R21425   3.422  -0.330   7.242  1.5395  0.7825 -2.2422
  186SLPC  C21321426   3.487  -0.335   7.438 -0.6351  0.0176 -0.7201
  186SLPC  H13R21427   3.433  -0.429   7.452 -0.5267 -0.0936 -1.0327
  186SLPC  C21421428   3.578  -0.302   7.561  0.1721 -0.9692  0.2276
  186SLPC  H14R21429   3.526  -0.226   7.623  0.7825  1.3143 -1.8934
  186SLPC  H14S21430   3.676  -0.269   7.520 -0.3340 -2.0497 -2.0260
  186SLPC  C21521431   3.609  -0.428   7.640  0.5825  0.4409 -0.3747
  186SLPC  H15R21432   3.622  -0.524   7.584 -1.4277  0.7363 -1.4328
  186SLPC  H15S21433   3.514  -0.440   7.695 -0.4007  0.2444 -2.0357
  186SLPC  C21621434   3.730  -0.421   7.730 -0.5077 -0.4467 -0.4479
  186SLPC  H16R21435   3.740  -0.314   7.760 -0.8060 -0.2255 -1.1025
  186SLPC  H16S21436   3.822  -0.424   7.667  0.7876  1.6518  1.1939
  186SLPC  C21721437   3.741  -0.503   7.852 -0.5975 -0.4436  0.4093
  186SLPC  H17R21438   3.739  -0.612   7.836 -1.5472 -0.4597  0.5963
  186SLPC  H17S21439   3.656  -0.481   7.920 -0.3463 -2.3219  1.3948
  186SLPC  C21821440   3.863  -0.453   7.940 -0.1326 -0.2889  0.4643
  186SLPC  H18R21441   3.839  -0.370   8.010 -1.1514  1.4976 -1.8984
  186SLPC  H18S21442   3.955  -0.434   7.882  0.6607  0.8979  2.0189
  186SLPC  H18T21443   3.886  -0.542   8.003 -1.6102  0.2573  1.8541
  186SLPC   C3321444   4.337  -0.260   6.887 -0.0082 -0.7355  0.2881
  186SLPC   H3X21445   4.407  -0.182   6.852 -0.9021  0.3137  0.7824
  186SLPC   H3Y21446   4.340  -0.346   6.817  0.1801 -2.6445  2.5291
  186SLPC   C3421447   4.372  -0.320   7.021  0.6394 -0.1163 -0.4020
  186SLPC   H4X21448   4.482  -0.335   7.025  0.5942 -0.3407  0.0088
  186SLPC   H4Y21449   4.336  -0.425   7.021  0.7817 -0.1659 -0.9860
  186SLPC   C3521450   4.314  -0.257   7.147  0.0748 -0.4070  0.2903
  186SLPC   H5X21451   4.203  -0.269   7.148  0.0850 -0.5087  0.3277
  186SLPC   H5Y21452   4.336  -0.149   7.139 -1.4156 -0.1870 -1.6537
  186SLPC   C3621453   4.384  -0.307   7.273 -1.0934 -0.5458 -0.0210
  186SLPC   H6X21454   4.493  -0.297   7.257 -1.4125  0.1807 -1.9690
  186SLPC   H6Y21455   4.365  -0.416   7.290 -0.6600 -0.7351 -0.7318
  186SLPC   C3721456   4.365  -0.218   7.395 -0.6756 -0.5106  0.0249
  186SLPC   H7X21457   4.258  -0.190   7.410 -0.7574 -0.9729  0.3378
  186SLPC   H7Y21458   4.407  -0.120   7.367 -1.1310 -0.4465 -0.4453
  186SLPC   C3821459   4.416  -0.279   7.521 -0.3817 -0.0927 -0.7195
  186SLPC   H8X21460   4.524  -0.299   7.508  0.0214  0.6751  1.1009
  186SLPC   H8Y21461   4.362  -0.376   7.526  2.6269 -1.8383  2.0290
  186SLPC   C3921462   4.401  -0.186   7.644 -0.1048 -0.8178 -0.2148
  186SLPC   H9X21463   4.402  -0.082   7.605  0.6336 -0.1598  1.4921
  186SLPC   H9Y21464   4.494  -0.186   7.705  0.1977  0.1028 -0.6606
  186SLPC  C31021465   4.262  -0.199   7.707 -0.0514 -0.6126  0.1648
  186SLPC  H10X21466   4.187  -0.214   7.626 -1.3367  2.8131  0.5589
  186SLPC  H10Y21467   4.245  -0.106   7.765 -0.2773 -0.3844 -0.2605
  186SLPC  C31121468   4.251  -0.321   7.798  0.1642  0.0541 -0.3753
  186SLPC  H11X21469   4.286  -0.409   7.741  1.0146 -0.0483  0.2893
  186SLPC  H11Y21470   4.144  -0.340   7.822  1.0592 -2.3670  2.2386
  186SLPC  C31221471   4.330  -0.327   7.935  0.3554 -0.3624  0.2969
  186SLPC  H12X21472   4.438  -0.322   7.909  0.1332  1.4049 -0.3549
  186SLPC  H12Y21473   4.315  -0.431   7.972  1.8974 -0.3458  1.0676
  186SLPC  C31321474   4.294  -0.229   8.042 -0.3701 -0.3534 -0.3386
  186SLPC  H13X21475   4.210  -0.271   8.101  1.2371  1.8164  3.9711
  186SLPC  H13Y21476   4.264  -0.140   7.983  1.6967  0.9206  0.4194
  186SLPC  C31421477   4.402  -0.207   8.150 -0.5133  0.5687  0.3702
  186SLPC  H14X21478   4.501  -0.195   8.102 -0.0265 -0.0323  1.1988
  186SLPC  H14Y21479   4.414  -0.300   8.209  0.0424 -0.4448 -1.2666
  186SLPC  C31521480   4.375  -0.084   8.233  0.3125 -0.2719  0.2510
  186SLPC  H15X21481   4.358   0.005   8.168 -0.8612 -0.4954  0.2361
  186SLPC  H15Y21482   4.463  -0.060   8.296  0.6715 -1.2217  0.1280
  186SLPC  C31621483   4.248  -0.090   8.316  0.4285 -0.5332 -0.0622
  186SLPC  H16X21484   4.214  -0.196   8.324  1.6111 -0.9251 -0.0776
  186SLPC  H16Y21485   4.169  -0.033   8.263  0.0782 -1.6955 -0.8602
  186SLPC  C31721486   4.261  -0.030   8.455 -0.3957 -0.0112  0.1803
  186SLPC  H17X21487   4.353  -0.069   8.503  1.3305  1.2571 -1.9356
  186SLPC  H17Y21488   4.174  -0.061   8.517 -1.8897 -0.3854 -1.9932
  186SLPC  C31821489   4.274   0.126   8.473  0.7256 -0.7368 -0.4165
  186SLPC  H18X21490   4.338   0.174   8.397 -0.1591 -1.5966 -1.7469
  186SLPC  H18Y21491   4.308   0.156   8.574  1.0458  2.3517 -1.3600
  186SLPC  H18Z21492   4.169   0.160   8.465  0.8313 -0.0481  0.8721
  187SLPC     N21493   5.736   2.653   6.361  0.4855 -0.1557 -0.7898
  187SLPC   C1321494   5.630   2.761   6.360 -0.7176 -0.7027  0.4146
  187SLPC  H13A21495   5.663   2.862   6.380 -0.2525 -0.1681 -2.6883
  187SLPC  H13B21496   5.572   2.776   6.270 -1.6639  0.7800  1.2269
  187SLPC  H13C21497   5.560   2.740   6.440 -0.6202 -1.6441  0.2677
  187SLPC   C1421498   5.830   2.684   6.250 -0.2999  0.1786  0.4955
  187SLPC  H14A21499   5.921   2.629   6.264  0.5995  1.6812  0.7026
  187SLPC  H14B21500   5.783   2.640   6.163  1.1039 -2.0452  0.7868
  187SLPC  H14C21501   5.850   2.789   6.239  0.4351  0.1608  1.4948
  187SLPC   C1521502   5.675   2.520   6.334  0.0736  0.6442  0.4481
  187SLPC  H15A21503   5.757   2.450   6.324  0.4840  1.4602 -3.6066
  187SLPC  H15B21504   5.613   2.491   6.418 -1.4708 -1.5336 -1.3426
  187SLPC  H15C21505   5.625   2.511   6.239  1.2281  1.2994 -0.2423
  187SLPC   C1221506   5.817   2.668   6.490 -0.3081 -0.1462 -0.0187
  187SLPC  H12A21507   5.840   2.774   6.489  0.4170 -0.3012 -0.0724
  187SLPC  H12B21508   5.912   2.616   6.492 -1.0602 -1.5296  1.4442
  187SLPC   C1121509   5.749   2.634   6.622  0.0372  0.6024 -0.5142
  187SLPC  H11A21510   5.826   2.674   6.692 -0.7250  1.7332 -0.3006
  187SLPC  H11B21511   5.737   2.525   6.639 -0.6278  0.7976  0.3271
  187SLPC     P21512   5.615   2.836   6.713  0.5529  0.4506 -0.1339
  187SLPC   O1321513   5.706   2.936   6.656  0.0791  0.0339  0.6779
  187SLPC   O1421514   5.471   2.872   6.723 -0.3921  0.1647 -0.5512
  187SLPC   O1221515   5.626   2.698   6.641  0.3634 -0.2751  0.7352
  187SLPC   O1121516   5.663   2.810   6.863  0.5817  0.3531  0.1801
  187SLPC    C121517   5.596   2.694   6.928  0.0523  0.3224 -0.5530
  187SLPC    HA21518   5.489   2.720   6.940  0.0193 -0.5090  1.4213
  187SLPC    HB21519   5.609   2.596   6.876 -0.6408  0.3006 -0.7030
  187SLPC    C221520   5.663   2.665   7.070 -0.0541 -0.0532 -0.6500
  187SLPC    HS21521   5.606   2.578   7.111 -0.7374  0.3319 -0.7640
  187SLPC   O2121522   5.661   2.774   7.161 -0.6293  0.0755 -0.2060
  187SLPC   C2121523   5.539   2.803   7.196 -0.0064  0.0991 -0.1886
  187SLPC   O2221524   5.443   2.731   7.185  0.6054  0.2203  0.2687
  187SLPC   C2221525   5.546   2.927   7.283  0.1047 -0.5009  0.5033
  187SLPC   H2R21526   5.606   2.891   7.370  4.3832 -1.0237 -2.3445
  187SLPC   H2S21527   5.604   3.001   7.223 -0.8739 -0.7723 -0.8333
  187SLPC    C321528   5.813   2.631   7.042 -0.4484  0.4905 -0.2377
  187SLPC    HX21529   5.853   2.726   7.001 -1.2330  0.5926 -0.8067
  187SLPC    HY21530   5.814   2.560   6.956  0.1256  0.5626 -0.2886
  187SLPC   O3121531   5.892   2.599   7.157  0.5020  0.5982  0.4706
  187SLPC   C3121532   5.912   2.478   7.183  0.7800  0.8174  0.1821
  187SLPC   O3221533   5.857   2.383   7.128 -0.6214 -0.5023 -0.7276
  187SLPC   C3221534   6.020   2.466   7.295  1.0578  0.3687  0.8434
  187SLPC   H2X21535   5.983   2.541   7.368  0.2279  0.5827  0.2149
  187SLPC   H2Y21536   6.112   2.495   7.241 -0.2267 -0.4979 -1.9730
  187SLPC   C2321537   5.407   2.981   7.313 -0.1003 -0.5942  0.1814
  187SLPC   H3R21538   5.354   2.907   7.376  0.1024  0.0414  1.1186
  187SLPC   H3S21539   5.356   2.990   7.215 -1.2212  0.1908  0.8138
  187SLPC   C2421540   5.411   3.120   7.384  0.5789  0.4131  0.8305
  187SLPC   H4R21541   5.448   3.193   7.309 -0.1563 -0.1569 -0.1209
  187SLPC   H4S21542   5.489   3.108   7.462  0.1911 -1.9647  0.9462
  187SLPC   C2521543   5.281   3.149   7.453 -0.4142  0.0560  0.1526
  187SLPC   H5R21544   5.244   3.054   7.498  0.9561 -0.0460  1.1056
  187SLPC   H5S21545   5.202   3.178   7.380 -1.1272 -1.2142  0.3834
  187SLPC   C2621546   5.289   3.253   7.567  0.5808 -0.0053  0.2799
  187SLPC   H6R21547   5.188   3.297   7.582 -1.0990 -3.6687  0.9120
  187SLPC   H6S21548   5.353   3.334   7.528  0.6991 -1.0934 -1.9477
  187SLPC   C2721549   5.342   3.204   7.700 -0.1488  0.4023  0.0530
  187SLPC   H7R21550   5.446   3.167   7.683 -0.1102 -0.3465  1.7038
  187SLPC   H7S21551   5.290   3.113   7.736  1.0690  0.2907  1.6281
  187SLPC   C2821552   5.353   3.310   7.804  0.4046  0.1027  0.0674
  187SLPC   H8R21553   5.251   3.323   7.846  0.6679  1.4569  0.3507
  187SLPC   H8S21554   5.380   3.407   7.757 -0.7205  1.3958  1.9493
  187SLPC   C2921555   5.443   3.269   7.914  0.0829  0.0575  0.7852
  187SLPC   H9R21556   5.412   3.196   7.991  2.1468 -0.4574  1.1856
  187SLPC  C21021557   5.569   3.320   7.927 -1.2088  0.3882  0.2119
  187SLPC  H10R21558   5.628   3.306   8.019  1.6727 -0.6221 -1.6506
  187SLPC  C21121559   5.638   3.416   7.834 -0.5929  0.7166  0.0642
  187SLPC  H11R21560   5.713   3.476   7.890 -0.9491 -0.3749  1.8015
  187SLPC  H11S21561   5.565   3.498   7.820 -1.1084  0.5242  1.3869
  187SLPC  C21221562   5.685   3.352   7.702  1.4791  0.3028 -0.1872
  187SLPC  H12R21563   5.732   3.253   7.707  0.0024 -0.4595 -0.6700
  187SLPC  C21321564   5.662   3.416   7.582 -0.0635  0.2132 -1.1421
  187SLPC  H13R21565   5.705   3.370   7.492  1.1458  0.3064 -0.6319
  187SLPC  C21421566   5.597   3.545   7.558  0.4844 -0.5804  0.3707
  187SLPC  H14R21567   5.566   3.596   7.652  2.7398 -1.1078  1.4665
  187SLPC  H14S21568   5.516   3.542   7.482  1.5152  1.3473 -0.8860
  187SLPC  C21521569   5.708   3.643   7.507  0.3435 -0.1196  0.3913
  187SLPC  H15R21570   5.654   3.740   7.492  0.9599  0.1611 -0.0689
  187SLPC  H15S21571   5.732   3.606   7.406 -2.0552 -1.1122  0.1354
  187SLPC  C21621572   5.834   3.652   7.606 -0.0658  0.1552  0.0106
  187SLPC  H16R21573   5.879   3.551   7.612 -1.3469 -0.4945 -0.9107
  187SLPC  H16S21574   5.792   3.657   7.709 -2.0271 -2.5107 -0.5519
  187SLPC  C21721575   5.941   3.750   7.576  0.8895 -0.1640 -0.4335
  187SLPC  H17R21576   6.012   3.744   7.661 -1.6351  1.2849  1.9536
  187SLPC  H17S21577   5.891   3.849   7.571  2.7716  0.8248 -0.7597
  187SLPC  C21821578   6.015   3.723   7.447  0.7505  0.4676 -0.4252
  187SLPC  H18R21579   5.951   3.751   7.361 -0.8409  3.1713  1.4657
  187SLPC  H18S21580   6.048   3.617   7.449  0.2568  0.3051  1.2756
  187SLPC  H18T21581   6.108   3.784   7.454  0.1113  1.3124  1.1529
  187SLPC   C3321582   6.030   2.330   7.376 -0.2330  0.4555  1.1663
  187SLPC   H3X21583   6.050   2.243   7.309  0.0789 -1.2689  3.3967
  187SLPC   H3Y21584   5.938   2.306   7.434 -0.4786  0.4129  0.7625
  187SLPC   C3421585   6.169   2.340   7.450  0.2132 -0.1048 -0.4149
  187SLPC   H4X21586   6.169   2.426   7.521 -1.1744  0.4410 -1.0399
  187SLPC   H4Y21587   6.256   2.351   7.382  0.3144  1.0120 -0.1375
  187SLPC   C3521588   6.204   2.221   7.535  0.1975 -0.4647 -0.8320
  187SLPC   H5X21589   6.257   2.140   7.479 -0.9326 -2.9225  1.4624
  187SLPC   H5Y21590   6.105   2.184   7.566  0.9970 -1.1079  1.0558
  187SLPC   C3621591   6.296   2.256   7.656  0.7206  0.6756  0.3625
  187SLPC   H6X21592   6.269   2.359   7.686 -1.8276  0.9107 -2.1998
  187SLPC   H6Y21593   6.401   2.244   7.622  0.2513 -4.3428 -0.2063
  187SLPC   C3721594   6.278   2.165   7.779  1.0336 -0.2986  0.1869
  187SLPC   H7X21595   6.345   2.201   7.860 -0.8669 -1.3648  2.3496
  187SLPC   H7Y21596   6.178   2.176   7.827  1.5603 -2.1332  1.8673
  187SLPC   C3821597   6.308   2.018   7.763  0.4109 -0.9144 -0.5081
  187SLPC   H8X21598   6.403   1.997   7.709  0.3016 -1.2297 -0.5803
  187SLPC   H8Y21599   6.230   1.980   7.693  1.0985  1.8358 -2.9855
  187SLPC   C3921600   6.299   1.944   7.898 -0.2400  0.0422  0.3857
  187SLPC   H9X21601   6.393   1.958   7.955  1.7776  2.6126 -3.1290
  187SLPC   H9Y21602   6.309   1.837   7.870 -0.5387  0.1097 -0.0011
  187SLPC  C31021603   6.174   1.961   7.981  0.0069  0.0330  0.3866
  187SLPC  H10X21604   6.099   1.959   7.900 -0.4939  0.6118  0.8267
  187SLPC  H10Y21605   6.179   2.068   8.012 -0.7349  0.1465  0.1365
  187SLPC  C31121606   6.159   1.851   8.081 -0.1357 -0.0259 -0.2087
  187SLPC  H11X21607   6.251   1.842   8.144  0.9686 -2.3074 -1.9717
  187SLPC  H11Y21608   6.156   1.757   8.022  0.4763 -0.2000  0.0171
  187SLPC  C31221609   6.035   1.869   8.175  0.7107 -0.4766  0.4611
  187SLPC  H12X21610   5.944   1.885   8.114 -0.9800 -2.8079  2.1738
  187SLPC  H12Y21611   6.051   1.945   8.255  1.7710 -3.1723  3.0046
  187SLPC  C31321612   6.000   1.745   8.255 -0.7507  0.1261  0.2316
  187SLPC  H13X21613   6.070   1.732   8.341 -0.9794 -1.2277  0.2238
  187SLPC  H13Y21614   6.018   1.662   8.184 -1.7000 -1.9341  2.2742
  187SLPC  C31421615   5.859   1.743   8.311  0.4069  0.0246 -0.2311
  187SLPC  H14X21616   5.796   1.760   8.221  0.3122 -0.0194 -0.1743
  187SLPC  H14Y21617   5.844   1.828   8.381 -1.0873 -2.0028  2.0730
  187SLPC  C31521618   5.810   1.610   8.379  0.6338  0.2708  0.0604
  187SLPC  H15X21619   5.881   1.573   8.457  0.3330 -2.2603 -0.7840
  187SLPC  H15Y21620   5.804   1.536   8.297 -2.7107 -0.2607  0.6202
  187SLPC  C31621621   5.683   1.641   8.456 -0.3367  0.2811 -0.4682
  187SLPC  H16X21622   5.636   1.549   8.496 -0.8887  1.2335  1.1430
  187SLPC  H16Y21623   5.604   1.688   8.393 -1.6252 -0.4782  0.5449
  187SLPC  C31721624   5.707   1.735   8.576 -0.1890 -0.0867 -0.4333
  187SLPC  H17X21625   5.777   1.820   8.560  0.9401 -1.2466 -1.9147
  187SLPC  H17Y21626   5.764   1.672   8.648 -2.5334 -1.6354  0.1666
  187SLPC  C31821627   5.592   1.771   8.664 -0.3793 -0.0037  0.6866
  187SLPC  H18X21628   5.539   1.685   8.712 -0.5422 -1.2850 -1.6518
  187SLPC  H18Y21629   5.522   1.832   8.602  1.7601  2.6199  0.6787
  187SLPC  H18Z21630   5.624   1.835   8.749  1.3765  1.0257 -0.7016
  188SLPC     N21631   4.972   5.500   6.034  0.4925  0.3781  0.0741
  188SLPC   C1321632   4.966   5.375   5.947 -0.3869 -0.0750  0.2903
  188SLPC  H13A21633   5.049   5.309   5.968 -0.3417 -0.1255 -0.0451
  188SLPC  H13B21634   4.872   5.327   5.968  0.3165 -1.9849 -0.7145
  188SLPC  H13C21635   4.970   5.400   5.842 -2.9155  1.2372  0.4092
  188SLPC   C1421636   4.855   5.590   6.003 -0.4111  1.0759  0.1614
  188SLPC  H14A21637   4.762   5.544   6.033  1.5360 -2.8318  0.8922
  188SLPC  H14B21638   4.852   5.669   6.077 -1.6989  1.0435  0.1612
  188SLPC  H14C21639   4.855   5.617   5.899 -1.0518  0.2574 -0.0612
  188SLPC   C1521640   5.086   5.578   5.993 -0.0385  0.2857 -0.3925
  188SLPC  H15A21641   5.074   5.632   5.900  0.3172  1.1192  0.0488
  188SLPC  H15B21642   5.088   5.663   6.059  0.4099 -0.9416  1.2241
  188SLPC  H15C21643   5.177   5.520   6.003 -0.3549  0.2432  4.0494
  188SLPC   C1221644   4.981   5.461   6.179  0.7035 -0.3360 -0.9278
  188SLPC  H12A21645   5.074   5.414   6.207  1.1501  0.7350 -0.5372
  188SLPC  H12B21646   4.897   5.394   6.189 -0.7724  1.4873 -0.4385
  188SLPC   C1121647   4.968   5.572   6.287  0.0284  0.3800  0.6288
  188SLPC  H11A21648   5.058   5.636   6.278  0.2577  0.0025  0.1731
  188SLPC  H11B21649   4.963   5.522   6.386  1.1408  1.1722  1.1099
  188SLPC     P21650   4.698   5.574   6.320  0.1548 -0.0409  0.2018
  188SLPC   O1321651   4.609   5.688   6.303  0.1934  0.3936 -0.0358
  188SLPC   O1421652   4.666   5.459   6.237  0.5885  0.6915  0.2569
  188SLPC   O1221653   4.838   5.633   6.275  0.2293  0.5874  0.3798
  188SLPC   O1121654   4.722   5.527   6.473  0.1114 -0.1080  0.6387
  188SLPC    C121655   4.725   5.618   6.579 -0.2504  0.1926 -0.7148
  188SLPC    HA21656   4.652   5.700   6.560  0.0850  0.9373  1.0029
  188SLPC    HB21657   4.702   5.572   6.677  0.3502  0.9170 -0.2189
  188SLPC    C221658   4.862   5.684   6.601 -0.8024  0.1807 -0.5370
  188SLPC    HS21659   4.899   5.719   6.503  2.6145  3.2421  1.5792
  188SLPC   O2121660   4.960   5.581   6.650  0.0393 -0.3995 -0.1791
  188SLPC   C2121661   5.083   5.587   6.613 -0.2725 -1.3710 -0.0703
  188SLPC   O2221662   5.137   5.697   6.582  0.8007  0.1261  0.3980
  188SLPC   C2221663   5.153   5.456   6.644 -0.5720 -0.2672 -0.2923
  188SLPC   H2R21664   5.084   5.373   6.617 -2.3565  1.4232 -1.2051
  188SLPC   H2S21665   5.232   5.464   6.566 -0.5489 -0.2685 -0.2689
  188SLPC    C321666   4.871   5.805   6.700 -0.2994 -0.5569 -0.4222
  188SLPC    HX21667   4.797   5.869   6.647  0.1609 -0.2047 -0.6409
  188SLPC    HY21668   4.966   5.861   6.706 -0.1074 -0.7859 -1.2050
  188SLPC   O3121669   4.812   5.780   6.835 -0.3809  0.2025  0.4410
  188SLPC   C3121670   4.903   5.758   6.924 -0.1185 -0.3375 -0.0171
  188SLPC   O3221671   5.024   5.753   6.903 -0.1582 -0.6237  0.2484
  188SLPC   C3221672   4.837   5.740   7.067  0.1933  0.4820  0.5927
  188SLPC   H2X21673   4.814   5.632   7.064  2.6454 -0.1142  1.1583
  188SLPC   H2Y21674   4.747   5.806   7.061 -1.1900 -1.4514 -1.8485
  188SLPC   C2321675   5.220   5.435   6.786 -0.5314  0.5507 -0.2800
  188SLPC   H3R21676   5.289   5.515   6.818 -1.7228  0.9282  1.4688
  188SLPC   H3S21677   5.272   5.337   6.785 -0.2640  0.6601  1.2975
  188SLPC   C2421678   5.126   5.418   6.907  0.5187  0.4764 -0.6483
  188SLPC   H4R21679   5.043   5.344   6.904 -0.9887  1.8824  2.0168
  188SLPC   H4S21680   5.065   5.509   6.927  0.5148  0.1843  0.8020
  188SLPC   C2521681   5.209   5.380   7.025 -0.8373 -0.0784 -1.0731
  188SLPC   H5R21682   5.314   5.413   7.013 -0.1093 -0.8459  2.1708
  188SLPC   H5S21683   5.223   5.269   7.019 -0.0342 -0.0152 -0.4693
  188SLPC   C2621684   5.145   5.411   7.166 -0.3576 -0.4024  0.2156
  188SLPC   H6R21685   5.036   5.391   7.177 -0.0062 -2.4795  0.4495
  188SLPC   H6S21686   5.143   5.520   7.187 -0.8413 -0.5710  1.0781
  188SLPC   C2721687   5.223   5.347   7.278 -0.2676  0.2538 -0.7571
  188SLPC   H7R21688   5.331   5.371   7.269 -0.4921  1.4418 -0.4310
  188SLPC   H7S21689   5.204   5.239   7.264  2.9448 -0.8256  1.9689
  188SLPC   C2821690   5.178   5.386   7.426  0.1838 -0.6499 -0.5698
  188SLPC   H8R21691   5.072   5.359   7.449  0.0110  0.6958  0.3489
  188SLPC   H8S21692   5.197   5.495   7.434 -1.1927 -0.1645 -2.7437
  188SLPC   C2921693   5.262   5.314   7.531  0.8899 -0.3253 -0.2800
  188SLPC   H9R21694   5.341   5.376   7.577 -0.0182  0.3271  0.4256
  188SLPC  C21021695   5.240   5.186   7.566 -0.2814  0.1998 -0.6179
  188SLPC  H10R21696   5.296   5.139   7.648 -2.6463 -1.8073 -0.0343
  188SLPC  C21121697   5.137   5.096   7.511 -0.3105 -0.0729  0.2636
  188SLPC  H11R21698   5.100   5.134   7.413  1.6010  2.9038  0.5746
  188SLPC  H11S21699   5.049   5.083   7.578 -0.7897 -3.0876 -0.7833
  188SLPC  C21221700   5.194   4.956   7.463  0.0568 -0.2626  0.4477
  188SLPC  H12R21701   5.233   4.957   7.360 -1.8046 -0.7858 -0.2904
  188SLPC  C21321702   5.176   4.840   7.522  0.0825 -0.4212  0.0006
  188SLPC  H13R21703   5.214   4.748   7.474 -2.6447 -1.9797  0.6355
  188SLPC  C21421704   5.110   4.807   7.652 -0.3314 -0.7608 -0.2652
  188SLPC  H14R21705   5.063   4.707   7.647 -3.2572  0.5481 -5.5374
  188SLPC  H14S21706   5.028   4.878   7.673  0.3728 -0.1342  0.4257
  188SLPC  C21521707   5.196   4.833   7.778  0.9924 -0.4980  0.0787
  188SLPC  H15R21708   5.250   4.929   7.762  0.0408  0.0986  0.3872
  188SLPC  H15S21709   5.268   4.749   7.789 -0.1650 -1.3341  1.6041
  188SLPC  C21621710   5.119   4.865   7.910 -0.0664  0.1193 -0.3977
  188SLPC  H16R21711   5.033   4.928   7.879  0.7830  1.9339  0.7893
  188SLPC  H16S21712   5.185   4.926   7.975  0.3140 -1.1858  0.4955
  188SLPC  C21721713   5.067   4.738   7.990  0.6593  0.0414 -0.7272
  188SLPC  H17R21714   5.159   4.678   8.005  0.3582 -0.2109  0.1603
  188SLPC  H17S21715   4.992   4.690   7.924 -1.9049  0.2406  1.8713
  188SLPC  C21821716   5.005   4.777   8.126  0.2049  0.1521  0.6076
  188SLPC  H18R21717   4.907   4.829   8.118  0.5696  0.9337  1.0727
  188SLPC  H18S21718   5.079   4.831   8.189 -0.3953  1.4706  0.2205
  188SLPC  H18T21719   4.971   4.684   8.176 -0.0416 -1.3750 -2.2014
  188SLPC   C3321720   4.937   5.756   7.187 -0.0843  0.0865  0.1105
  188SLPC   H3X21721   5.013   5.834   7.165 -1.0886  1.5258  1.5503
  188SLPC   H3Y21722   4.990   5.659   7.194 -1.7359 -0.8500  0.0953
  188SLPC   C3421723   4.856   5.779   7.318 -0.8061 -0.5860 -0.4897
  188SLPC   H4X21724   4.765   5.716   7.319  0.1880 -2.1519 -2.0632
  188SLPC   H4Y21725   4.818   5.883   7.325 -0.6570 -0.5408 -0.3468
  188SLPC   C3521726   4.932   5.747   7.447  0.0642  0.0372  0.1466
  188SLPC   H5X21727   5.038   5.781   7.437  1.1692 -2.3192  2.4052
  188SLPC   H5Y21728   4.946   5.637   7.462 -0.3053 -0.2468 -1.4187
  188SLPC   C3621729   4.880   5.810   7.577  0.0459  0.5139 -0.2077
  188SLPC   H6X21730   4.783   5.764   7.605 -0.1873  0.3618 -1.2222
  188SLPC   H6Y21731   4.850   5.917   7.569 -1.0453  0.2367  0.0106
  188SLPC   C3721732   4.978   5.804   7.692  0.1606  0.3136 -0.3283
  188SLPC   H7X21733   5.082   5.839   7.675  0.8320  0.2699  3.0906
  188SLPC   H7Y21734   4.989   5.698   7.722 -1.5368  0.8274  2.4145
  188SLPC   C3821735   4.949   5.884   7.819  0.2066  0.4335 -0.6306
  188SLPC   H8X21736   4.848   5.854   7.855  0.0256  1.0904 -0.5660
  188SLPC   H8Y21737   4.949   5.994   7.798 -0.8902  0.3821 -0.9776
  188SLPC   C3921738   5.042   5.855   7.939 -0.0527  0.6478  0.1993
  188SLPC   H9X21739   5.140   5.871   7.890 -1.4838  0.6979 -2.8515
  188SLPC   H9Y21740   5.029   5.749   7.971 -0.4927  0.4614 -0.5677
  188SLPC  C31021741   5.027   5.948   8.066 -0.8704  0.1791 -0.3789
  188SLPC  H10X21742   4.941   5.938   8.136  0.0658 -0.9659  0.6474
  188SLPC  H10Y21743   5.023   6.055   8.036 -0.6738  0.3393  0.1548
  188SLPC  C31121744   5.153   5.937   8.153  0.3179 -0.2195 -0.2217
  188SLPC  H11X21745   5.235   5.959   8.081 -0.0377 -1.5837 -1.0680
  188SLPC  H11Y21746   5.161   5.836   8.197  1.6156  0.2339  0.6433
  188SLPC  C31221747   5.174   6.029   8.273  0.0654 -0.2508 -0.7721
  188SLPC  H12X21748   5.148   6.135   8.255  2.2435  0.6512  0.9588
  188SLPC  H12Y21749   5.283   6.024   8.293  0.1714  1.9059 -0.5617
  188SLPC  C31321750   5.109   5.981   8.406  0.1021 -0.2680  0.8596
  188SLPC  H13X21751   5.135   5.875   8.426 -3.6705 -1.6012 -0.5538
  188SLPC  H13Y21752   5.001   6.000   8.394  0.6639  1.7645 -1.8090
  188SLPC  C31421753   5.159   6.041   8.545  0.1005  0.1118  0.5093
  188SLPC  H14X21754   5.147   6.152   8.548 -2.7009  0.0343 -2.5347
  188SLPC  H14Y21755   5.269   6.021   8.545  0.1041  0.1014 -0.1869
  188SLPC  C31521756   5.092   5.984   8.670  0.3326  1.0560  0.2223
  188SLPC  H15X21757   5.104   6.034   8.768  0.2649 -0.9819  1.3379
  188SLPC  H15Y21758   5.141   5.884   8.673  0.6743  1.1143 -2.0389
  188SLPC  C31621759   4.939   5.968   8.652 -0.5546  0.7293  0.1469
  188SLPC  H16X21760   4.909   5.902   8.567 -1.5727 -1.5251  2.1582
  188SLPC  H16Y21761   4.898   6.070   8.637  0.8865  1.2004 -0.8143
  188SLPC  C31721762   4.864   5.899   8.765 -0.1742 -0.0482 -0.0308
  188SLPC  H17X21763   4.873   5.958   8.859  0.6239 -0.3986  0.1222
  188SLPC  H17Y21764   4.918   5.804   8.786  3.2837  1.6175 -0.6960
  188SLPC  C31821765   4.712   5.880   8.744 -0.4369 -0.4312 -0.4584
  188SLPC  H18X21766   4.686   5.796   8.812 -2.1267 -1.6705 -2.5041
  188SLPC  H18Y21767   4.690   5.836   8.645  3.2923 -1.2674 -1.0605
  188SLPC  H18Z21768   4.657   5.973   8.768 -0.2636 -0.8187  1.6929
  189SLPC     N21769   2.066   1.059   5.987  0.6075 -0.4430  0.3932
  189SLPC   C1321770   2.069   1.192   5.911 -0.8562 -0.8030  0.0448
  189SLPC  H13A21771   2.129   1.190   5.821 -1.8439  2.6093 -0.8432
  189SLPC  H13B21772   1.974   1.227   5.875 -1.2738 -1.3799  0.5773
  189SLPC  H13C21773   2.111   1.268   5.976  0.7280 -0.5163 -1.2378
  189SLPC   C1421774   2.209   1.019   6.011 -0.8033 -0.1920  0.1105
  189SLPC  H14A21775   2.261   0.982   5.924 -0.8749  2.7818 -1.3284
  189SLPC  H14B21776   2.262   1.107   6.045 -0.1500 -0.2587 -0.7182
  189SLPC  H14C21777   2.217   0.943   6.087  0.7357 -0.7110 -0.5398
  189SLPC   C1521778   1.993   0.960   5.906  0.0755  0.8258  0.2678
  189SLPC  H15A21779   2.029   0.929   5.809 -1.9228 -0.0169 -0.2652
  189SLPC  H15B21780   1.983   0.863   5.953  0.2888  0.3944 -0.5618
  189SLPC  H15C21781   1.891   0.987   5.883  1.0053  2.1607 -2.7955
  189SLPC   C1221782   1.992   1.081   6.118  0.6632 -0.0709 -0.3014
  189SLPC  H12A21783   1.988   0.989   6.174  0.8565 -0.3886 -0.8036
  189SLPC  H12B21784   1.885   1.093   6.107  0.7499  0.2437 -0.8008
  189SLPC   C1121785   2.029   1.193   6.218 -0.7116  0.3306  0.1262
  189SLPC  H11A21786   2.139   1.193   6.231 -0.7657 -0.4262  0.6324
  189SLPC  H11B21787   1.990   1.170   6.320 -2.3380  1.0190 -0.3034
  189SLPC     P21788   1.852   1.376   6.199 -0.4532 -0.5443  0.1674
  189SLPC   O1321789   1.844   1.519   6.160  0.2421  0.4162  0.6713
  189SLPC   O1421790   1.750   1.291   6.132  0.4654 -0.5336  0.0230
  189SLPC   O1221791   1.998   1.322   6.170 -0.0871  0.7760  0.6174
  189SLPC   O1121792   1.831   1.357   6.356  0.4670 -0.0446  0.4262
  189SLPC    C121793   1.892   1.450   6.442 -1.3608 -0.0156 -0.6908
  189SLPC    HA21794   1.953   1.395   6.516  0.9719 -0.0869 -2.5404
  189SLPC    HB21795   1.966   1.525   6.405 -2.6169  1.0167 -1.1775
  189SLPC    C221796   1.790   1.537   6.521  0.2703  0.8043 -0.4608
  189SLPC    HS21797   1.846   1.579   6.607 -1.4570 -0.4476  1.3644
  189SLPC   O2121798   1.676   1.460   6.565  0.7826  0.2809 -0.0415
  189SLPC   C2121799   1.691   1.407   6.688 -0.1182  0.2950 -0.2341
  189SLPC   O2221800   1.791   1.424   6.758  0.4897  0.1934 -0.5178
  189SLPC   C2221801   1.561   1.317   6.723  0.2481 -0.2225 -0.2774
  189SLPC   H2R21802   1.491   1.390   6.768 -0.4297 -1.8280  1.4041
  189SLPC   H2S21803   1.526   1.267   6.631 -0.7481 -3.4076  1.6726
  189SLPC    C321804   1.731   1.646   6.423 -0.1318  0.0646  0.3952
  189SLPC    HX21805   1.669   1.604   6.342  1.2431  0.8267 -1.1157
  189SLPC    HY21806   1.812   1.692   6.362  0.8160 -1.0655  0.7643
  189SLPC   O3121807   1.645   1.739   6.486 -0.3312 -0.0118 -0.5383
  189SLPC   C3121808   1.711   1.844   6.536  0.9016 -0.0646 -0.5593
  189SLPC   O3221809   1.829   1.862   6.523 -0.4462 -0.0473 -0.3878
  189SLPC   C3221810   1.614   1.937   6.605  0.2915 -1.3332  0.1025
  189SLPC   H2X21811   1.510   1.922   6.571  0.2778 -0.1481 -0.4074
  189SLPC   H2Y21812   1.651   2.038   6.576 -1.0836 -1.0775 -0.8283
  189SLPC   C2321813   1.587   1.218   6.837 -0.4833  0.3316 -0.0461
  189SLPC   H3R21814   1.689   1.175   6.826  0.0676  1.8822 -1.3881
  189SLPC   H3S21815   1.507   1.140   6.839 -1.0751  0.9271  2.5022
  189SLPC   C2421816   1.562   1.283   6.973  0.6707 -0.7492  0.1661
  189SLPC   H4R21817   1.463   1.333   6.967  1.3051  0.3389 -2.3345
  189SLPC   H4S21818   1.637   1.365   6.983 -1.8182  1.4197  3.1933
  189SLPC   C2521819   1.563   1.188   7.100 -0.1535 -0.0459  0.0125
  189SLPC   H5R21820   1.657   1.130   7.091  0.2359  0.7715 -1.8505
  189SLPC   H5S21821   1.478   1.119   7.080  0.1878 -0.4178 -0.1499
  189SLPC   C2621822   1.533   1.258   7.238 -0.1774 -0.2798  0.3769
  189SLPC   H6R21823   1.436   1.311   7.231 -1.1263 -1.7171  1.9556
  189SLPC   H6S21824   1.613   1.334   7.258 -1.8221  1.4708  0.5811
  189SLPC   C2721825   1.557   1.163   7.361  0.4577  0.3066  0.2815
  189SLPC   H7R21826   1.662   1.128   7.347  0.9630  2.1115 -0.8405
  189SLPC   H7S21827   1.490   1.075   7.352 -1.3817  1.5941  0.7616
  189SLPC   C2821828   1.543   1.235   7.487  0.6062  0.0924  0.3584
  189SLPC   H8R21829   1.623   1.312   7.487  0.2695  0.4454  0.6760
  189SLPC   H8S21830   1.566   1.167   7.571 -1.2006  1.3249  1.9414
  189SLPC   C2921831   1.398   1.287   7.503 -0.7778  0.6274 -0.0101
  189SLPC   H9R21832   1.355   1.334   7.413 -0.1847  0.0900 -0.5820
  189SLPC  C21021833   1.319   1.263   7.606 -0.4898 -0.4054 -0.2288
  189SLPC  H10R21834   1.214   1.296   7.596 -0.7477 -0.7683  1.1653
  189SLPC  C21121835   1.359   1.183   7.727 -0.3739  0.3066  0.8488
  189SLPC  H11R21836   1.400   1.089   7.682  1.7410  2.1977 -1.4425
  189SLPC  H11S21837   1.259   1.164   7.773 -0.1096  0.7428  1.6062
  189SLPC  C21221838   1.449   1.250   7.826  0.6907  0.3262  0.8380
  189SLPC  H12R21839   1.494   1.343   7.788  1.8582 -1.0811 -1.4443
  189SLPC  C21321840   1.487   1.196   7.938  0.1104 -0.1263  0.0015
  189SLPC  H13R21841   1.540   1.263   8.007  0.7321  0.3913 -0.9543
  189SLPC  C21421842   1.439   1.073   8.001 -0.8578  0.1497  0.8425
  189SLPC  H14R21843   1.529   1.008   7.993  1.7288  3.6755 -2.5333
  189SLPC  H14S21844   1.354   1.035   7.941  0.8578 -1.6060 -0.6255
  189SLPC  C21521845   1.378   1.091   8.140 -0.1341 -0.0566  0.0745
  189SLPC  H15R21846   1.449   1.143   8.208  1.2402 -0.4724 -0.9970
  189SLPC  H15S21847   1.361   0.985   8.172 -0.2723 -0.2536 -0.6434
  189SLPC  C21621848   1.239   1.163   8.148 -0.0658 -0.7443  0.4300
  189SLPC  H16R21849   1.163   1.099   8.100 -1.0711  1.7162 -1.4997
  189SLPC  H16S21850   1.235   1.257   8.088 -2.4386 -1.6778 -1.0299
  189SLPC  C21721851   1.194   1.187   8.292  0.5395 -0.3528  0.4046
  189SLPC  H17R21852   1.097   1.243   8.297 -0.6160 -2.3718  2.3770
  189SLPC  H17S21853   1.272   1.244   8.347  2.4631 -1.5315 -0.9784
  189SLPC  C21821854   1.176   1.053   8.366 -1.0741  0.2252 -0.0158
  189SLPC  H18R21855   1.265   0.989   8.350 -0.3396  0.9738  0.9806
  189SLPC  H18S21856   1.078   1.001   8.353 -1.0317 -0.3513  1.6815
  189SLPC  H18T21857   1.170   1.086   8.472 -0.8759  0.6617 -0.1380
  189SLPC   C3321858   1.606   1.923   6.754 -0.1275  0.2314  0.6841
  189SLPC   H3X21859   1.554   2.014   6.790 -1.5078  0.5286 -1.8520
  189SLPC   H3Y21860   1.708   1.930   6.795  0.0462 -0.5140  0.4078
  189SLPC   C3421861   1.541   1.796   6.803  0.3216  0.1157  0.0129
  189SLPC   H4X21862   1.614   1.715   6.781 -0.4203 -0.7143  0.5328
  189SLPC   H4Y21863   1.447   1.790   6.744  0.0920  2.6140  0.0384
  189SLPC   C3521864   1.513   1.787   6.955  0.4317 -0.7012  0.4816
  189SLPC   H5X21865   1.464   1.688   6.965  0.4971 -0.6684  1.1783
  189SLPC   H5Y21866   1.445   1.868   6.990  0.0819 -0.4933 -0.6404
  189SLPC   C3621867   1.637   1.783   7.045 -0.1222  0.1659 -0.3974
  189SLPC   H6X21868   1.689   1.880   7.042  2.1957 -0.9361  1.1429
  189SLPC   H6Y21869   1.708   1.703   7.017 -1.1772 -1.4185  1.1891
  189SLPC   C3721870   1.606   1.757   7.198 -0.2168  0.1258  0.1465
  189SLPC   H7X21871   1.543   1.843   7.231 -0.4829  0.3233 -0.8496
  189SLPC   H7Y21872   1.698   1.755   7.260  0.4731 -2.0717 -0.8605
  189SLPC   C3821873   1.523   1.634   7.239 -0.7316  0.4367 -0.2056
  189SLPC   H8X21874   1.590   1.548   7.218 -0.5254  0.8175 -1.1547
  189SLPC   H8Y21875   1.439   1.639   7.166 -1.0447  0.6279  0.1642
  189SLPC   C3921876   1.464   1.637   7.380  0.0209  0.5091  0.1960
  189SLPC   H9X21877   1.410   1.540   7.391 -0.7202  0.8368 -0.4295
  189SLPC   H9Y21878   1.388   1.717   7.386 -1.4201 -0.8357  0.6218
  189SLPC  C31021879   1.563   1.656   7.494 -0.1338  0.3205 -0.2963
  189SLPC  H10X21880   1.623   1.749   7.486 -1.6779  1.5334  1.4319
  189SLPC  H10Y21881   1.634   1.570   7.502 -1.9164 -1.1398  0.7166
  189SLPC  C31121882   1.479   1.636   7.623 -0.4202  0.2781  0.7355
  189SLPC  H11X21883   1.424   1.540   7.622  1.3978 -0.8037  1.1572
  189SLPC  H11Y21884   1.404   1.718   7.616  0.7646  1.2809 -1.0699
  189SLPC  C31221885   1.565   1.628   7.750  0.3025 -0.0082  0.4487
  189SLPC  H12X21886   1.630   1.718   7.758  0.3829 -0.0144 -0.0774
  189SLPC  H12Y21887   1.627   1.536   7.738  1.1172  0.6127 -0.2358
  189SLPC  C31321888   1.468   1.620   7.871 -0.0937 -0.4228 -0.1048
  189SLPC  H13X21889   1.391   1.543   7.852  1.5145 -1.5647 -2.5822
  189SLPC  H13Y21890   1.427   1.723   7.878 -0.9488 -0.8165  0.7237
  189SLPC  C31421891   1.549   1.580   8.006  0.3029  0.8258  0.2238
  189SLPC  H14X21892   1.607   1.668   8.041 -0.0326  1.0431  0.2327
  189SLPC  H14Y21893   1.627   1.503   7.986  0.8624  1.5033 -0.2540
  189SLPC  C31521894   1.456   1.542   8.129  0.1730 -0.0450 -0.3912
  189SLPC  H15X21895   1.411   1.440   8.131  0.0834 -0.0167  1.6825
  189SLPC  H15Y21896   1.372   1.614   8.122  0.1504  0.0848  0.9883
  189SLPC  C31621897   1.513   1.565   8.272 -0.6492  0.4563 -0.2423
  189SLPC  H16X21898   1.521   1.676   8.269  0.9305  0.3838  0.4473
  189SLPC  H16Y21899   1.617   1.526   8.276 -0.5681  0.3003 -2.5418
  189SLPC  C31721900   1.428   1.495   8.383 -0.2637 -0.3596  0.0795
  189SLPC  H17X21901   1.419   1.385   8.369  0.0303 -0.6828  2.1278
  189SLPC  H17Y21902   1.329   1.544   8.368 -0.0118  0.8154  1.9897
  189SLPC  C31821903   1.481   1.538   8.515 -0.1206  0.9353  0.0205
  189SLPC  H18X21904   1.478   1.648   8.528  2.0115  1.4070 -2.6208
  189SLPC  H18Y21905   1.587   1.510   8.531  0.0259  0.2214 -1.9028
  189SLPC  H18Z21906   1.415   1.497   8.595  0.2392 -0.4820 -0.3906
  190SLPC     N21907   6.053   5.869   6.004 -0.2351  0.2801  0.1429
  190SLPC   C1321908   6.000   5.730   5.999 -0.2758  0.7333  0.7606
  190SLPC  H13A21909   6.060   5.670   5.932 -2.8654 -1.7572  0.4758
  190SLPC  H13B21910   6.006   5.682   6.096 -1.6803 -0.2064  0.4091
  190SLPC  H13C21911   5.895   5.724   5.976  0.2194 -3.5356 -1.5187
  190SLPC   C1421912   6.039   5.943   5.871  0.7113 -0.0840 -0.3855
  190SLPC  H14A21913   6.082   6.042   5.879  0.9664 -0.3602  3.8526
  190SLPC  H14B21914   6.082   5.889   5.788 -0.7015  0.8963 -1.8134
  190SLPC  H14C21915   5.935   5.954   5.844  0.1616 -2.5177  0.4361
  190SLPC   C1521916   6.203   5.861   6.034 -0.4661 -0.5590  0.1473
  190SLPC  H15A21917   6.214   5.789   6.114  1.7537 -0.9311 -0.4251
  190SLPC  H15B21918   6.268   5.813   5.962 -1.1675 -2.1870  0.5332
  190SLPC  H15C21919   6.229   5.964   6.049 -1.2627 -0.4087  0.5758
  190SLPC   C1221920   5.998   5.961   6.118  0.4917 -0.0056  0.2356
  190SLPC  H12A21921   6.014   5.914   6.214  1.0791  1.0214  0.6533
  190SLPC  H12B21922   5.891   5.968   6.110  0.2237 -2.1769  1.1321
  190SLPC   C1121923   6.051   6.106   6.124 -0.4326 -0.6610  0.9689
  190SLPC  H11A21924   5.987   6.161   6.196  0.8630  0.7040  1.1434
  190SLPC  H11B21925   6.033   6.150   6.023  0.8356  1.9015  1.7598
  190SLPC     P21926   6.259   6.253   6.118  0.4247  0.3914  0.0611
  190SLPC   O1321927   6.309   6.230   5.983 -0.0822 -0.1386  0.0827
  190SLPC   O1421928   6.179   6.373   6.144 -0.2712 -0.2133  0.1385
  190SLPC   O1221929   6.189   6.111   6.155 -0.0611  0.0648 -0.3533
  190SLPC   O1121930   6.388   6.262   6.209  0.0066 -0.3152  0.5547
  190SLPC    C121931   6.483   6.152   6.217 -0.2015 -0.4151  0.4342
  190SLPC    HA21932   6.444   6.054   6.182  1.6132 -0.5398 -1.4292
  190SLPC    HB21933   6.567   6.169   6.145 -0.1113 -0.8445  0.4324
  190SLPC    C221934   6.553   6.133   6.355 -0.7785  0.1031  0.1187
  190SLPC    HS21935   6.480   6.087   6.425 -2.1224  2.4097  0.3189
  190SLPC   O2121936   6.603   6.257   6.410  0.1007  0.0831 -0.1398
  190SLPC   C2121937   6.617   6.258   6.541  0.2735  0.3352 -0.2443
  190SLPC   O2221938   6.555   6.188   6.621  0.2257 -0.2811 -0.2804
  190SLPC   C2221939   6.725   6.357   6.566 -0.6215  0.3381 -0.7008
  190SLPC   H2R21940   6.820   6.314   6.604  0.0134  1.5880 -0.8166
  190SLPC   H2S21941   6.750   6.416   6.475 -1.8015  0.8014 -0.7427
  190SLPC    C321942   6.672   6.026   6.359 -0.0710 -0.0589  0.8104
  190SLPC    HX21943   6.759   6.081   6.316 -0.6749  0.3660  0.1055
  190SLPC    HY21944   6.647   5.941   6.292  2.5380  1.5425 -2.4846
  190SLPC   O3121945   6.711   5.994   6.495  0.0785  0.1322  0.1259
  190SLPC   C3121946   6.635   5.889   6.550  0.2257 -0.4680  0.3177
  190SLPC   O3221947   6.554   5.820   6.494 -0.4771  0.1577 -0.3617
  190SLPC   C3221948   6.671   5.879   6.702 -0.1883  0.4184  0.1121
  190SLPC   H2X21949   6.620   5.964   6.751 -0.6945 -0.6944  1.6128
  190SLPC   H2Y21950   6.781   5.892   6.709  0.2800 -2.3875 -0.6816
  190SLPC   C2321951   6.684   6.456   6.685 -0.5005  0.3165 -0.4071
  190SLPC   H3R21952   6.574   6.477   6.684 -0.9034 -1.5765  0.2513
  190SLPC   H3S21953   6.737   6.552   6.668  1.8603 -0.7887  0.3166
  190SLPC   C2421954   6.717   6.412   6.828  0.5121 -0.4790  0.3219
  190SLPC   H4R21955   6.828   6.403   6.828  0.7635  1.9396 -0.0340
  190SLPC   H4S21956   6.656   6.322   6.853 -0.6158  0.5081  1.2182
  190SLPC   C2521957   6.688   6.524   6.932  0.3096 -0.1452 -0.0282
  190SLPC   H5R21958   6.577   6.534   6.939  0.3839  1.2308 -0.5296
  190SLPC   H5S21959   6.729   6.620   6.895  1.5284 -0.3754  0.6799
  190SLPC   C2621960   6.737   6.497   7.075 -0.1348 -0.2573  0.3628
  190SLPC   H6R21961   6.838   6.450   7.073 -0.2644 -0.5787  1.0698
  190SLPC   H6S21962   6.670   6.422   7.122 -1.2551  1.2347  1.2417
  190SLPC   C2721963   6.742   6.620   7.165 -0.0584 -0.7332 -0.0487
  190SLPC   H7R21964   6.633   6.642   7.174 -0.2617 -0.9728 -1.6937
  190SLPC   H7S21965   6.779   6.709   7.110 -2.5023  1.6054  1.8194
  190SLPC   C2821966   6.814   6.612   7.296 -0.1994  0.5117 -0.6678
  190SLPC   H8R21967   6.790   6.702   7.356 -1.6585 -1.1394  1.3897
  190SLPC   H8S21968   6.922   6.601   7.272 -0.4209 -0.5306 -1.2793
  190SLPC   C2921969   6.783   6.491   7.383  0.8859  0.3973 -0.3350
  190SLPC   H9R21970   6.680   6.456   7.374 -0.1724  3.0986  0.3435
  190SLPC  C21021971   6.862   6.451   7.484  0.1217  0.0797  0.0713
  190SLPC  H10R21972   6.826   6.371   7.550  1.4008 -2.5864 -2.2710
  190SLPC  C21121973   6.994   6.513   7.527  0.1334 -0.0435 -0.0776
  190SLPC  H11R21974   7.045   6.520   7.429 -0.2529 -1.2557 -0.3854
  190SLPC  H11S21975   7.046   6.437   7.590  0.1449 -0.1913 -0.2636
  190SLPC  C21221976   7.012   6.649   7.595 -0.0684  0.1031  0.0105
  190SLPC  H12R21977   7.104   6.701   7.566 -0.4785  1.1905  0.6210
  190SLPC  C21321978   6.923   6.710   7.670 -0.5523  0.3027 -0.3084
  190SLPC  H13R21979   6.952   6.803   7.722  0.0353  0.9919 -1.8135
  190SLPC  C21421980   6.783   6.657   7.715 -0.0945 -0.0072  0.3064
  190SLPC  H14R21981   6.728   6.622   7.626 -1.6891  2.2433  0.3322
  190SLPC  H14S21982   6.718   6.742   7.744  1.7663  2.3065 -1.8696
  190SLPC  C21521983   6.770   6.546   7.823 -0.2730 -0.7205 -0.5356
  190SLPC  H15R21984   6.806   6.585   7.921 -2.0990 -2.4338  0.9183
  190SLPC  H15S21985   6.818   6.453   7.786  0.5471 -0.4794 -0.1009
  190SLPC  C21621986   6.620   6.499   7.849 -0.7025 -0.9701  0.3567
  190SLPC  H16R21987   6.572   6.477   7.751 -1.1087 -1.2990  0.6272
  190SLPC  H16S21988   6.570   6.592   7.885 -0.9137 -0.0010 -2.2456
  190SLPC  C21721989   6.596   6.373   7.926  0.3280 -0.1143  0.1716
  190SLPC  H17R21990   6.649   6.287   7.880 -0.5951  0.7729 -2.8143
  190SLPC  H17S21991   6.487   6.355   7.938  0.0453 -0.0280 -1.9179
  190SLPC  C21821992   6.644   6.379   8.069  0.2636  0.2041 -0.0131
  190SLPC  H18R21993   6.582   6.449   8.129 -0.7649  0.2906 -1.1421
  190SLPC  H18S21994   6.750   6.412   8.076  0.8214 -1.6428  0.7054
  190SLPC  H18T21995   6.628   6.283   8.122  0.4987 -0.3843 -0.9944
  190SLPC   C3321996   6.626   5.737   6.757 -0.1115  1.1871 -0.3866
  190SLPC   H3X21997   6.684   5.666   6.695 -0.1862  2.5260 -2.0590
  190SLPC   H3Y21998   6.516   5.727   6.745 -0.0946 -0.3368  0.5625
  190SLPC   C3421999   6.652   5.713   6.904  0.6048 -1.0031 -0.2367
  190SLPC   H4X22000   6.762   5.715   6.921  0.4390 -0.4978  0.8707
  190SLPC   H4Y22001   6.616   5.611   6.930  1.7477 -2.0702 -2.5606
  190SLPC   C3522002   6.588   5.813   7.005  0.0681 -0.0338  0.3590
  190SLPC   H5X22003   6.486   5.840   6.972  0.1961  0.6483  0.5099
  190SLPC   H5Y22004   6.645   5.908   6.993  0.8115 -0.6401 -1.1132
  190SLPC   C3622005   6.591   5.772   7.147  0.8708  0.8441  0.3105
  190SLPC   H6X22006   6.572   5.864   7.206 -0.0697  0.5266  0.5272
  190SLPC   H6Y22007   6.687   5.719   7.166  0.4744 -0.6948 -1.5639
  190SLPC   C3722008   6.470   5.686   7.188 -0.2542 -0.3132  0.1240
  190SLPC   H7X22009   6.490   5.594   7.130  1.2232  0.3074 -0.4026
  190SLPC   H7Y22010   6.370   5.725   7.161  0.0414  0.8704  0.6603
  190SLPC   C3822011   6.477   5.651   7.341 -0.3443 -0.0878  0.5187
  190SLPC   H8X22012   6.573   5.597   7.356  0.4895  1.0959 -0.3446
  190SLPC   H8Y22013   6.395   5.581   7.363 -2.8572  2.2920 -0.6719
  190SLPC   C3922014   6.464   5.773   7.430  0.1565 -0.0562  0.5416
  190SLPC   H9X22015   6.367   5.824   7.408  1.9027  2.6216 -1.6841
  190SLPC   H9Y22016   6.540   5.850   7.404  0.1881 -0.0582  0.6289
  190SLPC  C31022017   6.490   5.738   7.575 -0.2382 -0.5224  0.3521
  190SLPC  H10X22018   6.595   5.704   7.586  0.2542  0.8137 -0.0327
  190SLPC  H10Y22019   6.433   5.648   7.606 -0.6433 -0.4505 -0.1759
  190SLPC  C31122020   6.468   5.844   7.680  0.5082 -0.8434 -0.5287
  190SLPC  H11X22021   6.358   5.859   7.668  0.5783 -1.8645 -3.1372
  190SLPC  H11Y22022   6.517   5.941   7.655  1.4642 -1.4045 -0.8899
  190SLPC  C31222023   6.506   5.789   7.817 -0.4232  0.5307  0.1480
  190SLPC  H12X22024   6.611   5.754   7.821 -0.1724  0.9987 -1.4973
  190SLPC  H12Y22025   6.441   5.708   7.856  2.3073 -1.6573  0.4116
  190SLPC  C31322026   6.496   5.913   7.924 -0.1854  0.6933  0.4385
  190SLPC  H13X22027   6.574   5.983   7.888  0.9592 -0.8377 -0.1922
  190SLPC  H13Y22028   6.531   5.877   8.023  1.1295  0.9783  0.0937
  190SLPC  C31422029   6.355   5.953   7.951  0.6397  0.3604  0.1106
  190SLPC  H14X22030   6.294   5.864   7.976  0.0390  0.8376  0.3797
  190SLPC  H14Y22031   6.312   5.999   7.860  0.0266  1.9778  1.1625
  190SLPC  C31522032   6.334   6.055   8.066 -0.9099  1.0175 -0.6928
  190SLPC  H15X22033   6.399   6.141   8.036  0.9816 -0.7810 -2.0527
  190SLPC  H15Y22034   6.365   6.016   8.165 -0.3524 -2.5164 -2.1210
  190SLPC  C31622035   6.191   6.099   8.093 -0.6860  0.1526 -0.4809
  190SLPC  H16X22036   6.133   6.013   8.133  1.8420 -0.7400  1.5554
  190SLPC  H16Y22037   6.141   6.130   7.999 -0.3246  0.9412 -0.4224
  190SLPC  C31722038   6.182   6.216   8.190 -0.0435  0.0833 -0.0951
  190SLPC  H17X22039   6.273   6.207   8.254  1.6092  2.5224 -1.9176
  190SLPC  H17Y22040   6.093   6.206   8.255 -0.2547 -0.7170 -0.4920
  190SLPC  C31822041   6.197   6.358   8.116  0.7142 -0.6675  0.3292
  190SLPC  H18X22042   6.289   6.350   8.055  0.2581  0.4244 -0.5443
  190SLPC  H18Y22043   6.209   6.441   8.189  0.8571 -1.2957  1.0359
  190SLPC  H18Z22044   6.119   6.382   8.041  0.2929  1.4894  1.3839
  191SLPC     N22045   2.929   2.457   6.183 -0.6317  0.0358 -0.2948
  191SLPC   C1322046   2.945   2.610   6.208 -0.1716  0.7844  0.2377
  191SLPC  H13A22047   2.953   2.615   6.316  1.3393 -0.8744  0.2406
  191SLPC  H13B22048   3.031   2.662   6.168 -0.5222  0.3143 -1.1940
  191SLPC  H13C22049   2.862   2.670   6.174 -0.4971  0.3926  0.3271
  191SLPC   C1422050   2.917   2.434   6.036  0.3678 -0.3550 -0.0590
  191SLPC  H14A22051   2.992   2.494   5.986  0.8890  0.4222  1.5741
  191SLPC  H14B22052   2.936   2.329   6.018 -0.0658 -0.5747  0.7163
  191SLPC  H14C22053   2.824   2.465   5.992 -0.9789 -0.3503  2.5644
  191SLPC   C1522054   2.811   2.393   6.253 -0.3876  0.1076  0.6037
  191SLPC  H15A22055   2.819   2.407   6.360 -0.7161 -0.0497  0.6505
  191SLPC  H15B22056   2.720   2.436   6.214  0.3226  0.2814 -0.9136
  191SLPC  H15C22057   2.828   2.288   6.236  0.4697  0.3167  0.1322
  191SLPC   C1222058   3.062   2.408   6.239 -0.7215 -0.0363 -1.5068
  191SLPC  H12A22059   3.062   2.403   6.347 -1.2974 -1.8594 -1.5552
  191SLPC  H12B22060   3.137   2.481   6.212 -1.4500  1.6731  0.7788
  191SLPC   C1122061   3.108   2.267   6.195  0.7665  0.0042  0.5115
  191SLPC  H11A22062   3.029   2.196   6.227  0.8103 -1.3746 -2.1716
  191SLPC  H11B22063   3.203   2.235   6.244  0.8894 -1.4059 -0.5786
  191SLPC     P22064   3.147   2.130   5.972  0.0478 -0.0627 -0.0330
  191SLPC   O1322065   3.095   2.150   5.833  0.5107  0.3521 -0.8486
  191SLPC   O1422066   3.290   2.088   5.985  0.0803 -0.0383 -0.5378
  191SLPC   O1222067   3.130   2.266   6.052 -0.3603  0.0908 -1.0016
  191SLPC   O1122068   3.057   2.029   6.048 -0.3937 -0.3837 -0.6362
  191SLPC    C122069   3.090   1.889   6.072  0.8266  0.4024  0.3495
  191SLPC    HA22070   3.035   1.821   6.003  1.2074  0.6679 -0.2220
  191SLPC    HB22071   3.200   1.875   6.063  0.5220 -2.2182 -0.0925
  191SLPC    C222072   3.051   1.849   6.209  0.1394 -0.0508  0.1420
  191SLPC    HS22073   2.941   1.846   6.217  0.0417 -0.3881 -1.1825
  191SLPC   O2122074   3.116   1.940   6.302 -0.9514  0.2037 -0.6314
  191SLPC   C2122075   3.036   1.975   6.407 -0.9549 -0.2115 -0.1012
  191SLPC   O2222076   2.915   1.975   6.404 -0.2527  0.4921 -0.0166
  191SLPC   C2222077   3.116   2.024   6.533  0.2624  1.2145  0.6442
  191SLPC   H2R22078   3.207   1.962   6.547  0.9588  1.9623 -0.3777
  191SLPC   H2S22079   3.150   2.127   6.509  0.1717  0.7170 -1.9880
  191SLPC    C322080   3.102   1.706   6.243 -0.6143  0.6214 -0.3780
  191SLPC    HX22081   3.212   1.718   6.237 -0.6011  0.6683 -0.0550
  191SLPC    HY22082   3.068   1.633   6.166  2.1273 -0.8569 -0.3287
  191SLPC   O3122083   3.062   1.673   6.374 -0.2843 -0.4446 -0.0269
  191SLPC   C3122084   3.076   1.552   6.410  0.5547  0.4345 -0.3661
  191SLPC   O3222085   3.108   1.455   6.339  0.0808 -0.1865 -0.0214
  191SLPC   C3222086   3.048   1.551   6.560  0.0743  0.2434  0.4083
  191SLPC   H2X22087   2.967   1.477   6.575  0.1671  0.1423  0.4132
  191SLPC   H2Y22088   2.999   1.648   6.586  0.2319  0.4774 -0.1317
  191SLPC   C2322089   3.041   2.025   6.663 -0.5198 -0.2101 -0.2940
  191SLPC   H3R22090   3.038   1.923   6.709 -2.2345 -0.5261 -1.0049
  191SLPC   H3S22091   2.938   2.061   6.643 -0.1461  0.8542 -0.3695
  191SLPC   C2422092   3.102   2.130   6.761 -0.7863  0.1912 -0.9557
  191SLPC   H4R22093   3.091   2.233   6.721  1.7051  0.5920 -0.7973
  191SLPC   H4S22094   3.210   2.106   6.770 -0.6191  0.4084 -2.2333
  191SLPC   C2522095   3.045   2.143   6.904  0.4642 -0.4418 -0.5650
  191SLPC   H5R22096   3.113   2.205   6.966 -1.2631 -2.4787  3.8186
  191SLPC   H5S22097   3.046   2.037   6.938  4.2003  0.2784  2.2836
  191SLPC   C2622098   2.905   2.203   6.903  0.8921 -0.1308 -0.3188
  191SLPC   H6R22099   2.831   2.144   6.845 -1.5464  0.3801  2.0264
  191SLPC   H6S22100   2.911   2.308   6.870  1.3127  0.2156  0.8072
  191SLPC   C2722101   2.829   2.202   7.045  0.6743  0.4832 -0.4049
  191SLPC   H7R22102   2.902   2.246   7.116  1.2281 -0.8739 -0.1224
  191SLPC   H7S22103   2.824   2.096   7.077 -0.1598  0.9315  1.0286
  191SLPC   C2822104   2.690   2.274   7.050 -0.8615  0.0893 -0.2281
  191SLPC   H8R22105   2.634   2.237   7.139 -0.5095  1.3463  0.5308
  191SLPC   H8S22106   2.626   2.249   6.962 -1.5214  0.0160  0.2654
  191SLPC   C2922107   2.704   2.427   7.048  0.4747 -0.1409  0.5662
  191SLPC   H9R22108   2.740   2.463   6.951  0.1721 -0.4981  0.3170
  191SLPC  C21022109   2.669   2.503   7.149 -0.8562  0.1810  0.6301
  191SLPC  H10R22110   2.683   2.610   7.131  1.8055 -0.2648 -0.3872
  191SLPC  C21122111   2.616   2.464   7.287  0.5306 -0.8218 -0.1285
  191SLPC  H11R22112   2.699   2.455   7.359  0.5973  2.9342  0.4616
  191SLPC  H11S22113   2.573   2.361   7.288 -0.2972 -0.4793  0.2735
  191SLPC  C21222114   2.529   2.584   7.327 -0.5616  0.3832  0.3344
  191SLPC  H12R22115   2.516   2.676   7.268  0.3279  1.1433  1.2861
  191SLPC  C21322116   2.465   2.582   7.443 -0.0132  0.0185 -0.9291
  191SLPC  H13R22117   2.405   2.671   7.468  1.0711  0.5093  0.0731
  191SLPC  C21422118   2.461   2.472   7.548 -0.7638 -0.4617 -0.0802
  191SLPC  H14R22119   2.530   2.387   7.530 -0.1699  0.0072 -0.0313
  191SLPC  H14S22120   2.359   2.440   7.579 -0.8347  0.0607  0.2524
  191SLPC  C21522121   2.512   2.521   7.679 -0.1616 -0.1239 -0.3319
  191SLPC  H15R22122   2.476   2.455   7.760 -1.5745 -0.5812 -1.3040
  191SLPC  H15S22123   2.468   2.620   7.706 -0.0536 -0.3430  0.7088
  191SLPC  C21622124   2.664   2.518   7.697 -0.3483  0.9154  0.9080
  191SLPC  H16R22125   2.708   2.603   7.642  0.5405 -0.4097 -0.4948
  191SLPC  H16S22126   2.719   2.432   7.654  1.4002  1.5542  1.7498
  191SLPC  C21722127   2.712   2.516   7.841  0.0122  0.2824  0.6377
  191SLPC  H17R22128   2.641   2.462   7.908  0.4024  0.7652  1.4513
  191SLPC  H17S22129   2.702   2.620   7.878 -0.5306  0.6354 -0.4589
  191SLPC  C21822130   2.855   2.468   7.870 -0.6242 -0.2735  0.1248
  191SLPC  H18R22131   2.880   2.492   7.976 -1.5011  0.5510  0.1563
  191SLPC  H18S22132   2.924   2.509   7.794 -0.8372 -2.2366 -1.2214
  191SLPC  H18T22133   2.868   2.360   7.847  0.3045  0.5546 -3.9444
  191SLPC   C3322134   3.173   1.549   6.640  0.1003 -0.3345  0.4571
  191SLPC   H3X22135   3.247   1.631   6.625 -0.8078  0.8604  2.1634
  191SLPC   H3Y22136   3.223   1.453   6.614 -0.8091 -0.5214 -0.7276
  191SLPC   C3422137   3.147   1.555   6.799 -0.3061  0.5006  0.5250
  191SLPC   H4X22138   3.078   1.638   6.824  1.2210  0.8975  3.9556
  191SLPC   H4Y22139   3.239   1.590   6.851 -1.1444  4.0524 -0.1062
  191SLPC   C3522140   3.084   1.426   6.854 -0.0035  0.1534 -0.7687
  191SLPC   H5X22141   3.131   1.333   6.817 -0.0480  0.6708 -2.1667
  191SLPC   H5Y22142   2.975   1.414   6.837 -0.2655  1.2199  0.0122
  191SLPC   C3622143   3.086   1.436   7.009  0.0321  0.1674 -0.3016
  191SLPC   H6X22144   3.027   1.519   7.053 -0.5899 -0.5298  0.2247
  191SLPC   H6Y22145   3.190   1.457   7.041  0.0985  0.6045 -0.7969
  191SLPC   C3722146   3.039   1.302   7.081  0.7051 -0.6967 -0.4021
  191SLPC   H7X22147   3.077   1.215   7.024  3.6100 -0.2985  0.7223
  191SLPC   H7Y22148   2.929   1.303   7.066  0.3990  2.3191  1.2179
  191SLPC   C3822149   3.069   1.314   7.231 -0.3353  0.8607  0.2528
  191SLPC   H8X22150   3.020   1.403   7.277 -3.8536 -1.2075  0.8696
  191SLPC   H8Y22151   3.178   1.332   7.243 -0.4763  1.3822  0.8697
  191SLPC   C3922152   3.033   1.186   7.305 -0.7342  0.3177  0.5338
  191SLPC   H9X22153   3.068   1.096   7.250 -0.3898  0.0727  1.1402
  191SLPC   H9Y22154   2.923   1.174   7.296 -0.9291  1.6850  0.8892
  191SLPC  C31022155   3.075   1.189   7.453  0.2003 -0.0733  0.6219
  191SLPC  H10X22156   3.019   1.102   7.493  1.7545 -1.9950 -1.1834
  191SLPC  H10Y22157   3.035   1.275   7.511 -0.6541 -0.0111 -0.0376
  191SLPC  C31122158   3.226   1.170   7.491  0.0389  0.5224 -0.4227
  191SLPC  H11X22159   3.275   1.254   7.436 -2.6749  2.2433 -0.3907
  191SLPC  H11Y22160   3.268   1.071   7.465 -0.0843 -0.0001  1.2402
  191SLPC  C31222161   3.256   1.180   7.641 -0.6446 -0.5519  0.6219
  191SLPC  H12X22162   3.214   1.279   7.669  2.1490  0.4399  1.6413
  191SLPC  H12Y22163   3.365   1.185   7.658 -0.8888 -1.1531  2.5715
  191SLPC  C31322164   3.200   1.063   7.734 -0.8061 -0.1066  0.0549
  191SLPC  H13X22165   3.235   0.966   7.692 -0.4269 -0.1809  0.5331
  191SLPC  H13Y22166   3.094   1.071   7.703 -0.4700  1.6005 -0.7939
  191SLPC  C31422167   3.225   1.069   7.885  0.2393 -0.0285 -0.1589
  191SLPC  H14X22168   3.183   1.165   7.921 -0.2494  0.1181 -1.0928
  191SLPC  H14Y22169   3.332   1.070   7.914 -0.7097  0.9213  3.9098
  191SLPC  C31522170   3.161   0.948   7.962  0.4273 -0.1800 -0.2242
  191SLPC  H15X22171   3.189   0.854   7.910  1.8761 -1.0427  1.9452
  191SLPC  H15Y22172   3.051   0.966   7.961  0.5414  0.7094 -1.9445
  191SLPC  C31622173   3.189   0.957   8.118 -0.1852  1.1558 -0.3083
  191SLPC  H16X22174   3.151   1.054   8.157 -2.4635  0.3796 -0.4800
  191SLPC  H16Y22175   3.300   0.966   8.127  0.0274  0.6346 -2.0152
  191SLPC  C31722176   3.136   0.851   8.209 -0.0353 -0.3380 -0.1349
  191SLPC  H17X22177   3.160   0.749   8.172 -0.6433 -0.6746  0.3782
  191SLPC  H17Y22178   3.025   0.860   8.206 -0.0250 -0.3349 -0.4906
  191SLPC  C31822179   3.189   0.864   8.357  0.1691 -0.5145  0.0994
  191SLPC  H18X22180   3.107   0.829   8.423  1.1172  0.5472  1.9184
  191SLPC  H18Y22181   3.204   0.972   8.380  0.1145 -0.4558 -0.1395
  191SLPC  H18Z22182   3.290   0.820   8.368  1.0137  0.8842 -1.5384
  192SLPC     N22183   1.974   2.310   6.217  0.1112 -0.2558  0.4119
  192SLPC   C1322184   2.117   2.339   6.207 -0.0205 -0.3946  0.1285
  192SLPC  H13A22185   2.151   2.369   6.305  0.1911  0.5832 -0.2299
  192SLPC  H13B22186   2.173   2.256   6.166  1.6738  0.3556  0.8425
  192SLPC  H13C22187   2.141   2.422   6.142 -0.0491 -1.2513 -1.0209
  192SLPC   C1422188   1.914   2.285   6.084 -0.1694 -0.1242  0.2250
  192SLPC  H14A22189   1.957   2.345   6.005  0.8071 -2.4563 -1.1123
  192SLPC  H14B22190   1.937   2.183   6.058  0.2018 -0.6251  2.3417
  192SLPC  H14C22191   1.806   2.287   6.090 -0.4807 -2.9351 -2.2783
  192SLPC   C1522192   1.899   2.435   6.263  0.4211 -0.0130 -0.0472
  192SLPC  H15A22193   1.795   2.412   6.279  0.6286  0.0524  1.5232
  192SLPC  H15B22194   1.931   2.474   6.358  2.8934 -2.9551  0.4781
  192SLPC  H15C22195   1.907   2.516   6.191 -1.5077  0.5506  0.3297
  192SLPC   C1222196   1.942   2.193   6.310 -0.1342 -0.1891 -0.7930
  192SLPC  H12A22197   1.976   2.100   6.268 -0.3615 -0.7600  0.2306
  192SLPC  H12B22198   1.835   2.176   6.312 -0.0832 -0.5937 -1.4010
  192SLPC   C1122199   1.991   2.198   6.465 -0.4484  0.6798 -0.3373
  192SLPC  H11A22200   2.094   2.154   6.468 -0.0769  1.4637 -1.0896
  192SLPC  H11B22201   1.938   2.120   6.524 -1.0372 -0.9716 -2.8709
  192SLPC     P22202   2.064   2.390   6.625  0.5404 -0.1735 -0.0738
  192SLPC   O1322203   2.165   2.440   6.534 -0.3230 -0.1375  0.6742
  192SLPC   O1422204   1.985   2.492   6.698  0.3758 -0.3484  0.0931
  192SLPC   O1222205   1.956   2.315   6.533 -0.6521  0.6469  0.4426
  192SLPC   O1122206   2.132   2.288   6.724  0.3738  1.3719  0.4216
  192SLPC    C122207   2.061   2.192   6.804 -0.2795  0.6250  0.2899
  192SLPC    HA22208   1.992   2.131   6.742  0.2173  0.0843  0.2686
  192SLPC    HB22209   2.139   2.129   6.852 -0.7518 -0.0274  0.2081
  192SLPC    C222210   1.986   2.250   6.927 -0.2931  0.5971  0.4842
  192SLPC    HS22211   1.907   2.321   6.896  0.7814  1.6221 -0.0071
  192SLPC   O2122212   2.079   2.311   7.017  0.4586  0.3142  0.5420
  192SLPC   C2122213   2.032   2.408   7.077 -0.0286 -0.8582  0.3316
  192SLPC   O2222214   1.923   2.469   7.060 -0.5443  0.7246  0.1577
  192SLPC   C2222215   2.149   2.456   7.172  0.3929 -0.1290  0.9701
  192SLPC   H2R22216   2.228   2.380   7.190  0.5035 -0.0018  1.0240
  192SLPC   H2S22217   2.204   2.541   7.126 -0.2756  0.4546  1.2421
  192SLPC    C322218   1.928   2.133   7.006 -0.0251  0.8146  0.0823
  192SLPC    HX22219   2.004   2.059   7.038 -0.4588  0.8014  1.1174
  192SLPC    HY22220   1.860   2.070   6.944  0.6343  0.8404 -0.6789
  192SLPC   O3122221   1.850   2.179   7.121  0.6142  0.1233 -0.0260
  192SLPC   C3122222   1.733   2.236   7.088 -0.1683 -0.5305 -0.2420
  192SLPC   O3222223   1.692   2.247   6.976 -0.0779 -0.2756  0.1616
  192SLPC   C3222224   1.648   2.272   7.211 -0.1262  0.0221 -0.4298
  192SLPC   H2X22225   1.545   2.231   7.199  1.1430 -2.9599 -1.9870
  192SLPC   H2Y22226   1.650   2.382   7.232  1.3855 -0.3665  1.8489
  192SLPC   C2322227   2.101   2.502   7.309 -0.1068  0.5849 -0.2433
  192SLPC   H3R22228   2.006   2.558   7.296 -2.4772 -2.8950  0.7037
  192SLPC   H3S22229   2.173   2.579   7.346  1.9864 -0.8635 -1.0930
  192SLPC   C2422230   2.086   2.391   7.420  1.0839 -0.5961  0.0095
  192SLPC   H4R22231   2.190   2.359   7.438  0.7470 -0.4924  2.6211
  192SLPC   H4S22232   2.024   2.313   7.370  0.6044 -0.4361  0.3366
  192SLPC   C2522233   2.009   2.451   7.543  0.2014 -0.9882  0.6675
  192SLPC   H5R22234   1.902   2.420   7.535  0.8335 -3.1826  0.1512
  192SLPC   H5S22235   2.019   2.561   7.546  1.5009 -1.0116 -1.2106
  192SLPC   C2622236   2.065   2.400   7.673 -0.0239  0.6697  0.5085
  192SLPC   H6R22237   1.987   2.411   7.752 -1.1212  0.2415 -0.4808
  192SLPC   H6S22238   2.154   2.459   7.705 -0.6888  1.6516  0.6138
  192SLPC   C2722239   2.109   2.252   7.689 -0.4201  0.7303 -0.6315
  192SLPC   H7R22240   2.185   2.217   7.615  0.2035 -1.4170  0.9155
  192SLPC   H7S22241   2.020   2.190   7.662 -0.0710  0.0518 -0.2649
  192SLPC   C2822242   2.153   2.221   7.833 -0.4281 -0.4959  0.2591
  192SLPC   H8R22243   2.142   2.112   7.848  0.6510 -0.4590  1.5232
  192SLPC   H8S22244   2.091   2.262   7.916 -0.2521 -1.6687  0.9954
  192SLPC   C2922245   2.301   2.239   7.847 -0.6156 -0.1596 -0.5246
  192SLPC   H9R22246   2.362   2.255   7.757  1.4474 -0.0101  0.8377
  192SLPC  C21022247   2.367   2.223   7.960  0.0006 -0.2985 -0.7347
  192SLPC  H10R22248   2.476   2.229   7.962 -0.0808  2.2664 -0.6300
  192SLPC  C21122249   2.297   2.197   8.094  0.8197 -0.3822 -0.4539
  192SLPC  H11R22250   2.189   2.174   8.083  0.3096 -0.0286  2.8206
  192SLPC  H11S22251   2.307   2.295   8.144  1.8876 -0.0610 -1.2439
  192SLPC  C21222252   2.362   2.095   8.180 -0.1203 -0.0932 -0.2906
  192SLPC  H12R22253   2.444   2.040   8.133 -0.4016 -0.2052 -0.6554
  192SLPC  C21322254   2.310   2.058   8.302  0.1759  0.4996  0.2981
  192SLPC  H13R22255   2.367   1.979   8.353 -0.4248  0.1559  0.4447
  192SLPC  C21422256   2.187   2.104   8.370  0.5941  0.6445 -0.0728
  192SLPC  H14R22257   2.120   2.154   8.297  0.6784  0.3559 -0.3503
  192SLPC  H14S22258   2.200   2.175   8.455  1.9585  0.0975  0.2049
  192SLPC  C21522259   2.103   1.990   8.434 -0.2584 -1.4009  0.0072
  192SLPC  H15R22260   2.162   1.946   8.518  0.9182  0.4044  0.1970
  192SLPC  H15S22261   2.074   1.913   8.360 -1.7243  2.5204 -3.9376
  192SLPC  C21622262   1.976   2.056   8.497 -0.0854 -0.0976 -0.1636
  192SLPC  H16R22263   1.994   2.157   8.538  0.0166 -0.0681 -0.2824
  192SLPC  H16S22264   1.938   1.997   8.583 -1.7271  0.8608 -0.2010
  192SLPC  C21722265   1.857   2.061   8.400  0.4274  0.1521 -0.0421
  192SLPC  H17R22266   1.776   2.128   8.437  1.2947  1.2593 -0.0800
  192SLPC  H17S22267   1.893   2.108   8.306  1.8965 -1.8311 -0.5379
  192SLPC  C21822268   1.783   1.930   8.372  0.4445  0.0110 -0.6717
  192SLPC  H18R22269   1.742   1.891   8.468 -2.2085  0.8061 -1.3993
  192SLPC  H18S22270   1.855   1.854   8.336  0.0505 -2.7797  3.6766
  192SLPC  H18T22271   1.698   1.936   8.301 -0.8061 -1.1408  0.6707
  192SLPC   C3322272   1.707   2.206   7.337  0.3759  0.4925  0.0902
  192SLPC   H3X22273   1.813   2.238   7.346  0.5295  0.6459 -1.9283
  192SLPC   H3Y22274   1.709   2.096   7.324 -1.1003  0.3419  0.9139
  192SLPC   C3422275   1.623   2.227   7.465  0.0033 -0.3030  0.3939
  192SLPC   H4X22276   1.513   2.212   7.455  0.0988 -0.7289 -0.0140
  192SLPC   H4Y22277   1.643   2.330   7.503 -1.0569 -0.7694  2.3415
  192SLPC   C3522278   1.670   2.128   7.581  0.1482  0.5496  0.5785
  192SLPC   H5X22279   1.780   2.121   7.567 -0.0498  0.1633 -0.8960
  192SLPC   H5Y22280   1.628   2.025   7.574  1.6067 -0.0514  0.2302
  192SLPC   C3622281   1.618   2.176   7.713  0.6881  0.3080 -0.0622
  192SLPC   H6X22282   1.508   2.158   7.709  0.9830 -1.4496 -1.7927
  192SLPC   H6Y22283   1.633   2.284   7.729  2.0402  0.2001 -0.4941
  192SLPC   C3722284   1.668   2.087   7.823 -0.3918  0.3051 -0.0362
  192SLPC   H7X22285   1.655   1.977   7.809  2.6789 -0.5054  2.3444
  192SLPC   H7Y22286   1.606   2.128   7.906 -0.1307  1.5198 -0.4274
  192SLPC   C3822287   1.817   2.111   7.865  0.1000 -0.0155 -0.2516
  192SLPC   H8X22288   1.824   2.216   7.899  1.1689 -0.2317  0.2027
  192SLPC   H8Y22289   1.883   2.098   7.776  0.8798 -0.5327  0.3970
  192SLPC   C3922290   1.873   2.012   7.967 -0.8340  0.0846  0.2086
  192SLPC   H9X22291   1.803   2.004   8.052 -0.4923 -2.0698  0.3494
  192SLPC   H9Y22292   1.969   2.055   8.000 -1.1900  1.5909 -0.6023
  192SLPC  C31022293   1.891   1.873   7.902 -0.2643  0.3050  0.2609
  192SLPC  H10X22294   1.933   1.883   7.800  1.9062 -2.3784  0.7724
  192SLPC  H10Y22295   1.794   1.831   7.867 -0.0314  0.5935 -0.7508
  192SLPC  C31122296   1.966   1.770   7.985  0.2347  1.1293 -0.2345
  192SLPC  H11X22297   1.939   1.671   7.943 -0.4403  0.8266  0.8542
  192SLPC  H11Y22298   1.926   1.770   8.089 -1.3781 -2.4987 -0.6819
  192SLPC  C31222299   2.113   1.784   7.986  0.0658 -0.0075 -0.2536
  192SLPC  H12X22300   2.171   1.701   8.033  0.2890  0.4953  0.3761
  192SLPC  H12Y22301   2.144   1.875   8.042 -0.7248 -1.0701  2.0741
  192SLPC  C31322302   2.174   1.795   7.844 -0.0329 -0.3637 -0.7153
  192SLPC  H13X22303   2.129   1.873   7.779 -0.8377 -0.8717 -0.7788
  192SLPC  H13Y22304   2.156   1.698   7.793  2.2668 -2.1999  1.6331
  192SLPC  C31422305   2.327   1.806   7.852 -0.6024  1.1072  1.1918
  192SLPC  H14X22306   2.352   1.706   7.894 -2.9098  0.6934  1.7127
  192SLPC  H14Y22307   2.359   1.886   7.923  0.7400  0.1486  1.7159
  192SLPC  C31522308   2.383   1.845   7.722  0.3902  0.4132  0.8148
  192SLPC  H15X22309   2.367   1.945   7.677  2.5834 -0.6314 -2.7089
  192SLPC  H15Y22310   2.354   1.762   7.655 -1.0527 -1.4047  3.5166
  192SLPC  C31622311   2.537   1.830   7.725  0.5500 -0.0084  0.3974
  192SLPC  H16X22312   2.572   1.824   7.620  1.8787  1.8562  0.6616
  192SLPC  H16Y22313   2.549   1.730   7.772  1.7446  0.6313  1.5220
  192SLPC  C31722314   2.612   1.934   7.803 -0.0507  0.4325 -0.0209
  192SLPC  H17X22315   2.568   1.954   7.903 -0.0553  2.7866 -0.4196
  192SLPC  H17Y22316   2.607   2.033   7.752  0.5043  1.7532  2.3351
  192SLPC  C31822317   2.759   1.897   7.823  0.5398  0.0355 -0.1936
  192SLPC  H18X22318   2.811   1.864   7.731 -0.9356  1.3249 -1.5624
  192SLPC  H18Y22319   2.770   1.821   7.903  1.0348  0.6476  0.3359
  192SLPC  H18Z22320   2.816   1.987   7.854  0.4108  0.3574 -0.8665
  193SOD    SOD22321   1.372   5.444  14.222 -0.2711 -0.3154 -0.2618
  194SOD    SOD22322   2.521   0.363  10.679 -0.3134 -0.1832  0.1207
  195SOD    SOD22323   2.795   3.674   6.587 -0.3533 -0.1841 -0.0858
  196SOD    SOD22324   3.950   1.731  16.247 -0.0667 -0.3587 -0.3177
  197SOD    SOD22325   0.202   3.157  13.787 -0.2629  0.2670  0.0688
  198SOD    SOD22326   2.970   6.201  11.459 -0.0285  0.2563  0.1212
  199SOD    SOD22327   6.381   4.777  11.911 -0.3789  0.0050 -0.0495
  200SOD    SOD22328   3.091   4.682  15.511 -0.3658 -0.2948 -0.3099
  201SOD    SOD22329   4.819   0.751  12.312 -0.0976  0.6313  0.1056
  202SOD    SOD22330   6.544   1.043  15.504 -0.0982 -0.3252 -0.7065
  203SOD    SOD22331   0.311   3.197   5.755 -0.1920  0.1336 -0.0164
  204SOD    SOD22332   2.945   2.652   1.406 -0.3793 -0.0557  0.3528
  205SOD    SOD22333   5.455   0.008   5.016  0.5296 -0.1128 -0.1645
  206SOD    SOD22334   6.723   3.407  15.640 -0.3703  0.8571  0.0595
  207SOD    SOD22335   5.815   3.206  14.407  0.2053 -0.3755 -0.1399
  208SOD    SOD22336   2.880   4.296  13.330 -0.0483 -0.0340  0.6581
  209SOD    SOD22337   2.504   5.846   1.980  0.0185  0.1346 -0.1057
  210SOD    SOD22338   0.159   4.755   0.745  0.2423  0.1403 -0.3680
  211SOD    SOD22339   2.694   6.010   1.209  0.0844 -0.1626  0.3260
  212SOD    SOD22340   4.939   3.799  13.112 -0.0762 -0.0541  0.0786
  213SOD    SOD22341   0.458   1.248   4.824  0.1483 -0.0966  0.5832
  214SOD    SOD22342   0.198   0.878  10.669  0.1398  0.1840 -0.0423
  215SOD    SOD22343   5.618   4.980  11.181  0.4709  0.1509  0.6498
  216SOD    SOD22344   6.851   6.259   5.642  0.2756 -0.1554 -0.0310
  217SOD    SOD22345   0.837   3.917  16.971 -0.0300 -0.2107  0.3587
  218SOD    SOD22346   4.093   1.764  14.701 -0.2081  0.1436 -0.0443
  219SOD    SOD22347   5.783   1.553   4.923 -0.4450  0.3932  0.6394
  220SOD    SOD22348   3.572   5.372  14.330 -0.2258 -0.4654  0.2656
  221SOD    SOD22349   3.982   4.463  13.505 -0.0227 -0.6405 -0.2141
  222SOD    SOD22350   0.600   1.704  14.370  0.3921  0.4071  0.0721
  223SOD    SOD22351   4.532   3.124  11.853  0.0786  0.3409  0.3628
  224SOD    SOD22352   0.572   1.149  13.885  0.1783  0.0141  0.6358
  225SOD    SOD22353   2.785   2.011  11.197  0.4088  0.0252 -0.0197
  226SOD    SOD22354   0.859   4.902   4.170 -0.3078 -0.2440  0.4020
  227SOD    SOD22355   1.951   0.511   2.932  0.4852 -0.1571  0.8192
  228SOD    SOD22356   0.075   2.139  15.076 -0.0593 -0.2193  0.7120
  229SOD    SOD22357   5.866   2.457  10.847 -0.4873  0.3049  0.7597
  230SOD    SOD22358   1.096   0.141  11.516 -0.0550 -0.2641 -0.5229
  231SOD    SOD22359   6.389   4.534   1.321  0.1161  0.7922 -0.0620
  232SOD    SOD22360   4.778   3.070  16.042 -0.2475  0.1934  0.8755
  233SOD    SOD22361   4.680   1.499  16.577 -0.4184 -0.0563 -0.1326
  234SOD    SOD22362   3.940   5.718   2.606 -0.2100  0.5906  0.0592
  235SOD    SOD22363   0.722   5.010   5.767  0.6859  0.3346 -0.3812
  236SOD    SOD22364   3.597   3.007   5.304 -0.1027  0.2245 -0.9397
  237SOD    SOD22365   5.371   4.712   3.240 -0.0478  0.3434  0.4825
  238SOD    SOD22366   4.599   4.487   5.029  0.2061  0.4967  0.2265
  239SOD    SOD22367   0.706   1.497   3.729 -0.1324  0.4751 -0.4072
  240SOD    SOD22368   1.292   4.832  11.254  0.3379  0.1332 -0.3404
  241SOD    SOD22369   4.110   6.484   3.262 -0.3648  0.4037 -0.0259
  242SOD    SOD22370   3.204   2.444  15.881 -0.1395 -0.3606 -0.0100
  243SOD    SOD22371   4.098   3.220  14.684  0.2366  0.0127 -0.1679
  244SOD    SOD22372   2.311   0.564   6.388  0.4172 -0.3344 -0.1149
  245SOD    SOD22373   5.858   1.625  10.315  0.2137  0.3543 -0.3539
  246SOD    SOD22374   3.444   0.449   4.235 -0.3808 -0.1749 -0.3207
  247SOD    SOD22375   6.155   1.570  14.121 -0.2068 -0.3954 -0.0367
  248SOD    SOD22376   6.747   1.536   0.398 -0.5625 -0.0957  0.2684
  249SOD    SOD22377   3.337   4.407   5.263  0.0430 -0.2259 -0.1876
  250SOD    SOD22378   1.478   2.409   2.223  0.2000 -0.3745 -0.0145
  251SOD    SOD22379   2.455   1.175  15.752  0.0493  0.3179  0.0309
  252SOD    SOD22380   3.216   2.101   5.263  0.2412 -0.0795  0.9567
  253SOD    SOD22381   5.459   3.910   2.277  0.4088 -0.3452  0.2436
  254SOD    SOD22382   1.408   0.450   6.156  0.0894  0.6051  0.1319
  255SOD    SOD22383   3.040   2.393   2.759  0.1622 -0.1226 -0.4182
  256SOD    SOD22384   0.704   3.055  12.621  0.0598 -0.3392  0.0988
  257SOD    SOD22385   4.026   1.037   2.920  0.2006  0.2043 -0.3172
  258SOD    SOD22386   0.835   1.809  16.695 -0.3464 -0.3748 -0.2828
  259SOD    SOD22387   0.185   3.045   1.672 -0.2850 -0.0931 -0.3269
  260SOD    SOD22388   6.480   2.398  14.204 -0.0725 -0.1822 -0.6500
  261SOD    SOD22389   3.706   3.174   2.706  0.3598  0.1509 -0.1569
  262SOD    SOD22390   2.154   2.115  11.706 -0.0510  0.0384 -0.4081
  263SOD    SOD22391   4.394   0.093  11.809 -0.2858 -0.5717 -0.2785
  264SOD    SOD22392   5.469   2.051   4.171 -0.1534 -0.0110 -0.0894
  265SOD    SOD22393   1.424   2.953   6.292  0.2650  0.0319  0.2646
  266CLA    CLA22394   5.131   4.343  11.536  0.1685 -0.4106  0.1421
  267CLA    CLA22395   3.461   0.243   4.053 -0.1685  0.0426 -0.0897
  268CLA    CLA22396   0.638   2.345   3.146  0.0130 -0.2026 -0.0472
  269CLA    CLA22397   3.412   0.102   4.583  0.2879  0.3688 -0.2771
  270CLA    CLA22398   0.837   2.754  12.076 -0.0857 -0.0582  0.0132
  271CLA    CLA22399   6.530   4.399  12.132  0.0943 -0.1168  0.0002
  272CLA    CLA22400   3.702   2.316   1.994 -0.0977  0.1155 -0.0640
  273CLA    CLA22401   2.558   2.430  15.780  0.0808 -0.0201  0.1084
  274CLA    CLA22402   0.851   0.911   1.045  0.0229  0.3578  0.4515
  275CLA    CLA22403   0.179   4.199  11.493 -0.2624  0.0229  0.1304
  276CLA    CLA22404   1.565   5.588  12.721  0.0142 -0.3121  0.0412
  277CLA    CLA22405   3.559   1.602   3.844  0.1090  0.0716 -0.6079
  278CLA    CLA22406   5.793   0.411  14.422  0.0815  0.1262 -0.2811
  279CLA    CLA22407   4.790   2.445   1.764 -0.3256  0.4881  0.3918
  280CLA    CLA22408   1.581   2.002  17.029 -0.2356  0.0282  0.1131
  281CLA    CLA22409   1.349   2.990   5.245 -0.1017 -0.1226  0.1070
  282CLA    CLA22410   6.329   3.670  15.220 -0.0809 -0.6739 -0.2816
  283CLA    CLA22411   3.151   1.090  15.408 -0.0304  0.0629  0.1913
  284CLA    CLA22412   4.773   3.232   4.871 -0.1082  0.1540  0.2335
  285CLA    CLA22413   1.055   6.352  13.524  0.1026 -0.0637  0.1873
  286CLA    CLA22414   6.243   1.275   4.268  0.2380  0.5546  0.0398
  287CLA    CLA22415   4.051   1.024   3.365 -0.4484  0.1700  0.0749
  288CLA    CLA22416   5.576   2.071  14.146 -0.0918  0.1339  0.4170
  289CLA    CLA22417   6.234   3.983  16.093 -0.2810  0.1008 -0.5615
  290CLA    CLA22418   2.989   0.910  13.518  0.1524 -0.3946 -0.1412
  291CLA    CLA22419   0.839   1.316  14.813 -0.0661 -0.1753 -0.0061
  292CLA    CLA22420   4.315   2.247   3.056 -0.0005 -0.4771  0.5942
  293CLA    CLA22421   6.771   4.735   2.010 -0.0077  0.2539 -0.3254
  294CLA    CLA22422   2.233   1.695   4.361  0.1641  0.1770  0.3645
  295CLA    CLA22423   1.073   4.094  14.169 -0.0571  0.1870 -0.0253
  296CLA    CLA22424   1.511   0.624  15.117 -0.1587  0.0366 -0.1333
  297CLA    CLA22425   1.800   1.616  13.798 -0.1086  0.3562 -0.0847
  298CLA    CLA22426   0.553   3.668   2.032 -0.8870  0.1360  0.0584
  299CLA    CLA22427   5.802   3.303  13.897 -0.0634 -0.0131 -0.1996
  300CLA    CLA22428   5.985   3.313  15.499  0.5210  0.0741 -0.2990
  301CLA    CLA22429   2.080   6.269   4.326 -0.3026 -0.1098  0.0222
  302CLA    CLA22430   1.140   2.359   0.935 -0.2604  0.2067  0.2965
  303CLA    CLA22431   0.300   0.814  16.971  0.2012  0.1764  0.2398
  304CLA    CLA22432   1.941   2.409  14.195 -0.1993  0.0298 -0.2221
  305CLA    CLA22433   3.993   2.629  14.015  0.1808 -0.4665 -0.1167
  306CLA    CLA22434   0.463   4.484   1.138 -0.2366  0.2825 -0.0919
  307CLA    CLA22435   4.819   4.538   1.817  0.0687  0.0537  0.2021
  308CLA    CLA22436   5.837   6.200   0.881 -0.0772 -0.0117  0.0047
  309CLA    CLA22437   2.101   2.358   3.321  0.0164  0.3545  0.0746
  310CLA    CLA22438   0.077   1.931  16.425 -0.2871  0.3989 -0.4789
  311CLA    CLA22439   3.381   6.201   0.646  0.3219 -0.2317  0.1816
  312CLA    CLA22440   2.655   5.695   1.106  0.4464  0.1472 -0.3548
  313CLA    CLA22441   2.881   3.099   3.392 -0.0187 -0.0590 -0.5558
  314CLA    CLA22442   3.128   5.985   1.519 -0.1739 -0.0446 -0.0803
  315CLA    CLA22443   6.150   0.747  12.189 -0.4497 -0.2702  0.1012
  316CLA    CLA22444   2.985   2.798  14.039 -0.0565  0.5328 -0.1395
  317CLA    CLA22445   0.782   3.959  16.360 -0.0376 -0.3200 -0.0976
  318CLA    CLA22446   5.327   3.870   5.476  0.1799 -0.1869 -0.1577
  319TIP3   OH222447   1.551   4.600  16.856 -0.5061  0.1845  0.0339
  319TIP3    H122448   1.467   4.557  16.870  0.3814 -1.4844  0.4472
  319TIP3    H222449   1.563   4.600  16.761 -0.6648 -0.1716  0.0117
  320TIP3   OH222450   6.125   2.825   2.833  0.2042  0.0273  0.0098
  320TIP3    H122451   6.147   2.877   2.755 -1.2711  0.3376 -0.2284
  320TIP3    H222452   6.057   2.765   2.804 -1.9939  1.6227  1.5148
  321TIP3   OH222453   6.247   4.264  11.814 -0.4072 -0.0960  0.3523
  321TIP3    H122454   6.319   4.239  11.757 -1.0119 -1.4403  0.1390
  321TIP3    H222455   6.277   4.242  11.902 -0.1710  0.3142  0.3794
  322TIP3   OH222456   3.529   0.493  16.107  0.4419  0.0368  0.4891
  322TIP3    H122457   3.463   0.557  16.084  0.1276  1.3841  4.4389
  322TIP3    H222458   3.495   0.410  16.072 -0.2949  1.5116 -2.6592
  323TIP3   OH222459   1.802   1.918   2.952  0.3256 -0.2708 -0.4336
  323TIP3    H122460   1.888   1.889   2.982 -0.4660 -1.2704  0.9840
  323TIP3    H222461   1.801   2.012   2.970  0.3563 -0.6134  1.6188
  324TIP3   OH222462   4.775   4.041  13.802 -0.2921 -0.4033 -0.4974
  324TIP3    H122463   4.861   4.085  13.800 -0.9266  1.2237  2.3329
  324TIP3    H222464   4.788   3.966  13.860 -0.2455 -1.6716 -2.0688
  325TIP3   OH222465   5.083   0.654   4.299  0.0334  0.4992  0.1325
  325TIP3    H122466   5.129   0.719   4.353 -0.7282  1.5093 -0.4021
  325TIP3    H222467   5.099   0.682   4.209 -0.1839 -0.1475 -0.1125
  326TIP3   OH222468   3.257   2.219  14.951  0.0073  0.5058 -0.0783
  326TIP3    H122469   3.334   2.275  14.954 -0.7029  1.5814 -1.2673
  326TIP3    H222470   3.185   2.277  14.928 -1.3190 -0.3442  1.7147
  327TIP3   OH222471   0.746   5.349  14.726  0.1011  0.4278 -0.1742
  327TIP3    H122472   0.696   5.273  14.756 -0.8085  1.0255 -0.1339
  327TIP3    H222473   0.714   5.422  14.780 -0.9990  1.3752 -1.9920
  328TIP3   OH222474   0.320   3.079  15.944 -0.1989  0.0177  0.0392
  328TIP3    H122475   0.262   3.154  15.954 -1.0959 -0.1827 -2.7047
  328TIP3    H222476   0.278   3.025  15.877  1.7270 -1.6056  0.0454
  329TIP3   OH222477   5.308   2.877  15.501  0.4019  0.6113 -0.4041
  329TIP3    H122478   5.223   2.850  15.537 -0.0681 -0.1067 -1.9413
  329TIP3    H222479   5.359   2.904  15.577 -1.1758  0.9930  0.5758
  330TIP3   OH222480   0.412   0.444   1.453  0.5138 -0.3428 -0.5781
  330TIP3    H122481   0.412   0.501   1.376  0.2041  0.3035 -0.1183
  330TIP3    H222482   0.467   0.491   1.516 -0.0043 -0.3974 -0.0800
  331TIP3   OH222483   0.690   2.095  16.366  0.2573 -0.1929 -0.2499
  331TIP3    H122484   0.750   2.024  16.339  1.0017 -0.2274  1.3815
  331TIP3    H222485   0.744   2.152  16.420 -0.6968  0.9009 -0.4257
  332TIP3   OH222486   3.375   4.980   5.362 -0.3909 -0.0684  0.2324
  332TIP3    H122487   3.305   5.006   5.303 -1.2469 -2.1872  0.2207
  332TIP3    H222488   3.334   4.920   5.424  1.0250  0.1172  1.4211
  333TIP3   OH222489   5.271   0.797   0.815 -0.0568 -0.5838 -0.0630
  333TIP3    H122490   5.291   0.807   0.908 -0.2853 -1.1381  0.0495
  333TIP3    H222491   5.318   0.869   0.772 -1.3232  0.7291  0.6551
  334TIP3   OH222492   2.498   0.612  14.260 -0.0311  0.3609  0.0867
  334TIP3    H122493   2.483   0.547  14.192  2.0907  0.5297 -0.6065
  334TIP3    H222494   2.504   0.562  14.341 -2.6818  0.1673  0.2717
  335TIP3   OH222495   3.992   2.145  13.794  0.0736 -0.4504 -0.0610
  335TIP3    H122496   3.994   2.053  13.822 -0.4704 -1.0183 -1.7589
  335TIP3    H222497   4.055   2.150  13.723  0.2146  0.5452  0.1194
  336TIP3   OH222498   4.661   6.115  10.462  0.1778 -0.1983  0.3680
  336TIP3    H122499   4.734   6.070  10.420  0.8853  0.5087  0.7915
  336TIP3    H222500   4.691   6.129  10.552  0.3681  1.8670  0.0341
  337TIP3   OH222501   3.821   3.647   3.972 -0.4387 -0.6458  0.0513
  337TIP3    H122502   3.882   3.583   4.008 -0.1907  0.5418  1.9029
  337TIP3    H222503   3.869   3.688   3.900  0.0599 -1.3081 -0.0010
  338TIP3   OH222504   2.835   0.274   2.917  0.4046  0.6060  0.3348
  338TIP3    H122505   2.892   0.219   2.863  1.6023  0.0854  2.0408
  338TIP3    H222506   2.879   0.360   2.917 -0.0910  0.8655 -0.2501
  339TIP3   OH222507   1.862   3.683   0.237 -0.3972 -0.0580  0.2106
  339TIP3    H122508   1.940   3.723   0.275  0.8110 -2.6855  0.7415
  339TIP3    H222509   1.810   3.757   0.206  0.6352  1.9933  2.9476
  340TIP3   OH222510   0.501   6.516  16.785  0.3336  0.8944  0.1219
  340TIP3    H122511   0.419   6.525  16.834 -0.1606  2.3507 -0.9087
  340TIP3    H222512   0.480   6.458  16.712  0.7766 -0.3541  0.9508
  341TIP3   OH222513   4.281   6.126   5.711  0.4151 -0.2961 -0.1811
  341TIP3    H122514   4.293   6.202   5.654  1.3019 -0.9306 -0.8517
  341TIP3    H222515   4.193   6.139   5.749  0.6089  1.1290 -0.1611
  342TIP3   OH222516   5.513   5.718  13.613  0.1067  0.1815 -0.0039
  342TIP3    H122517   5.425   5.730  13.647  0.4336 -1.2858  1.5086
  342TIP3    H222518   5.517   5.625  13.588  1.7481 -0.2810  1.7352
  343TIP3   OH222519   1.015   3.528   2.270 -0.7081 -0.1394  0.6226
  343TIP3    H122520   1.099   3.513   2.227 -0.2923 -1.8995  1.9555
  343TIP3    H222521   0.969   3.445   2.263 -0.8443 -0.3337  3.0010
  344TIP3   OH222522   4.938   6.220  15.331 -0.0363 -0.2892  0.4014
  344TIP3    H122523   5.027   6.216  15.296 -0.8045  2.0335 -2.2284
  344TIP3    H222524   4.947   6.262  15.416  1.3379  1.2863 -0.4499
  345TIP3   OH222525   3.538   4.338  14.411 -0.1632 -0.2204  0.0199
  345TIP3    H122526   3.485   4.262  14.390  0.5906 -0.6536 -0.3606
  345TIP3    H222527   3.582   4.361  14.329  0.3161  0.0615  0.3466
  346TIP3   OH222528   0.614   2.347   0.960 -0.4962 -0.0458  0.3510
  346TIP3    H122529   0.630   2.273   1.018 -3.3408  0.9129  2.5627
  346TIP3    H222530   0.520   2.345   0.942 -0.4766  2.3833 -0.4368
  347TIP3   OH222531   5.002   6.499  14.729 -0.2402 -0.2638  0.1349
  347TIP3    H122532   5.005   6.490  14.634  0.8607  0.3219  0.0972
  347TIP3    H222533   4.908   6.501  14.750 -0.5151  0.6386 -1.0477
  348TIP3   OH222534   0.990   4.116  14.960  0.1728  0.5270  0.0641
  348TIP3    H122535   1.081   4.090  14.945  0.0449  1.8168 -3.8319
  348TIP3    H222536   0.976   4.191  14.903 -3.3753  0.3363  0.4698
  349TIP3   OH222537   0.340   3.555  10.966 -0.1076  0.3445 -0.4414
  349TIP3    H122538   0.389   3.618  10.913  0.3586  0.6511  0.3302
  349TIP3    H222539   0.298   3.609  11.033 -0.2007 -0.0999 -0.1403
  350TIP3   OH222540   6.291   2.997  12.499 -0.4415  0.2706 -0.1246
  350TIP3    H122541   6.364   3.051  12.532 -1.8477  2.7449 -0.7871
  350TIP3    H222542   6.318   2.971  12.411  0.2673 -0.1113  0.2003
  351TIP3   OH222543   5.302   0.888   2.125  0.1567 -0.7500  0.4468
  351TIP3    H122544   5.237   0.935   2.176 -0.3678 -1.8330  0.8078
  351TIP3    H222545   5.283   0.913   2.034  0.0141 -0.1294  0.6428
  352TIP3   OH222546   1.188   3.333  13.407 -0.1186 -0.3959 -0.0834
  352TIP3    H122547   1.163   3.412  13.359 -0.2954  0.6201  1.6414
  352TIP3    H222548   1.181   3.357  13.499 -0.0833 -2.3992  0.4813
  353TIP3   OH222549   0.042   3.482  16.417  0.4769 -0.1051 -0.6463
  353TIP3    H122550   0.039   3.564  16.369 -1.6594 -0.7008 -1.6081
  353TIP3    H222551   0.041   3.508  16.509 -0.4049  0.9434 -0.9417
  354TIP3   OH222552   6.843   5.439   5.401 -0.3047  0.3840 -0.0359
  354TIP3    H122553   6.810   5.464   5.487 -0.6850  0.4105 -0.1857
  354TIP3    H222554   6.766   5.443   5.344 -0.1220  0.0403 -0.3082
  355TIP3   OH222555   3.501   1.609   3.141 -0.1855  0.5964 -0.3094
  355TIP3    H122556   3.412   1.646   3.138 -0.6628 -0.3898  0.7634
  355TIP3    H222557   3.489   1.523   3.180  1.3328  0.6733  0.3795
  356TIP3   OH222558   6.369   4.877  14.443 -1.2012  0.4605  0.1720
  356TIP3    H122559   6.420   4.956  14.425 -1.9142  0.5976 -1.4934
  356TIP3    H222560   6.434   4.807  14.451 -0.6326  1.0055  0.3985
  357TIP3   OH222561   1.243   5.884   4.034 -0.0852 -0.1899  0.2842
  357TIP3    H122562   1.195   5.967   4.029 -0.8723 -0.6783 -0.2049
  357TIP3    H222563   1.177   5.818   4.052  0.5150 -0.7572  0.4575
  358TIP3   OH222564   1.298   0.510  14.620  0.0830 -0.1022 -0.1168
  358TIP3    H122565   1.326   0.440  14.560 -0.0961  0.7970 -1.2979
  358TIP3    H222566   1.378   0.559  14.639  0.2668 -0.7938  0.9675
  359TIP3   OH222567   0.982   5.271   1.331  0.4888 -0.0545  0.1250
  359TIP3    H122568   1.051   5.280   1.266  0.7764  0.7110  0.5234
  359TIP3    H222569   0.952   5.181   1.322  1.9522 -0.5945  0.3370
  360TIP3   OH222570   6.308   5.159   1.083 -0.0795  0.0131  0.2145
  360TIP3    H122571   6.323   5.247   1.048 -1.8148 -0.4485 -1.9391
  360TIP3    H222572   6.292   5.105   1.006 -2.7960 -1.3890  1.6179
  361TIP3   OH222573   4.933   2.127   0.949 -0.6018  0.4048 -0.1802
  361TIP3    H122574   4.870   2.086   1.008 -2.8678 -1.1582 -3.3797
  361TIP3    H222575   5.016   2.082   0.967 -1.2703 -0.2438  1.4879
  362TIP3   OH222576   1.932   2.525  13.888  0.0250 -0.3634 -0.2770
  362TIP3    H122577   1.925   2.496  13.979  0.1049 -3.4430 -1.1135
  362TIP3    H222578   2.021   2.560  13.881  0.4529 -1.2061  0.5881
  363TIP3   OH222579   4.437   5.877  13.321  0.1260  0.4507  0.0073
  363TIP3    H122580   4.460   5.891  13.229  1.4694  1.5490  0.4723
  363TIP3    H222581   4.433   5.965  13.358 -0.2789  0.0140  1.0335
  364TIP3   OH222582   6.474   1.550  13.200  0.3874 -0.0071  0.2050
  364TIP3    H122583   6.553   1.568  13.149  0.7740 -0.3481  0.6662
  364TIP3    H222584   6.464   1.627  13.256  0.9291 -0.3515  0.7981
  365TIP3   OH222585   0.092   4.705   3.409  0.1715 -0.2361  0.5615
  365TIP3    H122586   0.083   4.753   3.491 -1.0761  0.3303  0.1226
  365TIP3    H222587   0.169   4.650   3.422  1.4519  1.6188  1.1899
  366TIP3   OH222588   3.280   2.591   6.442  0.5121 -0.0734 -0.0439
  366TIP3    H122589   3.256   2.681   6.418 -2.2384 -0.6814  0.1855
  366TIP3    H222590   3.252   2.583   6.533  1.4718 -0.9691  0.1967
  367TIP3   OH222591   5.589   0.357   2.941  0.1341  0.2168 -1.1366
  367TIP3    H122592   5.536   0.405   3.005  1.7141 -1.2946  1.4843
  367TIP3    H222593   5.543   0.274   2.930  1.0590 -0.4755 -0.0457
  368TIP3   OH222594   5.210   2.388  15.687  0.1425 -0.3593  0.0298
  368TIP3    H122595   5.222   2.468  15.738  2.3937 -0.2923 -0.4664
  368TIP3    H222596   5.166   2.417  15.607 -0.1717  0.1743  0.3946
  369TIP3   OH222597   1.389   5.987   5.737  0.1728 -0.1281 -0.3509
  369TIP3    H122598   1.328   6.035   5.793 -0.7695  0.6156 -1.9536
  369TIP3    H222599   1.436   6.054   5.689  0.7629 -0.7624 -0.6760
  370TIP3   OH222600   6.006   3.161  13.698  0.6195 -0.3948  0.2305
  370TIP3    H122601   5.961   3.192  13.776  2.6115  1.5860  0.7227
  370TIP3    H222602   5.942   3.106  13.653 -2.8685  3.3135  0.0743
  371TIP3   OH222603   3.331   5.436   1.226 -0.0617 -0.7335  0.1550
  371TIP3    H122604   3.314   5.414   1.317 -0.1760  1.2435  0.6504
  371TIP3    H222605   3.276   5.512   1.208 -0.8500 -1.7080 -1.9029
  372TIP3   OH222606   5.894   4.427  11.496 -0.3360 -0.0552  0.2902
  372TIP3    H122607   5.972   4.429  11.440 -2.2367  2.5661 -2.6629
  372TIP3    H222608   5.822   4.410  11.435 -2.2599 -0.8742  2.6483
  373TIP3   OH222609   5.463   4.857  11.056  0.1788 -0.9056 -0.2077
  373TIP3    H122610   5.383   4.903  11.031  0.9265  0.1214 -0.8168
  373TIP3    H222611   5.465   4.780  11.000 -0.5739 -1.1572  0.0942
  374TIP3   OH222612   5.820   6.731  12.949  0.0492  0.0881 -0.2540
  374TIP3    H122613   5.836   6.766  13.037 -2.0364  0.3447  0.0767
  374TIP3    H222614   5.727   6.748  12.933 -0.0036 -1.4192 -1.8568
  375TIP3   OH222615   3.569   6.313   5.870 -0.0374  0.1351  0.8215
  375TIP3    H122616   3.534   6.228   5.844 -0.1617  0.5526 -0.4485
  375TIP3    H222617   3.663   6.300   5.878 -0.0496 -0.1009  0.5760
  376TIP3   OH222618   5.283   1.352   3.321  0.3362 -0.4502 -0.4147
  376TIP3    H122619   5.312   1.267   3.355  1.2434  0.1024  0.2640
  376TIP3    H222620   5.188   1.347   3.320  0.3753 -1.3627 -0.0785
  377TIP3   OH222621   6.037   0.537   2.311  0.3405 -0.4322  0.2609
  377TIP3    H122622   6.105   0.593   2.274 -1.0360  3.0610  2.4919
  377TIP3    H222623   6.056   0.535   2.405 -0.6456 -2.4224  0.4808
  378TIP3   OH222624   2.005   0.763   2.463 -0.3635  0.0896 -0.8303
  378TIP3    H122625   1.926   0.754   2.517  0.0527 -1.6078 -0.4304
  378TIP3    H222626   1.990   0.842   2.411 -1.8984  0.3402 -0.0676
  379TIP3   OH222627   5.419   1.150  15.172  0.0831  0.5725 -0.0778
  379TIP3    H122628   5.426   1.238  15.135 -1.8683  0.1311 -1.6637
  379TIP3    H222629   5.485   1.148  15.241  0.9641  2.8861 -0.7496
  380TIP3   OH222630   1.416   2.707   3.791  0.0116  0.1155  0.1630
  380TIP3    H122631   1.417   2.682   3.699  0.2585 -0.3040  0.2770
  380TIP3    H222632   1.505   2.738   3.808 -0.7233  2.8249 -0.4378
  381TIP3   OH222633   2.776   6.190   1.982  0.1014  0.0408 -0.3141
  381TIP3    H122634   2.854   6.191   1.926  0.1765  0.2543 -0.2044
  381TIP3    H222635   2.723   6.118   1.947  2.3737 -3.2822  2.3919
  382TIP3   OH222636   2.175   0.079  13.082  0.1152 -0.1424  0.3364
  382TIP3    H122637   2.115   0.022  13.034 -1.9424  0.4488  2.0159
  382TIP3    H222638   2.230   0.119  13.015 -0.9705 -1.1808 -1.2441
  383TIP3   OH222639   6.676   4.993   4.744  0.4792 -0.1771 -0.2278
  383TIP3    H122640   6.669   4.961   4.834 -0.8574 -0.3773 -0.3875
  383TIP3    H222641   6.589   4.980   4.707  0.7457  0.8037 -1.2517
  384TIP3   OH222642   0.855   2.808   3.882  0.2163 -0.2648 -0.3446
  384TIP3    H122643   0.855   2.786   3.975  1.8588  0.2870 -0.1773
  384TIP3    H222644   0.835   2.725   3.838 -0.4388 -0.5578  0.4780
  385TIP3   OH222645   4.784   4.409  15.886  0.3825 -0.2190 -0.5137
  385TIP3    H122646   4.827   4.338  15.838 -0.7031 -2.7910  2.0402
  385TIP3    H222647   4.699   4.420  15.842  0.2957 -0.9726 -0.5443
  386TIP3   OH222648   2.696   4.525   1.133  0.0461 -0.7045  0.0975
  386TIP3    H122649   2.751   4.448   1.142  2.8576  1.1246 -0.0392
  386TIP3    H222650   2.653   4.535   1.218  2.0412 -0.7954  1.1782
  387TIP3   OH222651   5.212   1.437   2.126  0.3333 -0.3964 -0.9960
  387TIP3    H122652   5.281   1.494   2.162  0.1133 -0.0032 -1.1881
  387TIP3    H222653   5.170   1.399   2.203  0.5022 -0.3245 -0.8662
  388TIP3   OH222654   5.956   4.071  12.964  0.2449 -0.5048  0.6836
  388TIP3    H122655   5.991   4.073  12.875  0.6618  0.1237  0.8517
  388TIP3    H222656   5.864   4.049  12.953  0.5036 -1.3816  0.1716
  389TIP3   OH222657   0.413   5.767  11.517  0.1284 -0.0681  0.7265
  389TIP3    H122658   0.351   5.703  11.551  1.7692 -1.6430  0.8669
  389TIP3    H222659   0.359   5.827  11.465 -1.3032 -2.5343 -0.8577
  390TIP3   OH222660   5.085   1.021  11.097  0.0613  0.5839 -0.1135
  390TIP3    H122661   5.147   1.080  11.055 -0.2258  0.1999 -1.1080
  390TIP3    H222662   5.105   0.935  11.061 -1.2647  0.5090 -0.7508
  391TIP3   OH222663   1.142   5.086   2.385  0.7753 -0.1121 -0.4540
  391TIP3    H122664   1.147   4.999   2.346 -1.0983  0.3896 -1.9645
  391TIP3    H222665   1.095   5.072   2.468 -0.3259 -0.4478 -1.1105
  392TIP3   OH222666   0.259   2.316  11.375  0.1890  0.6047  0.3920
  392TIP3    H122667   0.353   2.314  11.361  0.3369  0.1028  1.3224
  392TIP3    H222668   0.224   2.371  11.305  1.3853  2.5379  1.2220
  393TIP3   OH222669   0.416   3.013   5.667 -0.1520  0.8381  0.1369
  393TIP3    H122670   0.508   3.025   5.642 -0.7358  2.9307 -1.2391
  393TIP3    H222671   0.376   2.971   5.590 -0.5226  0.7434  0.3802
  394TIP3   OH222672   4.276   1.534   3.230 -0.3346 -0.4502 -0.5026
  394TIP3    H122673   4.193   1.579   3.220 -0.0585  0.0926 -0.3540
  394TIP3    H222674   4.259   1.445   3.198 -0.6953 -0.0502 -1.4547
  395TIP3   OH222675   4.868   1.951  14.166  0.4456  0.0452 -0.2111
  395TIP3    H122676   4.937   1.887  14.185  0.9594  0.7996  0.5104
  395TIP3    H222677   4.908   2.036  14.183 -0.2444  0.5734 -1.1179
  396TIP3   OH222678   3.020   4.955  14.771 -0.1793 -0.4194 -0.2996
  396TIP3    H122679   3.008   4.863  14.795  0.0765 -1.1143 -2.5725
  396TIP3    H222680   2.937   4.979  14.728 -0.0199  0.2319 -0.2570
  397TIP3   OH222681   3.535   5.169  11.011  0.7637  0.2466  0.3679
  397TIP3    H122682   3.583   5.091  10.984  0.0552  0.1263 -0.5765
  397TIP3    H222683   3.599   5.240  11.001  0.8158  0.0616 -0.7180
  398TIP3   OH222684   1.873   2.715   3.881 -0.4885  0.2282  0.3933
  398TIP3    H122685   1.932   2.641   3.869 -0.6277  0.3700 -1.4072
  398TIP3    H222686   1.882   2.738   3.973 -0.2548 -1.8643  0.9409
  399TIP3   OH222687   1.796   2.340  11.225 -0.2335 -0.1693  0.1876
  399TIP3    H122688   1.832   2.427  11.241  0.4915 -0.7487  1.9079
  399TIP3    H222689   1.808   2.326  11.131  2.0924  0.5205  0.3373
  400TIP3   OH222690   5.582   4.868   2.261  0.3733 -0.2105  0.2331
  400TIP3    H122691   5.601   4.947   2.210 -0.6717 -0.6432 -0.8500
  400TIP3    H222692   5.664   4.819   2.261  1.0121  0.7985  0.8375
  401TIP3   OH222693   2.135   2.222   1.492  0.4053  0.5966 -0.3731
  401TIP3    H122694   2.220   2.181   1.472  0.4990  1.6721 -2.4692
  401TIP3    H222695   2.128   2.217   1.588  2.0468 -1.0097 -0.2754
  402TIP3   OH222696   2.678   5.746   3.008 -0.3884  0.1349  0.0897
  402TIP3    H122697   2.701   5.785   2.923 -0.4118 -1.6908 -0.8082
  402TIP3    H222698   2.668   5.821   3.067  0.5034  1.4082 -1.2969
  403TIP3   OH222699   1.445   3.194   2.215 -0.0830  0.3199  0.4070
  403TIP3    H122700   1.415   3.103   2.206 -0.4755  0.2406  2.0798
  403TIP3    H222701   1.539   3.190   2.200 -0.2012 -0.2509 -0.2074
  404TIP3   OH222702   3.458   1.546  15.054 -0.1756  0.0332  0.2055
  404TIP3    H122703   3.362   1.551  15.059 -0.1766 -0.4325  0.8032
  404TIP3    H222704   3.475   1.456  15.027  0.1043 -0.0655  0.6939
  405TIP3   OH222705   3.255   5.258   4.461 -0.2432  0.5514  0.8489
  405TIP3    H122706   3.162   5.236   4.462 -0.1014 -0.0515  0.9490
  405TIP3    H222707   3.268   5.311   4.540 -0.7240  1.5987  0.2462
  406TIP3   OH222708   4.652   4.446  13.760  0.1615 -0.2215 -0.1501
  406TIP3    H122709   4.684   4.431  13.671  0.2931 -0.1753 -0.1109
  406TIP3    H222710   4.569   4.399  13.764 -0.3053  0.5374 -0.5966
  407TIP3   OH222711   0.891   0.215  16.066 -0.1030 -1.0512  0.2378
  407TIP3    H122712   0.863   0.125  16.084  0.4892 -1.0685  1.1222
  407TIP3    H222713   0.921   0.213  15.976  0.2055 -1.8202  0.3468
  408TIP3   OH222714   1.656   0.634  11.558 -0.6542 -0.2521  0.1674
  408TIP3    H122715   1.686   0.705  11.614 -1.5904  1.2153 -1.1245
  408TIP3    H222716   1.726   0.568  11.565  1.2682  1.6254 -0.1721
  409TIP3   OH222717   0.513   4.895  15.685 -0.0704  0.5475 -0.1624
  409TIP3    H122718   0.546   4.973  15.641  1.8122  0.6035  1.2345
  409TIP3    H222719   0.441   4.926  15.740 -0.0192  1.1165 -0.4168
  410TIP3   OH222720   0.383   0.427   4.210  0.5644  0.1994 -0.5486
  410TIP3    H122721   0.464   0.381   4.233 -0.0633 -0.6585 -0.0206
  410TIP3    H222722   0.321   0.357   4.190 -1.3874  0.5704  3.2984
  411TIP3   OH222723   0.958   1.902  12.179  0.0352 -0.8710 -0.3080
  411TIP3    H122724   0.961   1.898  12.083  0.6035  1.7801 -0.4653
  411TIP3    H222725   0.867   1.922  12.199  0.1495 -0.2849 -0.3674
  412TIP3   OH222726   4.421   0.859  11.383  0.1966  0.0785 -0.5621
  412TIP3    H122727   4.411   0.845  11.477  1.6372 -1.7610 -0.6262
  412TIP3    H222728   4.515   0.873  11.370  0.0922 -0.1644 -1.7602
  413TIP3   OH222729   2.976   3.684  12.553 -0.5053 -0.5636  0.2670
  413TIP3    H122730   2.919   3.731  12.493 -0.9559 -2.0701 -0.5401
  413TIP3    H222731   2.980   3.739  12.631  1.6894  2.4904 -1.7584
  414TIP3   OH222732   1.753   2.273  14.705  0.2485 -0.4128  0.0998
  414TIP3    H122733   1.777   2.300  14.616  1.9516 -0.4255  0.5291
  414TIP3    H222734   1.829   2.223  14.737  0.0636  0.3841  1.9030
  415TIP3   OH222735   1.736   5.594   4.280  0.0900 -0.1057 -0.1642
  415TIP3    H122736   1.820   5.632   4.254 -0.0520 -0.4143 -1.1316
  415TIP3    H222737   1.729   5.515   4.226 -0.0987 -0.9393  1.0461
  416TIP3   OH222738   4.976   2.817   5.669 -0.1462  0.1869  0.2497
  416TIP3    H122739   5.045   2.779   5.723 -1.2015 -0.6715  1.0485
  416TIP3    H222740   4.921   2.864   5.732 -1.0624 -0.3294 -0.1534
  417TIP3   OH222741   4.219   6.099   4.055 -0.6060  0.1441 -0.0935
  417TIP3    H122742   4.151   6.161   4.080  0.0322  2.2110 -3.0313
  417TIP3    H222743   4.293   6.120   4.112 -0.3304  2.3267 -1.1680
  418TIP3   OH222744   2.566   4.983  13.233 -0.7348  0.0830  0.1758
  418TIP3    H122745   2.534   4.987  13.323 -1.1384 -1.4979  0.1347
  418TIP3    H222746   2.660   4.995  13.241 -0.7279 -0.3252  0.8613
  419TIP3   OH222747   4.990   6.682  14.216  0.1610  0.1073 -0.5872
  419TIP3    H122748   5.054   6.674  14.146 -2.3229  0.0722 -3.0420
  419TIP3    H222749   4.982   6.776  14.231  0.0128  0.1757 -1.0734
  420TIP3   OH222750   3.555   5.778  16.566 -0.5813 -0.3102 -0.1125
  420TIP3    H122751   3.544   5.735  16.481  0.7854 -0.2174 -0.3554
  420TIP3    H222752   3.587   5.865  16.545 -1.1120  0.0324  0.4760
  421TIP3   OH222753   2.071   3.064   1.409 -0.2595  0.2048 -0.0932
  421TIP3    H122754   2.038   3.075   1.498 -2.8930 -3.3327 -0.4217
  421TIP3    H222755   1.992   3.058   1.355  1.1241 -1.2488 -2.1032
  422TIP3   OH222756   2.376   1.372  16.850 -0.2840  0.0430  0.0116
  422TIP3    H122757   2.286   1.402  16.835 -0.3222 -0.5727 -1.1515
  422TIP3    H222758   2.427   1.453  16.858 -0.5821  0.4532 -1.7778
  423TIP3   OH222759   5.818   0.967   2.627  0.1524 -0.0396 -0.2670
  423TIP3    H122760   5.760   0.936   2.557  1.1309 -0.5060 -0.9083
  423TIP3    H222761   5.790   1.056   2.644 -1.2485 -0.5052 -0.0115
  424TIP3   OH222762   5.328   1.551   0.965  0.4936  0.4238 -0.6113
  424TIP3    H122763   5.242   1.578   0.999  0.8229  0.0972  0.5417
  424TIP3    H222764   5.340   1.604   0.887 -0.9347  0.1904 -1.0302
  425TIP3   OH222765   5.817   5.210  11.921  0.4469  0.5362  0.0046
  425TIP3    H122766   5.848   5.286  11.872  1.0051  0.4784  0.2735
  425TIP3    H222767   5.895   5.160  11.940  0.1021 -0.0143 -0.0035
  426TIP3   OH222768   5.308   0.195  14.138  0.8357 -0.0060 -0.1758
  426TIP3    H122769   5.371   0.132  14.173  1.6208 -0.4680 -2.3006
  426TIP3    H222770   5.357   0.246  14.074  0.1237  2.5631  1.1752
  427TIP3   OH222771   5.093   0.705  13.941  0.3905  0.4742  0.1161
  427TIP3    H122772   5.166   0.650  13.913  0.4515  0.3574  0.4968
  427TIP3    H222773   5.022   0.643  13.959  0.3357  0.5516  0.1660
  428TIP3   OH222774   2.644   6.737  16.277  0.1282  0.3189 -0.1672
  428TIP3    H122775   2.622   6.807  16.339 -0.1316 -0.6021  0.8112
  428TIP3    H222776   2.559   6.705  16.246  0.2558  0.7768 -1.0285
  429TIP3   OH222777   2.389   4.444  15.952  0.1046  0.1955 -0.1071
  429TIP3    H122778   2.418   4.354  15.938  0.0352  0.0041  0.8899
  429TIP3    H222779   2.313   4.436  16.009  0.5198  0.9101  0.5703
  430TIP3   OH222780   6.028   0.376   0.088  0.3468  0.2681 -0.3062
  430TIP3    H122781   6.020   0.470   0.076  1.0970  0.5321  0.9847
  430TIP3    H222782   5.958   0.338   0.035  0.5714  1.4896 -1.5152
  431TIP3   OH222783   0.299   4.727   4.137 -0.4462 -0.3700 -0.3687
  431TIP3    H122784   0.260   4.799   4.088  0.0677 -0.3130 -0.7078
  431TIP3    H222785   0.226   4.668   4.156 -0.7366 -0.1477 -0.7743
  432TIP3   OH222786   4.388   6.196  12.314 -0.5092 -0.3107 -0.2988
  432TIP3    H122787   4.442   6.268  12.281 -1.5166  0.5344 -0.1416
  432TIP3    H222788   4.311   6.196  12.257 -0.5681 -1.2173 -0.2379
  433TIP3   OH222789   0.923   0.200   5.535 -0.0976  0.3538  0.3204
  433TIP3    H122790   0.989   0.133   5.554  0.2688  0.8921  0.9851
  433TIP3    H222791   0.907   0.242   5.619  0.7981  2.1170 -0.3340
  434TIP3   OH222792   5.626   0.060  16.024  0.0056 -0.3065  0.4249
  434TIP3    H122793   5.609   0.141  15.976 -2.6736 -2.1453 -2.1134
  434TIP3    H222794   5.596   0.078  16.113  0.4492  1.7496  0.2129
  435TIP3   OH222795   6.817   1.467  14.433 -0.1229  0.1818  0.2345
  435TIP3    H122796   6.823   1.499  14.523 -0.4693 -1.0927  0.7382
  435TIP3    H222797   6.907   1.466  14.401  0.1778 -0.5893  1.0437
  436TIP3   OH222798   3.890   4.131  15.959  0.4298  0.3166  0.7321
  436TIP3    H122799   3.936   4.163  16.037  2.2012 -0.5720  0.1127
  436TIP3    H222800   3.897   4.202  15.896  0.1974  0.5159  0.9303
  437TIP3   OH222801   0.319   1.013   2.004  0.6033  0.0331 -0.6568
  437TIP3    H122802   0.270   1.063   2.069 -0.3185 -0.0502 -1.2556
  437TIP3    H222803   0.350   1.079   1.941  0.7749  0.0240 -0.5825
  438TIP3   OH222804   4.569   4.663   2.511  0.3512 -0.3964 -0.0675
  438TIP3    H122805   4.647   4.713   2.537  0.9352 -1.4738  0.3067
  438TIP3    H222806   4.551   4.693   2.422  0.9337  0.1808 -0.0047
  439TIP3   OH222807   5.607   4.202  11.983 -0.8001 -0.0535  0.5256
  439TIP3    H122808   5.569   4.272  11.931 -1.6806  0.8822  2.3504
  439TIP3    H222809   5.652   4.247  12.055  1.5195 -1.2454 -0.0898
  440TIP3   OH222810   6.306   1.836   1.662 -0.9609  0.1346 -0.6828
  440TIP3    H122811   6.306   1.917   1.611 -0.0262  0.5328 -0.0756
  440TIP3    H222812   6.284   1.863   1.751  0.1559 -0.1434 -0.3067
  441TIP3   OH222813   6.254   0.915   3.773  0.3084  0.3944 -0.1589
  441TIP3    H122814   6.275   0.973   3.700 -1.7976  0.7351 -0.5782
  441TIP3    H222815   6.267   0.968   3.851  1.2296  0.4742 -0.3615
  442TIP3   OH222816   2.845   1.125   4.370 -0.0181 -0.2612  0.3283
  442TIP3    H122817   2.896   1.163   4.442  1.1003 -0.1123 -0.5136
  442TIP3    H222818   2.753   1.134   4.398  0.3443  0.7660  1.2634
  443TIP3   OH222819   1.664   0.995  13.524 -0.1780 -0.0341  0.5294
  443TIP3    H122820   1.729   0.972  13.591 -0.2107 -0.4462  0.4190
  443TIP3    H222821   1.709   1.061  13.471 -0.0606  0.1124  0.8023
  444TIP3   OH222822   3.264   4.008  15.475 -0.5904 -0.4244 -0.6701
  444TIP3    H122823   3.260   3.949  15.400 -0.3384 -0.6731 -0.4895
  444TIP3    H222824   3.280   4.094  15.436 -1.9340 -0.3120 -1.0029
  445TIP3   OH222825   0.887   5.060  10.926 -0.2615  0.1416  0.6093
  445TIP3    H122826   0.876   5.125  10.857 -1.5197  0.5534  1.1558
  445TIP3    H222827   0.978   5.032  10.919 -0.0593  1.0062 -0.4763
  446TIP3   OH222828   3.969   5.303   4.677 -0.0843  0.1251  0.0499
  446TIP3    H122829   3.888   5.309   4.625  1.1359 -1.4749 -2.2294
  446TIP3    H222830   4.029   5.363   4.633 -0.0615  1.6341  1.9860
  447TIP3   OH222831   5.766   6.094   2.414 -0.0691 -0.1704  0.1774
  447TIP3    H122832   5.837   6.043   2.452  1.0653 -0.2181 -1.8930
  447TIP3    H222833   5.703   6.104   2.485  0.5592 -2.7895  1.2212
  448TIP3   OH222834   6.394   6.209   5.050  0.0412 -0.5668  0.1396
  448TIP3    H122835   6.374   6.217   5.143 -0.4910  1.1638 -0.0919
  448TIP3    H222836   6.488   6.227   5.044 -0.1519  0.5449  0.2321
  449TIP3   OH222837   5.210   2.267   5.130 -0.4996  0.2353  0.0366
  449TIP3    H122838   5.221   2.177   5.160  0.0707  0.4915  0.6158
  449TIP3    H222839   5.174   2.313   5.205  0.9321  0.8810  0.3596
  450TIP3   OH222840   5.835   5.649  16.034 -0.4599  0.2707  0.2033
  450TIP3    H122841   5.867   5.577  15.980  2.7474  0.9150  1.0646
  450TIP3    H222842   5.791   5.607  16.107 -1.6019 -0.6786 -0.9810
  451TIP3   OH222843   2.899   2.176  13.487 -0.1431 -0.8831  0.0420
  451TIP3    H122844   2.871   2.128  13.409 -0.4327 -1.9327  0.7709
  451TIP3    H222845   2.852   2.259  13.482 -1.8577 -1.7980  0.1883
  452TIP3   OH222846   6.660   2.090  12.277  0.1284  0.0309 -0.0448
  452TIP3    H122847   6.728   2.108  12.212 -1.3810  3.9949 -0.7900
  452TIP3    H222848   6.584   2.139  12.247 -2.3984 -2.2665  2.0169
  453TIP3   OH222849   4.585   0.437  10.276  0.3179  0.0315 -0.1910
  453TIP3    H122850   4.573   0.364  10.215 -0.3552  0.6051 -0.7626
  453TIP3    H222851   4.497   0.471  10.289  0.7847  1.7564 -1.2020
  454TIP3   OH222852   4.805   0.541  11.164 -0.0791 -0.6191 -0.3469
  454TIP3    H122853   4.718   0.507  11.182  1.0753 -2.9970  1.3395
  454TIP3    H222854   4.820   0.606  11.233 -0.0925 -1.1527  0.1753
  455TIP3   OH222855   0.624   4.145   1.662  0.1052  0.1069 -0.3943
  455TIP3    H122856   0.650   4.172   1.574 -0.1419  0.9458 -0.2205
  455TIP3    H222857   0.651   4.217   1.718  0.2069 -0.3973  0.2164
  456TIP3   OH222858   4.600   4.348  12.350  0.2569 -0.1893  0.4056
  456TIP3    H122859   4.560   4.396  12.423  2.3034 -2.4491  3.2510
  456TIP3    H222860   4.648   4.415  12.301 -0.6937  1.3428  1.4729
  457TIP3   OH222861   4.024   6.674  15.120  0.1451 -0.0224 -0.4874
  457TIP3    H122862   3.996   6.709  15.205  1.5662  1.6025 -0.6145
  457TIP3    H222863   4.119   6.667  15.128  0.2488 -0.2836 -1.7877
  458TIP3   OH222864   5.864   5.883   0.829  0.0222 -0.1527  0.5363
  458TIP3    H122865   5.871   5.978   0.843 -0.9864  0.3290 -1.6897
  458TIP3    H222866   5.823   5.850   0.909  1.7410  1.0195  1.9858
  459TIP3   OH222867   6.736   0.673   5.167  0.3478 -0.2865  0.5832
  459TIP3    H122868   6.809   0.663   5.106  0.5049 -1.0469  0.8884
  459TIP3    H222869   6.766   0.632   5.248 -0.4412 -0.6523  0.7018
  460TIP3   OH222870   3.751   2.096  12.363 -0.3775 -0.4402  0.0420
  460TIP3    H122871   3.664   2.107  12.325 -0.4748  0.2017  0.4331
  460TIP3    H222872   3.751   2.152  12.441  0.7876  0.5494 -0.6251
  461TIP3   OH222873   5.126   4.623   2.059  0.3557 -0.0351 -0.1332
  461TIP3    H122874   5.126   4.604   1.965  0.8411 -0.7023 -0.0049
  461TIP3    H222875   5.067   4.558   2.097  1.7661 -1.1268  0.2669
  462TIP3   OH222876   0.068   1.908  14.695  0.6435 -0.3470  0.5111
  462TIP3    H122877   0.128   1.979  14.669  0.4212 -1.1877 -2.7053
  462TIP3    H222878   0.125   1.834  14.713  0.7278 -0.1307  1.1678
  463TIP3   OH222879   5.527   5.199   5.587 -0.2429  0.0954  0.3865
  463TIP3    H122880   5.521   5.217   5.681  1.7929 -1.3250  0.8523
  463TIP3    H222881   5.442   5.162   5.564 -0.6200  0.0496  1.7444
  464TIP3   OH222882   1.380   2.329   5.485  0.0593  0.0445  0.1945
  464TIP3    H122883   1.460   2.284   5.511 -0.8970 -1.4082  0.7712
  464TIP3    H222884   1.320   2.259   5.459  0.0650  1.2375 -3.6851
  465TIP3   OH222885   3.043   1.431  13.783 -0.1043  0.1871  0.5162
  465TIP3    H122886   3.132   1.443  13.752  0.2733 -1.9115  0.6808
  465TIP3    H222887   3.009   1.357  13.733 -1.6930  0.7891  0.6247
  466TIP3   OH222888   5.470   5.593  16.028 -0.3127 -0.6906  0.4279
  466TIP3    H122889   5.565   5.595  16.034 -0.3789  0.8810  1.5614
  466TIP3    H222890   5.441   5.563  16.114 -0.8502 -1.1962  0.0811
  467TIP3   OH222891   3.218   3.624   5.182  0.5513 -0.0020  0.1703
  467TIP3    H122892   3.158   3.577   5.241 -0.5927 -0.9051 -1.6040
  467TIP3    H222893   3.182   3.712   5.177  0.7139  0.1123  0.8724
  468TIP3   OH222894   0.500   1.471   2.736  0.2004  0.6446 -0.6049
  468TIP3    H122895   0.561   1.507   2.801  1.8392 -2.4365 -0.2580
  468TIP3    H222896   0.415   1.471   2.780  0.8984  0.4902  0.7913
  469TIP3   OH222897   1.255   0.677  15.901 -0.8067 -0.3753  0.1635
  469TIP3    H122898   1.295   0.662  15.987 -0.3900 -0.3608 -0.0215
  469TIP3    H222899   1.177   0.622  15.901 -2.2367  1.5350  1.5051
  470TIP3   OH222900   0.281   0.931   4.281 -0.3848 -0.0883 -0.2526
  470TIP3    H122901   0.248   1.019   4.259 -0.6053 -0.4940 -1.6327
  470TIP3    H222902   0.345   0.912   4.212  1.4712 -0.0417  1.3881
  471TIP3   OH222903   0.103   5.502  14.128  0.2902  0.2616  0.6608
  471TIP3    H122904   0.190   5.478  14.096 -0.0419 -1.3854  0.9481
  471TIP3    H222905   0.045   5.490  14.053  0.3888  2.2496  0.1888
  472TIP3   OH222906   6.720   1.612   3.260 -0.5215  0.4201  0.4962
  472TIP3    H122907   6.727   1.689   3.204 -0.2828  0.0367 -0.0115
  472TIP3    H222908   6.766   1.543   3.211  0.8770  0.4093  1.7671
  473TIP3   OH222909   0.299   6.737   2.939 -0.9791  0.0647 -0.2383
  473TIP3    H122910   0.341   6.660   2.977  0.0863  1.1697  0.9277
  473TIP3    H222911   0.370   6.784   2.894 -1.4417  0.7400 -0.2836
  474TIP3   OH222912   0.112   1.918  15.080 -0.0782 -0.2827  0.1746
  474TIP3    H122913   0.181   1.858  15.109  0.6433  0.4432 -0.0019
  474TIP3    H222914   0.031   1.868  15.090  0.7078 -2.3900 -2.7829
  475TIP3   OH222915   0.502   3.724   5.780 -0.3041  0.2906 -0.2698
  475TIP3    H122916   0.473   3.815   5.788 -0.6064  0.3984 -2.0053
  475TIP3    H222917   0.471   3.682   5.860  0.8626  1.9400  1.1340
  476TIP3   OH222918   1.365   4.199   4.497 -0.0826 -0.0794 -0.0994
  476TIP3    H122919   1.447   4.247   4.504 -0.4576  0.4583  0.6628
  476TIP3    H222920   1.345   4.171   4.586 -1.4362  0.9991 -0.0242
  477TIP3   OH222921   5.824   1.809  12.597 -0.4670 -0.7440  0.1313
  477TIP3    H122922   5.746   1.818  12.652  0.7555  1.5307  1.6906
  477TIP3    H222923   5.845   1.899  12.571  1.9399 -1.1920  0.3131
  478TIP3   OH222924   6.573   0.773   2.811 -0.0264 -0.3677  0.1174
  478TIP3    H122925   6.523   0.826   2.749 -0.8261 -1.0434  0.1762
  478TIP3    H222926   6.520   0.771   2.890  0.5056 -0.3678  0.4820
  479TIP3   OH222927   1.590   3.178   4.245  0.6073  0.4913  0.4185
  479TIP3    H122928   1.538   3.231   4.306  1.7223  1.8974  0.2028
  479TIP3    H222929   1.668   3.231   4.228  0.8540 -0.3696 -1.3549
  480TIP3   OH222930   5.934   1.803   3.820 -0.0849 -0.2654  0.3120
  480TIP3    H122931   5.963   1.748   3.747  1.2138  0.8004 -0.0037
  480TIP3    H222932   5.838   1.805   3.811 -0.0487 -1.2100 -0.5726
  481TIP3   OH222933   3.103   3.227   0.553 -0.1173  0.3136 -0.2978
  481TIP3    H122934   3.162   3.155   0.575 -0.9197  0.0400  1.0726
  481TIP3    H222935   3.128   3.253   0.465  0.3979 -1.4496 -0.7019
  482TIP3   OH222936   0.771   0.979   2.611 -0.1112  0.1671 -0.1834
  482TIP3    H122937   0.727   0.901   2.577 -1.4414  0.2199  1.3265
  482TIP3    H222938   0.766   1.042   2.539 -1.0613 -0.3872 -0.6214
  483TIP3   OH222939   5.134   3.581   2.866 -0.2852  0.2767  0.0237
  483TIP3    H122940   5.220   3.541   2.878 -0.3627  0.1228  0.0585
  483TIP3    H222941   5.080   3.546   2.936 -0.5556 -0.1258 -0.3806
  484TIP3   OH222942   6.402   1.476  15.793  0.2079  0.8106  0.4581
  484TIP3    H122943   6.495   1.461  15.777  0.4910 -0.6974  2.8934
  484TIP3    H222944   6.362   1.475  15.706  2.0488 -1.8002 -0.4943
  485TIP3   OH222945   1.901   2.791  13.379 -0.2437 -0.1101 -0.3928
  485TIP3    H122946   1.965   2.815  13.445 -0.4962  0.9579 -0.5155
  485TIP3    H222947   1.826   2.848  13.396 -2.2503 -2.9487  1.3186
  486TIP3   OH222948   5.284   1.166  11.621  0.3500 -0.3472  0.3659
  486TIP3    H122949   5.207   1.111  11.607  0.5715 -0.5076 -0.2308
  486TIP3    H222950   5.350   1.131  11.561  0.9355 -0.3018  0.9763
  487TIP3   OH222951   3.325   2.611   3.358  0.4335 -0.2708  0.1758
  487TIP3    H122952   3.390   2.612   3.288 -0.5021  0.3230 -0.7040
  487TIP3    H222953   3.242   2.597   3.314 -0.0075 -1.6662  1.3476
  488TIP3   OH222954   5.817   6.591  15.778 -0.6284 -0.0667  0.4056
  488TIP3    H122955   5.801   6.652  15.706 -0.8882  1.2719  1.5574
  488TIP3    H222956   5.901   6.550  15.757  0.3612  1.8763  0.3850
  489TIP3   OH222957   5.016   3.175   5.710 -0.7265  0.0550  0.0789
  489TIP3    H122958   4.973   3.240   5.654 -0.4432 -0.3069 -0.5650
  489TIP3    H222959   5.069   3.122   5.650 -0.4269 -0.3492  0.6856
  490TIP3   OH222960   3.896   1.475   0.613  0.3625 -0.1497  0.4960
  490TIP3    H122961   3.885   1.410   0.544  0.7351 -0.5652  0.8238
  490TIP3    H222962   3.989   1.473   0.635  0.5418  1.0649 -0.0401
  491TIP3   OH222963   2.495   1.900   2.997  0.3841  0.0661  0.3799
  491TIP3    H122964   2.443   1.978   2.977 -3.4961 -2.1706  0.9002
  491TIP3    H222965   2.548   1.926   3.073 -0.0337  2.4293 -0.0638
  492TIP3   OH222966   6.362   1.126  14.647  0.2931  0.0669 -0.0800
  492TIP3    H122967   6.317   1.061  14.700  1.0805 -0.4631 -0.0454
  492TIP3    H222968   6.293   1.184  14.616 -0.3766 -0.5923  0.1613
  493TIP3   OH222969   0.094   4.650   2.260 -0.1898 -0.1875 -0.2185
  493TIP3    H122970   0.153   4.723   2.281 -0.9935  0.6543 -0.8058
  493TIP3    H222971   0.044   4.681   2.184 -0.2544 -1.5247 -0.7422
  494TIP3   OH222972   5.357   5.903   6.029 -0.0984  0.2872 -0.0685
  494TIP3    H122973   5.436   5.879   6.078  0.8326  2.1976 -0.5266
  494TIP3    H222974   5.286   5.898   6.093  0.4893 -0.7837  0.5339
  495TIP3   OH222975   1.928   5.709   2.480  0.4415 -0.2789  0.3704
  495TIP3    H122976   1.969   5.794   2.464 -1.5456  0.9190  1.3598
  495TIP3    H222977   1.840   5.729   2.509 -0.5406 -2.7312 -0.5920
  496TIP3   OH222978   2.020   1.785   4.027  0.0643 -0.0264 -1.0339
  496TIP3    H122979   2.064   1.769   4.111  0.6902  0.1893 -1.3194
  496TIP3    H222980   2.036   1.877   4.008  1.3858 -0.4752 -2.2172
  497TIP3   OH222981   0.426   3.218  16.632 -0.3304  0.2855  0.0351
  497TIP3    H122982   0.387   3.290  16.681 -0.7841  0.1609 -0.1423
  497TIP3    H222983   0.521   3.230  16.644 -0.2151  2.4854 -2.1509
  498TIP3   OH222984   3.637   2.699  13.735 -0.3077  0.0848 -0.3460
  498TIP3    H122985   3.660   2.634  13.801  0.1505  0.3107 -0.2813
  498TIP3    H222986   3.704   2.767  13.742 -0.3894  0.2319 -0.8791
  499TIP3   OH222987   4.221   2.524  15.318  0.0588  0.3161  0.4010
  499TIP3    H122988   4.283   2.466  15.275 -1.1568 -0.6413 -0.1219
  499TIP3    H222989   4.181   2.574  15.247 -0.4231  0.2599  0.6281
  500TIP3   OH222990   3.779   2.874   5.852 -0.4550  0.2648 -0.1787
  500TIP3    H122991   3.719   2.942   5.820  0.2138  0.3759 -1.2495
  500TIP3    H222992   3.750   2.794   5.808 -1.6634 -0.3261  1.5945
  501TIP3   OH222993   1.290   2.050   1.054 -0.4196 -0.1031 -0.9368
  501TIP3    H122994   1.363   2.004   1.014 -0.9132 -0.9071 -0.9352
  501TIP3    H222995   1.236   2.078   0.980 -1.7486 -2.2813 -0.8729
  502TIP3   OH222996   0.533   2.339   0.335 -0.5830 -0.4155  0.2778
  502TIP3    H122997   0.596   2.290   0.283 -0.1560 -0.6327  0.9855
  502TIP3    H222998   0.550   2.312   0.425 -1.4664 -0.2285  0.5099
  503TIP3   OH222999   3.418   5.824   4.142 -0.5758  0.0093  0.3463
  503TIP3    H123000   3.427   5.805   4.236 -0.4422 -0.8420  0.1713
  503TIP3    H223001   3.346   5.768   4.113  2.1087 -3.1627 -0.9288
  504TIP3   OH223002   6.011   4.860  12.174 -0.0794 -0.9795 -0.0738
  504TIP3    H123003   6.044   4.875  12.262 -0.9934 -0.3951  0.1783
  504TIP3    H223004   5.958   4.780  12.181 -0.0045 -1.0335 -0.1289
  505TIP3   OH223005   4.556   3.677  16.492 -0.5982  0.3054 -0.0222
  505TIP3    H123006   4.620   3.682  16.563  2.3735  0.7825 -2.5303
  505TIP3    H223007   4.538   3.769  16.470 -0.6094  0.1670 -0.5979
  506TIP3   OH223008   6.279   6.081   1.474  0.4734  0.3592 -0.5738
  506TIP3    H123009   6.240   6.012   1.528  1.2879  0.1018 -0.3007
  506TIP3    H223010   6.286   6.156   1.532  0.4190  0.3890 -0.6063
  507TIP3   OH223011   3.540   4.308  15.442  0.5791  0.0523 -0.2630
  507TIP3    H123012   3.601   4.235  15.454  0.9547  0.4970  0.6616
  507TIP3    H223013   3.519   4.307  15.349  1.0360 -0.8716 -0.3671
  508TIP3   OH223014   4.686   1.103   5.545 -0.2291  0.0049  0.4542
  508TIP3    H123015   4.730   1.099   5.460  1.5124 -0.4484  1.3202
  508TIP3    H223016   4.603   1.147   5.527  0.5864  0.9647 -1.2875
  509TIP3   OH223017   1.923   0.709  13.163  0.1578 -0.4339 -0.4098
  509TIP3    H123018   2.014   0.703  13.192  1.0277  4.3382 -1.2961
  509TIP3    H223019   1.876   0.743  13.239 -0.4431 -0.8986 -0.5690
  510TIP3   OH223020   6.468   4.279   3.147 -0.5626  0.2043  0.2162
  510TIP3    H123021   6.427   4.236   3.221 -1.5306 -0.6133 -0.7613
  510TIP3    H223022   6.502   4.361   3.183 -0.7362 -0.3067  1.6102
  511TIP3   OH223023   5.229   6.710  13.519 -0.4313  0.5216 -0.3283
  511TIP3    H123024   5.138   6.682  13.527 -0.5485  0.6164 -1.2652
  511TIP3    H223025   5.255   6.734  13.608 -0.4387 -2.1600  0.4839
  512TIP3   OH223026   0.623   3.045   1.142  0.4476 -0.8757  0.1733
  512TIP3    H123027   0.530   3.069   1.142  0.6000 -0.1999  1.4508
  512TIP3    H223028   0.637   3.002   1.057 -0.5065  1.0726 -1.0662
  513TIP3   OH223029   6.068   4.177   0.566 -0.1456  0.3346 -0.1745
  513TIP3    H123030   6.057   4.248   0.630  1.5191  0.5945 -0.1315
  513TIP3    H223031   6.163   4.170   0.555 -0.3733  0.0816 -2.3742
  514TIP3   OH223032   0.926   4.762   0.251 -0.0155 -0.3241  0.0275
  514TIP3    H123033   0.939   4.670   0.226 -0.4282 -0.8516  1.6629
  514TIP3    H223034   0.872   4.798   0.180  1.4000 -0.9106 -1.4058
  515TIP3   OH223035   1.167   1.313   0.490 -0.1641 -0.4891  0.1977
  515TIP3    H123036   1.174   1.254   0.565 -0.4985 -0.5009  0.2230
  515TIP3    H223037   1.152   1.399   0.528  0.7006 -0.3205  0.1715
  516TIP3   OH223038   3.410   6.532  13.242  0.2086  0.4553 -0.1632
  516TIP3    H123039   3.390   6.447  13.281  1.3977  0.2655  0.0720
  516TIP3    H223040   3.466   6.512  13.167  1.0427  1.0615  0.2771
  517TIP3   OH223041   6.029   0.397  11.727  0.4210  0.2418  0.4457
  517TIP3    H123042   6.040   0.483  11.767  0.0943 -0.1880  1.5058
  517TIP3    H223043   6.069   0.336  11.790 -3.0128 -0.8270  1.8110
  518TIP3   OH223044   3.174   6.627  13.401  0.5491 -0.0402 -0.3283
  518TIP3    H123045   3.159   6.564  13.472  0.5939 -0.7384 -0.9279
  518TIP3    H223046   3.253   6.595  13.358  0.5398  0.4025 -0.6674
  519TIP3   OH223047   5.141   5.267   6.345 -0.2031 -0.3023  0.6253
  519TIP3    H123048   5.232   5.241   6.358  0.0714  0.0958 -0.3920
  519TIP3    H223049   5.090   5.203   6.394  0.5606 -1.3534  0.0721
  520TIP3   OH223050   1.724   4.112  17.116 -0.7208  0.0222 -0.0466
  520TIP3    H123051   1.666   4.127  17.042 -0.4523 -2.7482 -0.9530
  520TIP3    H223052   1.807   4.153  17.091 -1.1977  0.7729 -0.4065
  521TIP3   OH223053   5.737   4.899  10.266 -0.0140  0.0391 -0.6943
  521TIP3    H123054   5.758   4.867  10.353 -0.3297 -0.1054 -0.6716
  521TIP3    H223055   5.784   4.982  10.259  0.0293  0.0408 -0.3955
  522TIP3   OH223056   2.079   5.455   0.089 -0.6447  0.2896  0.1042
  522TIP3    H123057   2.015   5.496   0.147 -1.2832 -0.4524 -0.0652
  522TIP3    H223058   2.089   5.517   0.017 -1.1509  0.4290  0.1484
  523TIP3   OH223059   5.778   0.978  13.432  0.1557  0.0565  0.0834
  523TIP3    H123060   5.853   0.984  13.373  0.3422  0.6949  0.3731
  523TIP3    H223061   5.716   0.922  13.387 -0.1159  1.3122 -1.1649
  524TIP3   OH223062   2.185   6.809   4.718 -0.1034  0.1177  0.7302
  524TIP3    H123063   2.169   6.732   4.772 -0.9459  0.5949  1.1852
  524TIP3    H223064   2.179   6.777   4.628  0.2972 -0.4837  0.9102
  525TIP3   OH223065   6.187   6.424   2.404 -0.1281 -0.2222  0.4536
  525TIP3    H123066   6.188   6.387   2.492 -0.6343  0.8993  0.9504
  525TIP3    H223067   6.094   6.428   2.381  0.0546 -2.1208 -0.8691
  526TIP3   OH223068   2.571   6.465   5.158 -0.4546  0.9751  0.7510
  526TIP3    H123069   2.550   6.558   5.149 -0.0528  1.0933  1.0553
  526TIP3    H223070   2.589   6.453   5.251  2.8423  1.3135  0.2746
  527TIP3   OH223071   4.915   2.842  16.546  0.5912 -0.3747 -0.1323
  527TIP3    H123072   4.895   2.804  16.461  1.8594  0.2537 -0.7353
  527TIP3    H223073   4.875   2.929  16.544  0.1007 -0.5916  0.1538
  528TIP3   OH223074   3.548   1.704  14.040 -0.1634  0.0515  0.1298
  528TIP3    H123075   3.620   1.691  13.977  1.8737  1.4844  2.0134
  528TIP3    H223076   3.544   1.623  14.089 -0.2153 -0.2332 -0.3364
  529TIP3   OH223077   5.107   0.647  15.836  0.0254 -0.0025  0.1743
  529TIP3    H123078   5.087   0.629  15.744 -1.4190  0.7918  0.3046
  529TIP3    H223079   5.097   0.563  15.880  0.4690 -0.3343 -0.3496
  530TIP3   OH223080   1.654   1.181   1.578  0.0471  0.2186 -0.1286
  530TIP3    H123081   1.690   1.107   1.529  0.2389 -0.8444  1.5240
  530TIP3    H223082   1.616   1.142   1.657  1.1073  1.9607  1.3318
  531TIP3   OH223083   6.471   4.113   4.175  0.1076  0.5290 -0.4845
  531TIP3    H123084   6.553   4.160   4.161 -0.8456  1.5250 -3.3000
  531TIP3    H223085   6.491   4.023   4.148  0.2633  0.7815 -1.2220
  532TIP3   OH223086   4.814   5.001  10.610 -0.5836 -0.3919 -0.2153
  532TIP3    H123087   4.822   5.064  10.681 -2.2582 -0.7228  0.3084
  532TIP3    H223088   4.859   5.042  10.536 -0.8257  0.9902  0.3867
  533TIP3   OH223089   0.327   1.969   4.859 -0.1018  0.7094 -0.7261
  533TIP3    H123090   0.256   2.031   4.848  0.3552  1.1979 -0.9755
  533TIP3    H223091   0.398   2.020   4.897 -1.0191 -0.5117  3.0583
  534TIP3   OH223092   3.702   6.538  13.491  0.2586  0.5280 -0.0977
  534TIP3    H123093   3.664   6.626  13.487  0.5037  0.7091  1.0998
  534TIP3    H223094   3.776   6.541  13.430  0.1397  1.0996 -0.2204
  535TIP3   OH223095   0.829   6.405  16.374 -0.4240  0.1009 -0.8362
  535TIP3    H123096   0.864   6.407  16.463 -0.5147  2.2571 -0.8165
  535TIP3    H223097   0.793   6.316  16.365  1.2842 -0.7983  0.5791
  536TIP3   OH223098   6.767   6.730  14.617 -0.3267  0.0312 -0.4056
  536TIP3    H123099   6.703   6.712  14.686 -1.6506 -0.8868 -1.8042
  536TIP3    H223100   6.786   6.644  14.579  1.2475  0.3762 -0.4843
  537TIP3   OH223101   6.536   6.701   3.012 -0.2746 -0.0896 -0.0864
  537TIP3    H123102   6.552   6.771   2.948 -0.7748 -0.4129 -0.5738
  537TIP3    H223103   6.623   6.680   3.046 -0.2001  1.2350  0.5730
  538TIP3   OH223104   3.069   5.069  12.710  0.0916  0.0175  0.4852
  538TIP3    H123105   2.986   5.041  12.672  0.8229 -1.1175 -0.3471
  538TIP3    H223106   3.076   5.162  12.688  0.3165 -0.5173 -1.9133
  539TIP3   OH223107   6.302   2.013  11.540 -0.3394  0.2716 -0.4536
  539TIP3    H123108   6.292   1.924  11.505  0.1138  0.0297  0.0168
  539TIP3    H223109   6.389   2.041  11.511  0.4418 -0.2879  1.2107
  540TIP3   OH223110   2.800   6.186  16.522 -0.5552 -0.1460 -0.4255
  540TIP3    H123111   2.798   6.162  16.430 -0.1614 -0.1192 -0.4409
  540TIP3    H223112   2.759   6.273  16.525 -2.8103 -1.1422 -0.2494
  541TIP3   OH223113   6.137   3.200  15.274  0.0034 -0.3655  0.1366
  541TIP3    H123114   6.217   3.251  15.266 -0.7473  0.5406 -2.9024
  541TIP3    H223115   6.096   3.231  15.355  2.1084 -0.0534  1.1505
  542TIP3   OH223116   3.668   5.433  11.724  0.3806  0.1253  0.6842
  542TIP3    H123117   3.594   5.435  11.784 -1.0640  1.9530 -1.0379
  542TIP3    H223118   3.727   5.367  11.761 -2.0591 -1.3826  2.1374
  543TIP3   OH223119   2.194   3.959  12.186  0.1648  0.7536  0.0935
  543TIP3    H123120   2.240   4.035  12.220  1.3305 -0.4340  1.3299
  543TIP3    H223121   2.248   3.928  12.113  1.6366 -0.8331  1.7511
  544TIP3   OH223122   2.167   0.841   1.383  0.3442 -0.8017 -0.0837
  544TIP3    H123123   2.141   0.925   1.421  0.1107  0.0426 -1.9917
  544TIP3    H223124   2.238   0.863   1.323 -0.2983 -1.8326 -1.2653
  545TIP3   OH223125   5.712   4.043  16.104  0.5659 -0.5850  0.3699
  545TIP3    H123126   5.795   4.089  16.111  0.9164 -1.0265 -0.6601
  545TIP3    H223127   5.675   4.072  16.020 -0.4182 -0.2502  0.8986
  546TIP3   OH223128   5.506   1.572   6.390  0.4145  0.7456 -0.2139
  546TIP3    H123129   5.423   1.550   6.349  0.5759  0.5302 -0.4230
  546TIP3    H223130   5.484   1.641   6.454 -0.0767  0.0226  0.4094
  547TIP3   OH223131   5.348   1.951   2.537  0.5944 -0.1188  0.1987
  547TIP3    H123132   5.419   1.898   2.573 -0.4101 -2.9561 -1.6351
  547TIP3    H223133   5.371   1.961   2.444 -2.7292 -3.9738 -1.3161
  548TIP3   OH223134   0.637   6.564   6.293  0.4657  0.6521 -0.2451
  548TIP3    H123135   0.718   6.605   6.265  1.3580  0.4562  1.8653
  548TIP3    H223136   0.599   6.625   6.356  0.2265 -0.2961  0.5741
  549TIP3   OH223137   3.883   6.063  11.261  0.3023  0.7060 -0.2931
  549TIP3    H123138   3.847   6.094  11.177  1.0756 -0.9176 -1.2631
  549TIP3    H223139   3.851   5.973  11.269  0.7089  0.6561  0.8959
  550TIP3   OH223140   4.968   3.174  13.593  0.3004 -0.1968 -0.1371
  550TIP3    H123141   4.944   3.245  13.653  0.1031 -0.2182 -0.1914
  550TIP3    H223142   5.063   3.165  13.604  0.7259  1.6200 -1.7942
  551TIP3   OH223143   3.470   0.327  14.950 -0.0032  0.2624 -0.0074
  551TIP3    H123144   3.469   0.416  14.987 -0.5670 -0.1664  1.0733
  551TIP3    H223145   3.438   0.337  14.861  1.0049  1.2947 -0.2772
  552TIP3   OH223146   5.794   3.279  13.015  0.0180  0.4191 -0.0570
  552TIP3    H123147   5.723   3.246  13.070 -0.7906  1.6573 -0.3449
  552TIP3    H223148   5.761   3.270  12.925 -0.3269  2.1912 -0.1357
  553TIP3   OH223149   2.107   0.266   0.098 -0.5767 -0.0371  0.0509
  553TIP3    H123150   2.126   0.223   0.015  1.8648 -0.5922  0.8248
  553TIP3    H223151   2.036   0.214   0.136 -2.9333  1.1884 -2.3036
  554TIP3   OH223152   2.545   4.153   2.035 -0.9782  0.0926 -0.1850
  554TIP3    H123153   2.470   4.207   2.061 -1.8594 -1.5962  0.9717
  554TIP3    H223154   2.545   4.081   2.097  0.6829 -0.7899 -1.1472
  555TIP3   OH223155   6.213   5.648   0.457 -0.3763 -0.4185  0.1008
  555TIP3    H123156   6.200   5.731   0.503  2.4267  0.6724 -0.8017
  555TIP3    H223157   6.218   5.673   0.364 -2.2543 -2.0383 -0.4812
  556TIP3   OH223158   0.011   6.367  16.598 -0.3245  0.2015 -0.1377
  556TIP3    H123159  -0.020   6.447  16.556 -1.6317 -0.3730 -0.3085
  556TIP3    H223160  -0.057   6.344  16.660  0.0208 -0.7985 -0.1135
  557TIP3   OH223161   0.946   5.990   4.880 -0.4099 -0.0229  0.1120
  557TIP3    H123162   0.931   5.929   4.809 -0.8277 -0.7994  0.8536
  557TIP3    H223163   1.035   5.971   4.910 -0.1611  0.4378 -0.3232
  558TIP3   OH223164   2.438   6.442  15.942 -0.5574 -0.0995 -0.4403
  558TIP3    H123165   2.423   6.536  15.952 -1.5357 -0.2953  0.0277
  558TIP3    H223166   2.533   6.432  15.949 -0.5677  0.6602  1.2665
  559TIP3   OH223167   1.639   5.756  10.618  0.2740  0.2938  0.7767
  559TIP3    H123168   1.568   5.740  10.679 -0.2220 -0.2768  0.0712
  559TIP3    H223169   1.717   5.720  10.660 -0.2162 -0.8664  0.7047
  560TIP3   OH223170   1.503   3.401   4.398  0.5835  0.1232 -0.1861
  560TIP3    H123171   1.511   3.404   4.493  2.2757  0.3483 -0.3125
  560TIP3    H223172   1.547   3.480   4.367 -0.2126  0.2078 -1.1560
  561TIP3   OH223173   2.686   2.324  15.252 -1.3430 -0.0327  0.1453
  561TIP3    H123174   2.727   2.257  15.197  1.9757  1.6852  0.2587
  561TIP3    H223175   2.628   2.276  15.310  0.7997 -2.8490  0.1683
  562TIP3   OH223176   1.120   3.280   1.212 -0.3688  0.6670  0.2306
  562TIP3    H123177   1.184   3.307   1.278  0.5054  1.9439 -1.0915
  562TIP3    H223178   1.040   3.262   1.262  0.2295  1.7338  1.6202
  563TIP3   OH223179   0.079   5.202  14.033  0.0517  0.5298 -0.2032
  563TIP3    H123180   0.014   5.132  14.027  0.0751  0.4507  0.4364
  563TIP3    H223181   0.096   5.226  13.942  1.1463 -1.3154 -0.5518
  564TIP3   OH223182   4.074   4.834  10.895 -0.8016  0.3173 -0.1018
  564TIP3    H123183   3.987   4.849  10.857 -0.5452 -1.5286 -1.5164
  564TIP3    H223184   4.133   4.886  10.842 -0.7865 -0.1070 -0.5042
  565TIP3   OH223185   5.413   6.626   0.313  0.3974  0.5426  0.8212
  565TIP3    H123186   5.372   6.615   0.399  1.6308 -0.5537  1.3052
  565TIP3    H223187   5.349   6.676   0.262 -0.1448  1.6953  2.5277
  566TIP3   OH223188   6.048   2.708  13.141  0.3173 -0.5560  0.2889
  566TIP3    H123189   6.136   2.706  13.178  0.6899  1.6326 -0.2811
  566TIP3    H223190   5.996   2.753  13.207  0.4852  1.3424 -0.7791
  567TIP3   OH223191   6.535   5.372  16.530  0.0134  0.1775 -0.3554
  567TIP3    H123192   6.597   5.338  16.595  0.1771  0.5089 -0.3353
  567TIP3    H223193   6.452   5.378  16.576  0.1140  0.3458 -0.1936
  568TIP3   OH223194   4.500   3.467  11.424  0.4773  0.2505  0.4013
  568TIP3    H123195   4.539   3.413  11.355  3.0976 -0.1056  2.0318
  568TIP3    H223196   4.563   3.538  11.437 -0.2394  0.6330  2.0323
  569TIP3   OH223197   4.052   5.079   3.048  0.4968 -0.1546 -0.0059
  569TIP3    H123198   3.958   5.063   3.051 -0.0000  2.3525  1.8472
  569TIP3    H223199   4.068   5.116   2.961 -0.2312 -0.6308 -0.3437
  570TIP3   OH223200   0.610   3.294   3.036 -0.1207  0.5830  0.1440
  570TIP3    H123201   0.672   3.363   3.011  0.0133 -0.0913 -1.4956
  570TIP3    H223202   0.535   3.307   2.978  0.4328 -1.3778 -1.1173
  571TIP3   OH223203   4.335   5.084   3.575 -0.2443  0.1545  0.3447
  571TIP3    H123204   4.249   5.042   3.571 -0.1351  0.0518 -2.1918
  571TIP3    H223205   4.323   5.168   3.530  0.1190  1.9286  3.3130
  572TIP3   OH223206   0.011   2.612   1.499 -0.7056 -0.0635 -0.3373
  572TIP3    H123207  -0.069   2.562   1.482 -1.1887  0.3254  0.6789
  572TIP3    H223208   0.057   2.561   1.566 -0.4199  0.0459 -0.4494
  573TIP3   OH223209   6.379   2.787   4.571 -0.2655 -0.2429 -0.1384
  573TIP3    H123210   6.474   2.777   4.577 -0.4814 -1.7887  2.1196
  573TIP3    H223211   6.357   2.854   4.636 -0.7697 -0.5394  0.0080
  574TIP3   OH223212   5.693   6.239  14.225 -0.0884 -0.5491  0.6664
  574TIP3    H123213   5.689   6.254  14.131 -1.0468  0.1103  0.7945
  574TIP3    H223214   5.777   6.275  14.253  1.9629 -4.0340 -0.4602
  575TIP3   OH223215   1.651   0.209   2.372 -0.6672 -0.2582 -0.2231
  575TIP3    H123216   1.687   0.124   2.347 -0.0370  0.3132 -1.3616
  575TIP3    H223217   1.563   0.190   2.404  0.1061 -1.5377  1.2937
  576TIP3   OH223218   2.823   5.165  12.597  0.3307 -0.0776 -0.6106
  576TIP3    H123219   2.833   5.234  12.531  0.2105  0.8522  0.3129
  576TIP3    H223220   2.777   5.207  12.669 -2.3718 -1.8823 -1.1308
  577TIP3   OH223221   2.328   0.606   4.297 -0.0639 -0.0974  0.5500
  577TIP3    H123222   2.250   0.651   4.330  0.4467  0.4155  1.0833
  577TIP3    H223223   2.293   0.532   4.247 -0.8899  0.0376  0.9003
  578TIP3   OH223224   6.270   2.494   5.646  0.1245 -0.1502 -0.2792
  578TIP3    H123225   6.198   2.529   5.699  0.5014  1.3335 -0.7047
  578TIP3    H223226   6.295   2.566   5.589 -0.0176 -1.5896 -2.2464
  579TIP3   OH223227   4.989   4.140  14.559  0.5769 -0.2769  0.7210
  579TIP3    H123228   4.932   4.198  14.609  2.5631  2.0193  0.4755
  579TIP3    H223229   5.037   4.091  14.625  0.8448  0.3578  1.0016
  580TIP3   OH223230   1.838   6.301   6.054 -0.1816 -1.1779  1.0244
  580TIP3    H123231   1.885   6.352   5.989  0.8112 -1.8028  1.2370
  580TIP3    H223232   1.757   6.274   6.010 -0.1531 -0.4485  0.5230
  581TIP3   OH223233   4.619   3.708  13.616  0.3144 -0.1990 -0.7884
  581TIP3    H123234   4.597   3.636  13.676 -1.3872  0.9900  0.1005
  581TIP3    H223235   4.713   3.698  13.601  0.0514 -3.0014 -1.2560
  582TIP3   OH223236   2.139   3.209  13.666  0.2835  0.5260  0.3454
  582TIP3    H123237   2.234   3.214  13.656  0.5073 -2.3195  0.1376
  582TIP3    H223238   2.109   3.157  13.592 -0.6041 -3.5175  3.1917
  583TIP3   OH223239   4.550   1.152   2.030  0.1933 -0.3062  0.1505
  583TIP3    H123240   4.483   1.203   1.985 -0.4486 -0.7945  0.5398
  583TIP3    H223241   4.624   1.213   2.041 -0.2805  0.3093 -0.0497
  584TIP3   OH223242   3.532   3.088   2.855 -0.2795 -0.1917 -0.4854
  584TIP3    H123243   3.550   3.126   2.941  4.1766 -1.0417 -0.7709
  584TIP3    H223244   3.496   3.001   2.874 -0.0542 -0.0754  0.5384
  585TIP3   OH223245   0.785   6.206  10.834  0.0754  1.2493 -0.2108
  585TIP3    H123246   0.770   6.150  10.758 -2.0707  1.2212  0.1501
  585TIP3    H223247   0.731   6.284  10.817 -0.7528  1.0753  1.4234
  586TIP3   OH223248   3.475   2.836  13.164  0.8635  0.0940  0.8619
  586TIP3    H123249   3.537   2.898  13.125  1.1955 -1.1780 -0.7439
  586TIP3    H223250   3.527   2.759  13.185  0.2335 -0.1278  1.6888
  587TIP3   OH223251   1.341   2.411   2.791  0.5705  0.2100 -0.4299
  587TIP3    H123252   1.372   2.352   2.861  0.7566  0.8295  0.0222
  587TIP3    H223253   1.246   2.398   2.790  0.4749  0.7509  0.4701
  588TIP3   OH223254   4.827   5.946  15.764  0.4849  0.5151  0.3928
  588TIP3    H123255   4.793   6.022  15.716  0.5844 -0.6241 -1.6013
  588TIP3    H223256   4.908   5.978  15.805  1.2008  1.2115 -1.4488
  589TIP3   OH223257   0.320   5.190  12.731 -0.1235  0.6369  0.1353
  589TIP3    H123258   0.414   5.204  12.721 -0.3649  2.2687 -0.1165
  589TIP3    H223259   0.310   5.162  12.822  0.6996 -0.6584 -0.1506
  590TIP3   OH223260   3.980   3.987   2.579  0.6622 -0.2641 -0.3175
  590TIP3    H123261   3.961   3.967   2.671  1.9959  2.5861  0.7106
  590TIP3    H223262   3.894   3.994   2.538 -0.1461  1.1878  1.4619
  591TIP3   OH223263   1.520   4.973   5.970  0.1085 -0.0903  0.5368
  591TIP3    H123264   1.564   4.958   6.054 -1.6120 -3.0170  1.0648
  591TIP3    H223265   1.429   4.991   5.995 -0.4563 -1.1465 -0.6867
  592TIP3   OH223266   4.026   4.641   1.595 -0.0473 -0.2284  0.4278
  592TIP3    H123267   4.033   4.622   1.501  0.0055 -2.4372  0.8211
  592TIP3    H223268   3.938   4.610   1.619  0.2371 -0.4156  1.2470
  593TIP3   OH223269   1.603   6.241  16.643 -0.4512 -0.1937 -0.6351
  593TIP3    H123270   1.664   6.259  16.715  3.0889 -0.1757 -3.3212
  593TIP3    H223271   1.588   6.326  16.603 -2.0474 -0.2677 -0.2518
  594TIP3   OH223272   6.639   4.286  14.688  0.3663  0.5372  0.3140
  594TIP3    H123273   6.705   4.355  14.675 -0.2202  0.8478 -1.2919
  594TIP3    H223274   6.573   4.327  14.743 -0.7749  1.9017 -1.9234
  595TIP3   OH223275   0.077   3.511  13.377  0.1397  0.3291  0.4960
  595TIP3    H123276   0.113   3.452  13.311 -0.5577 -0.7156  1.0328
  595TIP3    H223277  -0.017   3.515  13.358  0.0411  0.5654  1.0156
  596TIP3   OH223278   3.887   1.392  14.513  0.1379  0.2996  0.8491
  596TIP3    H123279   3.972   1.370  14.551  0.0549 -1.4177  0.1657
  596TIP3    H223280   3.863   1.314  14.462 -1.3130  1.1925  0.0867
  597TIP3   OH223281   5.331   3.188  16.837  0.4222 -0.3619  0.0108
  597TIP3    H123282   5.373   3.169  16.921 -0.4069 -2.5406 -0.0162
  597TIP3    H223283   5.268   3.257  16.857  1.3099  0.2503  0.8271
  598TIP3   OH223284   6.165   5.453  12.543  0.4492  0.5684 -0.0740
  598TIP3    H123285   6.247   5.403  12.547  0.4248  0.1972 -2.6930
  598TIP3    H223286   6.097   5.389  12.565  0.7291  0.6099  1.0082
  599TIP3   OH223287   5.957   3.760   5.420 -0.4659  0.4289  0.3626
  599TIP3    H123288   5.983   3.834   5.365 -2.2552  0.7600 -0.0900
  599TIP3    H223289   5.918   3.800   5.497 -0.9655 -0.0360  0.3565
  600TIP3   OH223290   3.306   6.346   1.354  0.3352  0.2135 -0.0619
  600TIP3    H123291   3.344   6.304   1.277  2.0876  0.3488  0.6818
  600TIP3    H223292   3.350   6.304   1.428 -1.1964  0.1961  0.8895
  601TIP3   OH223293   4.769   4.229   4.720  0.2333  0.0813  0.3629
  601TIP3    H123294   4.820   4.163   4.768 -0.4758 -0.0103  1.0088
  601TIP3    H223295   4.834   4.276   4.669  0.8416 -0.6935  0.3945
  602TIP3   OH223296   5.744   3.583   6.491 -0.5942 -0.3350 -0.4091
  602TIP3    H123297   5.754   3.660   6.433  0.0333 -0.7255 -0.8317
  602TIP3    H223298   5.694   3.616   6.565  0.2203  0.6630 -0.2652
  603TIP3   OH223299   3.506   0.736  15.540 -0.3576 -0.5168  0.2131
  603TIP3    H123300   3.494   0.734  15.445 -2.5574  0.3466  0.4051
  603TIP3    H223301   3.451   0.810  15.569  1.7513  0.4575  1.9918
  604TIP3   OH223302   5.065   4.404  14.227  0.3565 -0.3107 -0.0567
  604TIP3    H123303   5.093   4.320  14.264 -0.9210 -0.7991 -0.1495
  604TIP3    H223304   5.038   4.456  14.303 -0.6633 -0.6932 -0.1494
  605TIP3   OH223305   4.399   3.554   5.182  0.8303  0.5118 -0.1060
  605TIP3    H123306   4.468   3.491   5.160  2.6593  2.3073  0.2155
  605TIP3    H223307   4.366   3.584   5.097  0.5777 -0.1828 -0.2611
  606TIP3   OH223308   1.169   5.508  13.526 -0.5144  0.1245 -0.3768
  606TIP3    H123309   1.198   5.449  13.457 -0.2184 -0.6128  0.3484
  606TIP3    H223310   1.249   5.548  13.560 -0.6491  0.4327 -0.4223
  607TIP3   OH223311   0.246   3.887  11.393 -0.1121 -0.1656  0.3724
  607TIP3    H123312   0.188   3.855  11.325  0.0283  2.1165 -0.9394
  607TIP3    H223313   0.213   3.974  11.415  1.7967  0.5285  0.7833
  608TIP3   OH223314   3.669   0.675   1.784  0.5811 -0.4008 -0.1271
  608TIP3    H123315   3.575   0.671   1.769  0.6528 -1.0135 -0.4244
  608TIP3    H223316   3.682   0.757   1.833 -0.1639 -0.6192  0.4470
  609TIP3   OH223317   6.639   0.649  10.575  0.0320 -0.0627  0.0339
  609TIP3    H123318   6.578   0.645  10.648 -1.4294 -3.6965 -1.1575
  609TIP3    H223319   6.603   0.715  10.516 -0.9831  0.0852  0.8101
  610TIP3   OH223320   2.206   6.305  11.236  0.0279  0.0101  0.2772
  610TIP3    H123321   2.160   6.230  11.198 -0.5723 -0.1478  1.2917
  610TIP3    H223322   2.281   6.318  11.178 -1.0325 -0.0024 -1.1650
  611TIP3   OH223323   1.204   6.519   5.927 -0.1432  1.5367  0.1809
  611TIP3    H123324   1.268   6.460   5.967 -0.2678  1.3684  0.1371
  611TIP3    H223325   1.166   6.468   5.855 -2.3481  0.5652  1.9045
  612TIP3   OH223326   1.060   1.119  16.051  0.1672 -0.7957 -0.2893
  612TIP3    H123327   1.140   1.140  16.002  0.6411  0.5253  0.9937
  612TIP3    H223328   0.989   1.153  15.997  0.7473  1.5861  0.3711
  613TIP3   OH223329   6.034   6.445  12.385 -0.0640  0.0127  0.1281
  613TIP3    H123330   6.037   6.349  12.377  0.6332  0.0812 -0.5080
  613TIP3    H223331   6.120   6.468  12.422  0.2062  0.4805 -0.7703
  614TIP3   OH223332   0.771   5.143   0.668 -0.4595 -0.1608 -0.2868
  614TIP3    H123333   0.700   5.130   0.731 -0.2309 -1.9606 -0.3560
  614TIP3    H223334   0.847   5.100   0.708  0.3427  0.8606 -0.6718
  615TIP3   OH223335   0.632   3.564  12.479  0.5167 -0.8861 -0.1182
  615TIP3    H123336   0.668   3.646  12.445  1.0535 -1.3415 -0.6621
  615TIP3    H223337   0.708   3.508  12.493  0.5463 -0.2287  3.3603
  616TIP3   OH223338   4.595   5.674  12.257  1.2364 -0.2641 -0.4124
  616TIP3    H123339   4.627   5.748  12.205  0.1867 -1.4830 -2.9671
  616TIP3    H223340   4.517   5.708  12.301  0.9087  0.2402 -1.3476
  617TIP3   OH223341   2.277   1.766  17.116  0.1559 -0.2927 -0.7750
  617TIP3    H123342   2.251   1.822  17.189 -1.1144 -0.3809 -1.1403
  617TIP3    H223343   2.351   1.812  17.076  2.1506 -1.1879  1.6700
  618TIP3   OH223344   0.500   6.642   1.578  0.1318  0.4311  0.6828
  618TIP3    H123345   0.491   6.722   1.629  0.1518  0.6714  0.3096
  618TIP3    H223346   0.592   6.616   1.590  0.2752  0.7715  0.3545
  619TIP3   OH223347   5.394   3.268   3.452 -0.2362  0.8620 -0.6974
  619TIP3    H123348   5.388   3.185   3.500  0.0862  1.8691  1.1632
  619TIP3    H223349   5.477   3.262   3.404  0.8837  0.9399  1.1381
  620TIP3   OH223350   2.804   1.463  16.678 -0.2678 -0.0035  0.2341
  620TIP3    H123351   2.857   1.457  16.598  0.5596  2.2852  0.5332
  620TIP3    H223352   2.761   1.548  16.672 -0.3748  0.1157  2.1203
  621TIP3   OH223353   6.728   4.936  15.408  0.2563 -0.2261  0.3435
  621TIP3    H123354   6.745   4.877  15.335  0.3456 -0.2578  0.3899
  621TIP3    H223355   6.815   4.957  15.442  0.2598  0.3455  0.0004
  622TIP3   OH223356   4.314   1.734   4.802  0.2351  0.2477  0.1310
  622TIP3    H123357   4.301   1.641   4.789  0.0482  0.1936  0.6642
  622TIP3    H223358   4.274   1.752   4.887  1.7411  0.4870  0.8226
  623TIP3   OH223359   1.761   4.801   5.067 -0.2102  0.1233 -0.4393
  623TIP3    H123360   1.774   4.890   5.099 -2.2364 -0.0538  1.0357
  623TIP3    H223361   1.719   4.755   5.139 -0.4388 -1.6678 -1.6529
  624TIP3   OH223362   2.888   4.810  11.362  0.4863 -0.2680 -0.5005
  624TIP3    H123363   2.827   4.810  11.435 -1.0037 -0.6475 -1.6986
  624TIP3    H223364   2.910   4.902  11.348 -0.8665  0.0063 -0.8977
  625TIP3   OH223365   6.252   6.151   3.971 -0.1588  0.1504 -0.4485
  625TIP3    H123366   6.342   6.117   3.963 -0.3169  0.2023 -3.3568
  625TIP3    H223367   6.258   6.217   4.041  1.1840 -2.3462  2.0117
  626TIP3   OH223368   2.224   3.920  12.751  0.3960 -0.5196  0.2779
  626TIP3    H123369   2.311   3.925  12.790  0.1795  0.2987  0.6763
  626TIP3    H223370   2.240   3.925  12.656  0.6035  4.0152  0.3488
  627TIP3   OH223371   2.070   3.193  11.059 -0.0712  0.2125 -0.2990
  627TIP3    H123372   2.130   3.264  11.039 -0.1674 -0.0137 -1.4728
  627TIP3    H223373   2.100   3.158  11.144  0.6910  0.8766 -0.2896
  628TIP3   OH223374   2.936   2.836   4.897 -0.0515  0.2810 -0.2878
  628TIP3    H123375   3.000   2.765   4.903  0.9514  1.2724  1.7074
  628TIP3    H223376   2.952   2.876   4.812 -0.5846 -1.7770 -1.4372
  629TIP3   OH223377   0.713   6.449   3.744  1.0594  0.6132  0.8920
  629TIP3    H123378   0.661   6.439   3.665  0.3107  2.1865  1.1533
  629TIP3    H223379   0.657   6.413   3.814  1.7650 -0.8803  0.7282
  630TIP3   OH223380   1.108   2.028   1.621  0.1864  0.1739  0.2498
  630TIP3    H123381   1.055   1.957   1.656 -0.2334  0.7433  0.7952
  630TIP3    H223382   1.198   2.004   1.644 -0.0784  0.5521  1.8136
  631TIP3   OH223383   3.076   1.508   0.910 -0.2156  0.1384  0.4997
  631TIP3    H123384   3.087   1.602   0.903 -0.5157  0.0735 -1.3995
  631TIP3    H223385   2.987   1.496   0.943 -0.3125  0.5128  0.3712
  632TIP3   OH223386   4.918   4.823  16.363 -0.0047 -0.4796 -0.2280
  632TIP3    H123387   4.968   4.816  16.282 -1.0740 -2.3577 -0.7881
  632TIP3    H223388   4.854   4.893  16.346 -0.4934 -1.1377 -1.1950
  633TIP3   OH223389   3.054   5.039  15.047  0.1047  0.7318 -0.3476
  633TIP3    H123390   2.994   5.112  15.032  1.2010  1.5159 -1.1484
  633TIP3    H223391   3.061   4.995  14.963  0.0398  0.1631 -0.0603
  634TIP3   OH223392   1.980   0.371   4.983  0.7205 -0.2918 -0.2543
  634TIP3    H123393   1.920   0.441   4.959 -1.2727 -1.8486 -0.1637
  634TIP3    H223394   1.975   0.309   4.910  1.9581 -0.6270 -0.0752
  635TIP3   OH223395   5.629   1.496   0.141  0.1485 -0.4804 -0.0712
  635TIP3    H123396   5.706   1.480   0.086 -0.9191 -2.5169 -1.1023
  635TIP3    H223397   5.554   1.471   0.085 -1.0950 -0.8581  1.6714
  636TIP3   OH223398   3.325   6.037  13.412  0.1461  0.3430  0.6045
  636TIP3    H123399   3.242   6.073  13.445 -0.7746 -0.9406 -0.2152
  636TIP3    H223400   3.381   6.033  13.490 -0.6735  0.8972  1.2492
  637TIP3   OH223401   3.893   2.246  12.030 -0.4330 -0.3987  0.1999
  637TIP3    H123402   3.953   2.205  11.967 -1.1030  0.4835 -1.0448
  637TIP3    H223403   3.919   2.209  12.114  1.4415 -0.5230 -0.3798
  638TIP3   OH223404   3.870   1.566  11.875  0.0052  0.5169  0.4364
  638TIP3    H123405   3.852   1.640  11.934  2.1736  0.1911  1.6102
  638TIP3    H223406   3.884   1.606  11.790 -1.7522  1.1386  0.3882
  639TIP3   OH223407   1.128   6.381   3.367 -0.1263 -0.1164 -0.9226
  639TIP3    H123408   1.123   6.461   3.418 -2.1078 -1.0943  0.5526
  639TIP3    H223409   1.055   6.388   3.305 -0.9679 -1.1727 -0.0936
  640TIP3   OH223410   1.921   5.990   3.797  0.6493 -0.3237  0.3687
  640TIP3    H123411   1.850   5.959   3.854 -0.4011 -3.1729 -2.2053
  640TIP3    H223412   2.001   5.967   3.845 -0.0900  0.7355  2.2427
  641TIP3   OH223413   2.692   5.040   6.514 -0.1167  0.5654 -0.0426
  641TIP3    H123414   2.731   5.122   6.485  1.9643 -0.1615  0.5156
  641TIP3    H223415   2.618   5.026   6.455  0.0436  2.3625 -0.7214
  642TIP3   OH223416   6.592   4.681  16.063  0.4332 -0.3993 -0.5285
  642TIP3    H123417   6.553   4.733  15.993 -0.3479 -0.7970 -0.3958
  642TIP3    H223418   6.557   4.593  16.051 -1.3864 -0.0545  1.5744
  643TIP3   OH223419   5.023   4.577   2.989 -0.0592 -0.5615  0.2514
  643TIP3    H123420   5.071   4.632   2.927 -1.3830 -0.8528 -1.1039
  643TIP3    H223421   4.931   4.589   2.965 -0.4655 -2.3866  0.7295
  644TIP3   OH223422   1.847   3.953  16.574  0.2281  0.1373 -0.4404
  644TIP3    H123423   1.931   3.968  16.529  0.7190 -2.2713 -0.4600
  644TIP3    H223424   1.788   3.924  16.505  0.1723 -0.8131 -0.0057
  645TIP3   OH223425   3.700   4.738  13.661  0.0664  0.2265 -0.1601
  645TIP3    H123426   3.639   4.725  13.733  0.7296 -0.1577  0.3383
  645TIP3    H223427   3.682   4.827  13.631 -0.8694  0.0561 -0.1537
  646TIP3   OH223428   1.663   2.814   1.004  1.0473  0.3904 -0.2736
  646TIP3    H123429   1.685   2.720   1.004 -2.3739 -0.5613 -1.1666
  646TIP3    H223430   1.674   2.841   0.913 -0.8801 -0.0248 -0.6711
  647TIP3   OH223431   2.203   4.011   0.049 -0.2415 -0.6275 -0.8354
  647TIP3    H123432   2.280   4.068   0.043  0.2050 -1.1057  0.1118
  647TIP3    H223433   2.181   4.009   0.142 -0.3236 -1.8889 -0.8569
  648TIP3   OH223434   3.249   5.489  11.058  0.1627  0.6217  0.3885
  648TIP3    H123435   3.265   5.581  11.036 -1.0483  0.6195 -0.5859
  648TIP3    H223436   3.174   5.464  11.004 -1.3766 -0.1304  2.7070
  649TIP3   OH223437   2.004   2.936   2.964 -0.4780 -0.1819 -0.4378
  649TIP3    H123438   1.927   2.987   2.991 -0.3304  0.2358 -0.7931
  649TIP3    H223439   2.068   3.002   2.936 -0.2534 -0.5550 -0.8227
  650TIP3   OH223440   6.726   3.830  13.913  0.0546 -0.2738 -0.1967
  650TIP3    H123441   6.738   3.804  13.822 -0.2663 -1.4477  0.0672
  650TIP3    H223442   6.682   3.755  13.953  1.9058 -0.6222  1.3706
  651TIP3   OH223443   1.095   4.888  16.664  0.3007  0.5234 -0.0257
  651TIP3    H123444   1.075   4.863  16.574 -0.8570  1.2736  0.0093
  651TIP3    H223445   1.022   4.853  16.715  1.0493 -0.0677  0.6669
  652TIP3   OH223446   4.386   4.672  15.687  0.1997  0.1333  0.1087
  652TIP3    H123447   4.315   4.736  15.682  0.3770  0.3056 -0.3244
  652TIP3    H223448   4.346   4.594  15.727 -0.0377  0.4844  0.5590
  653TIP3   OH223449   2.487   1.249  17.101  0.7445 -0.2714 -0.2928
  653TIP3    H123450   2.418   1.306  17.065  2.0151  0.0608 -2.3803
  653TIP3    H223451   2.560   1.308  17.118  1.4589 -1.0026 -0.7666
  654TIP3   OH223452   4.717   6.059   1.494  0.2739 -0.2355 -0.5769
  654TIP3    H123453   4.730   5.964   1.498  2.6426  0.0819  1.2140
  654TIP3    H223454   4.795   6.096   1.534 -1.5697  2.4347  0.8848
  655TIP3   OH223455   0.471   0.881   4.099 -0.0105 -0.0607  0.7833
  655TIP3    H123456   0.492   0.893   4.006  0.1704 -0.3350  0.7871
  655TIP3    H223457   0.537   0.818   4.130 -2.5451 -3.3367  0.0966
  656TIP3   OH223458   0.553   2.307   0.605  0.4348  0.3182 -0.1895
  656TIP3    H123459   0.566   2.220   0.565  0.7147 -0.0364  0.6392
  656TIP3    H223460   0.618   2.310   0.675  0.0626  0.9867  0.1310
  657TIP3   OH223461   3.772   3.239   0.568 -0.3881 -0.7571 -0.0723
  657TIP3    H123462   3.787   3.195   0.652  0.6333 -1.2804 -0.5101
  657TIP3    H223463   3.679   3.263   0.570 -0.1506  0.1638  1.6313
  658TIP3   OH223464   3.771   6.553   1.489  0.1472 -0.1168  0.2314
  658TIP3    H123465   3.727   6.576   1.407 -1.6303  0.1661  1.2252
  658TIP3    H223466   3.760   6.458   1.497  0.4984 -0.1744  0.0525
  659TIP3   OH223467   6.623   3.253  11.381 -0.2224 -0.0200 -0.1990
  659TIP3    H123468   6.572   3.195  11.438  1.7571 -0.4571  1.2196
  659TIP3    H223469   6.698   3.200  11.355  0.2445  1.0565 -1.1192
  660TIP3   OH223470   5.199   2.664  16.737 -0.3965  0.2107  0.3466
  660TIP3    H123471   5.241   2.750  16.738  1.0308 -0.4641  0.8159
  660TIP3    H223472   5.119   2.676  16.788  0.8541  0.7978  2.3229
  661TIP3   OH223473   4.292   6.108   2.301  0.3739 -0.5444  0.0596
  661TIP3    H123474   4.358   6.040   2.286 -0.1882 -1.1745  0.3828
  661TIP3    H223475   4.231   6.098   2.229 -0.3632 -1.1838  0.7581
  662TIP3   OH223476   6.280   5.672  16.500 -0.1110 -0.2848  0.1084
  662TIP3    H123477   6.211   5.607  16.515 -0.1195 -0.2631  0.1613
  662TIP3    H223478   6.245   5.753  16.536  1.1867 -0.9123  3.1280
  663TIP3   OH223479   0.486   1.835  13.381  0.3898  0.3324 -0.7255
  663TIP3    H123480   0.459   1.746  13.357 -2.7889  0.3367  2.1184
  663TIP3    H223481   0.423   1.892  13.337  1.1591  1.0611 -0.9018
  664TIP3   OH223482   4.846   0.635   3.477 -0.2061  0.5275 -0.5478
  664TIP3    H123483   4.860   0.579   3.401  0.2602 -0.5335  0.2816
  664TIP3    H223484   4.933   0.670   3.497 -0.4274  1.2423 -0.8282
  665TIP3   OH223485   4.196   5.463   0.633  0.4076  0.0606  0.5175
  665TIP3    H123486   4.217   5.428   0.546  0.8811 -1.7982  1.3244
  665TIP3    H223487   4.115   5.511   0.620  1.0874  0.8583 -1.1790
  666TIP3   OH223488   2.230   4.369  16.163 -0.3279  0.2836  0.6605
  666TIP3    H123489   2.198   4.278  16.160 -0.4802  0.3064 -3.0653
  666TIP3    H223490   2.163   4.416  16.212 -0.5136 -1.4867  2.2308
  667TIP3   OH223491   1.561   0.264   0.802 -0.0470 -0.0929 -0.8863
  667TIP3    H123492   1.617   0.282   0.878  1.8822 -2.5471 -1.5753
  667TIP3    H223493   1.473   0.287   0.831  0.4384 -1.8522  2.5336
  668TIP3   OH223494   6.601   3.111   0.676 -0.1227  0.3756 -0.0186
  668TIP3    H123495   6.528   3.058   0.644  1.4937 -0.8925 -1.8516
  668TIP3    H223496   6.602   3.187   0.618 -1.1359  1.3945  1.2543
  669TIP3   OH223497   2.756   0.853  12.108  0.7776  0.3375  0.1331
  669TIP3    H123498   2.753   0.795  12.184 -0.2496  2.3330  1.7268
  669TIP3    H223499   2.816   0.924  12.134 -0.4999  1.6731 -0.3979
  670TIP3   OH223500   5.727   0.673  12.016 -0.6848  0.0652 -0.5342
  670TIP3    H123501   5.765   0.603  12.070 -1.1956 -0.3168 -0.6538
  670TIP3    H223502   5.639   0.641  11.996 -0.8454  0.6530 -0.7716
  671TIP3   OH223503   0.981   4.614  17.120 -0.1098  0.8301 -0.0951
  671TIP3    H123504   1.061   4.567  17.145 -0.4605  1.0049  1.4507
  671TIP3    H223505   1.010   4.678  17.056  1.0222  0.9413  0.5064
  672TIP3   OH223506   2.206   4.217   0.382  0.4548 -0.3633 -0.2180
  672TIP3    H123507   2.271   4.214   0.451  0.2066 -0.9702  0.0017
  672TIP3    H223508   2.181   4.125   0.369 -0.6104 -0.1135 -0.0439
  673TIP3   OH223509   2.040   4.953  14.239  0.2188 -0.5038 -0.4759
  673TIP3    H123510   2.020   4.901  14.317  1.4322 -0.6105 -0.2180
  673TIP3    H223511   2.133   4.974  14.247 -0.3069  2.0435 -0.3829
  674TIP3   OH223512   3.023   5.600  15.426  0.2236  0.2135 -0.7285
  674TIP3    H123513   3.017   5.518  15.475 -1.4975  0.1678 -0.9777
  674TIP3    H223514   3.110   5.635  15.449  0.5932 -1.1860  0.1258
  675TIP3   OH223515   5.025   0.055  12.886  0.0386  0.1166  0.0158
  675TIP3    H123516   4.977  -0.027  12.897 -0.2304  0.1965 -0.4873
  675TIP3    H223517   4.963   0.123  12.912  0.5234  0.1307  1.1932
  676TIP3   OH223518   6.574   5.685  15.108  0.1582 -0.5731  0.1824
  676TIP3    H123519   6.493   5.649  15.070  1.1423 -3.4352  0.5270
  676TIP3    H223520   6.621   5.720  15.033  1.4272 -4.8530 -1.3326
  677TIP3   OH223521   4.526   2.794   3.183  0.3610 -0.6560 -0.2113
  677TIP3    H123522   4.542   2.791   3.089  1.2224  0.2248 -0.1093
  677TIP3    H223523   4.447   2.743   3.196 -1.5941  1.7628 -1.8047
  678TIP3   OH223524   0.194   0.938  10.903  0.0797  0.3360 -0.7291
  678TIP3    H123525   0.266   0.903  10.955  1.3363  1.9611 -1.2983
  678TIP3    H223526   0.131   0.971  10.969  0.9634  1.0243 -0.2029
  679TIP3   OH223527   5.674   5.177   4.488 -0.5962  0.0262 -0.3546
  679TIP3    H123528   5.582   5.158   4.468 -0.6378  0.3036 -0.4304
  679TIP3    H223529   5.716   5.183   4.402 -0.8106  1.3978 -0.3788
  680TIP3   OH223530   0.076   6.324  16.032  0.3505 -0.2547 -0.1816
  680TIP3    H123531   0.026   6.277  15.965  1.2864 -0.7075 -0.5661
  680TIP3    H223532   0.008   6.362  16.088 -0.4409 -0.2703 -1.0932
  681TIP3   OH223533   1.434   4.183  16.689  0.2069  0.4632  0.2367
  681TIP3    H123534   1.465   4.180  16.599 -3.4243  0.0834 -1.1840
  681TIP3    H223535   1.419   4.276  16.706  0.4389  0.4958  0.2589
  682TIP3   OH223536   5.373   4.895  12.961  0.0991  0.1222  0.6529
  682TIP3    H123537   5.339   4.984  12.965  0.5882  0.3633 -0.3193
  682TIP3    H223538   5.420   4.883  13.044 -0.7466  0.4288  1.1913
  683TIP3   OH223539   1.611   6.461  15.879 -0.7682 -0.4816  0.0540
  683TIP3    H123540   1.523   6.497  15.889 -1.4759 -2.2033  0.5036
  683TIP3    H223541   1.625   6.412  15.960  1.2720  1.0193  0.6910
  684TIP3   OH223542   5.545   2.441   5.429 -0.1540  0.6074 -0.3795
  684TIP3    H123543   5.507   2.468   5.346 -3.5854  1.0097  1.1293
  684TIP3    H223544   5.486   2.477   5.495  1.2675 -1.3654  2.1646
  685TIP3   OH223545   2.006   5.136   3.898  0.7776  0.3149 -0.1698
  685TIP3    H123546   1.970   5.218   3.933 -1.6677  0.1074 -1.9757
  685TIP3    H223547   2.018   5.153   3.805 -1.7574 -1.9349 -1.0136
  686TIP3   OH223548   5.539   4.176   6.664 -0.1927  0.0088  0.4688
  686TIP3    H123549   5.548   4.100   6.721  1.1983  0.0202  0.2996
  686TIP3    H223550   5.584   4.151   6.583 -0.9501  0.4933 -0.1194
  687TIP3   OH223551   3.172   5.183   5.772  0.7627 -0.1004 -0.5276
  687TIP3    H123552   3.170   5.257   5.833 -0.7989  0.8830 -1.7010
  687TIP3    H223553   3.169   5.223   5.685 -0.4622 -1.5198 -1.1898
  688TIP3   OH223554   5.004   2.922   3.632  0.3744  0.0008 -0.3207
  688TIP3    H123555   5.035   2.946   3.544  1.0215  1.3612  0.2591
  688TIP3    H223556   5.069   2.958   3.691 -0.7967  0.3477  0.7934
  689TIP3   OH223557   4.007   2.149  17.052 -0.2434 -0.4217  0.3210
  689TIP3    H123558   4.051   2.219  17.099 -0.5618 -0.1140  0.1645
  689TIP3    H223559   4.052   2.144  16.968 -0.9401  0.3575 -0.1110
  690TIP3   OH223560   3.646   3.639   1.480 -0.0221  0.1772 -0.3609
  690TIP3    H123561   3.614   3.726   1.457 -1.7493 -0.3876 -0.2524
  690TIP3    H223562   3.741   3.645   1.471 -0.0148  2.3117  0.4893
  691TIP3   OH223563   5.350   4.316  13.245 -0.3484 -0.2061  0.4171
  691TIP3    H123564   5.355   4.292  13.338  0.0355  2.0260  1.0497
  691TIP3    H223565   5.438   4.348  13.224  0.6466 -3.7783 -1.7752
  692TIP3   OH223566   1.561   5.140  11.057  0.5486 -0.1554 -0.4513
  692TIP3    H123567   1.566   5.138  11.153  1.7884  1.6864 -0.4348
  692TIP3    H223568   1.594   5.054  11.030 -0.9219 -1.1650  0.7580
  693TIP3   OH223569   3.060   5.823  13.587 -0.2073 -0.4419 -0.3217
  693TIP3    H123570   3.034   5.871  13.509  0.6515  0.3932 -0.1089
  693TIP3    H223571   2.983   5.827  13.645  0.0977  1.4133  0.0303
  694TIP3   OH223572   6.314   4.364  16.662 -0.2628  0.0788  0.1284
  694TIP3    H123573   6.277   4.315  16.589 -1.0172 -0.6280  0.9743
  694TIP3    H223574   6.393   4.316  16.686 -0.7052 -0.4251  0.5969
  695TIP3   OH223575   4.861   3.814   2.414 -0.4694  0.9253 -0.4686
  695TIP3    H123576   4.773   3.801   2.379 -0.0266  0.3943 -1.4192
  695TIP3    H223577   4.910   3.853   2.341  0.1741  0.8794 -0.0676
  696TIP3   OH223578   6.645   5.850   2.257 -0.0572 -0.0976  0.2330
  696TIP3    H123579   6.608   5.879   2.340  0.5446 -0.2285  0.5562
  696TIP3    H223580   6.705   5.779   2.281 -3.0271 -3.2207 -0.6658
  697TIP3   OH223581   3.241   4.381   0.685  0.2243 -0.5501 -0.5738
  697TIP3    H123582   3.175   4.416   0.625  0.5059  0.3250 -0.3921
  697TIP3    H223583   3.221   4.288   0.692 -1.3085 -0.2091 -0.1078
  698TIP3   OH223584   3.868   5.996   4.068 -0.4541  0.2217  0.2759
  698TIP3    H123585   3.919   5.930   4.115 -0.8813 -0.0662  0.3405
  698TIP3    H223586   3.824   5.947   3.998 -0.1220  0.5795 -0.1965
  699TIP3   OH223587   4.929   6.339  12.881  0.0476 -0.1592  0.4632
  699TIP3    H123588   4.874   6.291  12.944 -0.4684 -0.0836  0.0802
  699TIP3    H223589   5.015   6.298  12.889 -0.0133 -0.1668  1.2007
  700TIP3   OH223590   2.545   2.540  15.203 -0.2366 -0.1917  0.3430
  700TIP3    H123591   2.590   2.456  15.206 -1.6628 -1.0434 -1.0503
  700TIP3    H223592   2.462   2.525  15.247 -0.1617  0.7414  0.8439
  701TIP3   OH223593   1.320   4.639   1.313 -0.1085  0.3409  0.4895
  701TIP3    H123594   1.297   4.716   1.260  1.7651 -0.8552 -2.2482
  701TIP3    H223595   1.379   4.674   1.380  0.9394  1.3194 -0.8700
  702TIP3   OH223596   4.824   6.550  13.265  0.8344 -0.0022  0.5074
  702TIP3    H123597   4.834   6.635  13.307 -0.4776 -0.7522  2.4672
  702TIP3    H223598   4.738   6.553  13.223  0.2920 -0.7129  1.5309
  703TIP3   OH223599   5.464   4.629   3.443  0.5402 -0.0895 -0.0294
  703TIP3    H123600   5.430   4.577   3.516  1.7422  0.5878  1.0556
  703TIP3    H223601   5.511   4.701   3.485  0.7356  0.6677 -1.4913
  704TIP3   OH223602   0.119   0.201   3.950 -0.7532  0.3204 -0.2671
  704TIP3    H123603   0.147   0.151   4.027 -1.3796 -0.2020 -0.3682
  704TIP3    H223604   0.189   0.264   3.936  0.9722 -1.6542 -1.1825
  705TIP3   OH223605   1.267   1.378   4.472  0.1961  0.6566  0.1822
  705TIP3    H123606   1.228   1.314   4.531 -0.6273  2.3734  1.5964
  705TIP3    H223607   1.337   1.419   4.523  1.0999  0.5163 -0.8941
  706TIP3   OH223608   3.698   6.626   3.666  0.5559  0.1299 -0.7255
  706TIP3    H123609   3.613   6.669   3.673  1.0203  0.9293  0.1852
  706TIP3    H223610   3.718   6.629   3.572 -0.8720 -1.0061 -1.1038
  707TIP3   OH223611   2.830   3.637   1.889 -0.7007  0.8688  0.3034
  707TIP3    H123612   2.775   3.714   1.898 -1.5111  0.2153  1.1658
  707TIP3    H223613   2.818   3.609   1.798 -1.1708  1.1854  0.2677
  708TIP3   OH223614   5.348   4.389   1.777 -0.5442 -0.2567 -0.5680
  708TIP3    H123615   5.253   4.392   1.771 -1.0169 -2.7397  2.8586
  708TIP3    H223616   5.368   4.301   1.808  2.8845  0.2521 -0.8591
  709TIP3   OH223617   0.566   1.805   1.117  0.1460 -0.2315 -0.2954
  709TIP3    H123618   0.551   1.860   1.194 -1.1308  1.0533 -1.4050
  709TIP3    H223619   0.643   1.843   1.074 -0.6072  0.6253 -0.9441
  710TIP3   OH223620   3.743   2.241   5.314 -0.6848 -0.3580  0.1437
  710TIP3    H123621   3.805   2.271   5.247  0.4374  0.5278  1.5417
  710TIP3    H223622   3.692   2.173   5.269  0.2708 -0.0586 -1.4971
  711TIP3   OH223623   2.305   0.188  12.050 -0.1630 -0.5562  0.4634
  711TIP3    H123624   2.291   0.282  12.059  1.8508 -0.2214  0.6574
  711TIP3    H223625   2.253   0.149  12.120 -0.1455  0.5083  1.0848
  712TIP3   OH223626   0.784   1.951   3.463  0.1049  0.0330  0.1084
  712TIP3    H123627   0.702   1.929   3.419  0.2945  1.1247 -0.8365
  712TIP3    H223628   0.846   1.884   3.433 -0.2710 -0.4107  0.3171
  713TIP3   OH223629   1.274   0.715   5.824 -0.3431  0.2921 -0.2026
  713TIP3    H123630   1.278   0.626   5.789  0.1806 -0.0973  0.7968
  713TIP3    H223631   1.182   0.730   5.842 -0.7191  0.7326 -2.2528
  714TIP3   OH223632   0.707   6.235  13.809 -0.7262  0.1139  0.3586
  714TIP3    H123633   0.646   6.309  13.812 -0.0078  0.7286 -0.0479
  714TIP3    H223634   0.789   6.270  13.843 -0.2490 -0.3679 -0.2736
  715TIP3   OH223635   2.139   1.956   1.671  0.0252 -0.1712  0.4766
  715TIP3    H123636   2.148   1.955   1.576  2.0774  1.1211  0.6047
  715TIP3    H223637   2.101   1.871   1.692 -1.8281  0.0451 -1.5726
  716TIP3   OH223638   4.989   1.975   5.195 -0.0767 -0.0754  0.2978
  716TIP3    H123639   4.963   1.978   5.287  2.1399 -0.1790  0.9910
  716TIP3    H223640   5.018   1.884   5.182 -0.4951 -0.0890 -0.5340
  717TIP3   OH223641   0.647   4.298  10.619 -0.0684  0.1762  0.1630
  717TIP3    H123642   0.609   4.356  10.684 -0.9023 -1.1420  0.8993
  717TIP3    H223643   0.587   4.223  10.615  0.6389 -0.3527 -1.1918
  718TIP3   OH223644   3.403   2.893   5.010 -0.5573  0.1395  0.0413
  718TIP3    H123645   3.330   2.896   4.948 -1.4933 -1.1079  1.0350
  718TIP3    H223646   3.414   2.984   5.038 -1.4564  0.4086 -0.4315
  719TIP3   OH223647   3.632   0.761  16.541  0.6383  0.4165  0.4576
  719TIP3    H123648   3.626   0.780  16.447  0.6128  0.4656  0.4680
  719TIP3    H223649   3.573   0.825  16.582  2.0766  1.6812  0.6698
  720TIP3   OH223650   6.827   2.098   1.892 -0.6224 -0.5795 -0.2266
  720TIP3    H123651   6.914   2.059   1.899 -0.5077 -0.3262 -0.2234
  720TIP3    H223652   6.823   2.131   1.803 -0.9463 -1.1276 -0.4202
  721TIP3   OH223653   3.678   1.778   5.258  0.6029  0.0723 -0.0002
  721TIP3    H123654   3.770   1.798   5.242  1.0314 -1.0812  0.8857
  721TIP3    H223655   3.679   1.693   5.301 -0.6182  1.6278  3.4509
  722TIP3   OH223656   5.868   4.434   4.781  0.0565 -0.1253  0.1430
  722TIP3    H123657   5.807   4.415   4.852  0.6759 -1.6176  0.3159
  722TIP3    H223658   5.903   4.520   4.801 -1.2812  0.3459  0.5449
  723TIP3   OH223659   5.681   4.292  14.989 -0.4552 -0.9888  0.3994
  723TIP3    H123660   5.753   4.304  15.050  0.4996  0.2275 -0.8974
  723TIP3    H223661   5.604   4.278  15.044  0.5991 -1.3103  1.8229
  724TIP3   OH223662   0.196   4.586  16.236 -0.2143 -0.2638  0.2020
  724TIP3    H123663   0.116   4.550  16.275 -0.3935  0.0872  0.1668
  724TIP3    H223664   0.169   4.673  16.203 -0.3622 -0.9583 -1.6442
  725TIP3   OH223665   5.961   6.526   4.622  0.3973 -0.2201 -0.0809
  725TIP3    H123666   5.873   6.492   4.636  0.5176 -0.4381  0.1592
  725TIP3    H223667   6.018   6.450   4.629  0.4451 -0.4624 -2.3238
  726TIP3   OH223668   6.254   3.864  11.177 -0.4243  0.3029 -0.3153
  726TIP3    H123669   6.210   3.848  11.093  0.3946  0.1437 -0.7270
  726TIP3    H223670   6.347   3.867  11.154 -0.2729  1.5917  0.3753
  727TIP3   OH223671   0.935   2.345   5.510  0.0771  1.1307 -0.1551
  727TIP3    H123672   0.947   2.335   5.415 -0.6792  1.8090 -0.3415
  727TIP3    H223673   1.017   2.380   5.541  0.6859 -0.0134 -0.3940
  728TIP3   OH223674   6.530   1.010   1.377  0.2057  0.0900  0.5406
  728TIP3    H123675   6.575   1.094   1.385  1.1758 -0.4736  1.4357
  728TIP3    H223676   6.585   0.960   1.317 -0.3138  0.0647  0.0886
  729TIP3   OH223677   0.687   2.735   4.345  0.1573 -0.1491 -0.4699
  729TIP3    H123678   0.637   2.814   4.330  2.5662  1.2511 -1.7822
  729TIP3    H223679   0.702   2.733   4.440 -1.1146  0.1776 -0.2540
  730TIP3   OH223680   5.656   2.505   3.237 -0.3309  0.4434 -0.3367
  730TIP3    H123681   5.662   2.575   3.171 -0.7816  0.5785 -0.2407
  730TIP3    H223682   5.665   2.424   3.188 -2.4174  0.4720 -0.8277
  731TIP3   OH223683   6.526   2.956   1.729  0.0010  0.1496  0.3119
  731TIP3    H123684   6.572   2.879   1.695  0.5076  0.5593  0.0559
  731TIP3    H223685   6.476   2.923   1.804 -0.4707 -0.5996 -0.3166
  732TIP3   OH223686   4.448   0.106   0.479 -0.0357  0.2342 -0.5499
  732TIP3    H123687   4.377   0.103   0.414  1.4744  0.8893 -2.3361
  732TIP3    H223688   4.507   0.035   0.454 -0.6348 -1.1259  1.6915
  733TIP3   OH223689   2.085   3.283  15.942  0.3700  0.1515 -0.2743
  733TIP3    H123690   2.058   3.273  16.033 -1.4037 -1.4535 -0.8933
  733TIP3    H223691   2.013   3.333  15.902  0.0998 -0.9156 -1.1809
  734TIP3   OH223692   4.523   4.897  11.491  0.3834 -0.2921  0.0800
  734TIP3    H123693   4.593   4.962  11.493  0.3808 -0.3039  0.9024
  734TIP3    H223694   4.489   4.896  11.580 -2.4120  1.6063 -0.8089
  735TIP3   OH223695   0.887   2.399  16.846 -0.7482  0.3028  0.6231
  735TIP3    H123696   0.968   2.451  16.848 -0.5772  0.3256 -2.3757
  735TIP3    H223697   0.911   2.317  16.889  0.2187  1.1121  1.6913
  736TIP3   OH223698   0.691   2.180   0.159  0.5232  1.0705 -0.1883
  736TIP3    H123699   0.763   2.123   0.132  0.5540 -1.1670  3.7187
  736TIP3    H223700   0.614   2.143   0.114  0.7537 -1.5000  1.2864
  737TIP3   OH223701   3.622   0.280  16.734 -0.4347 -0.0588  0.2812
  737TIP3    H123702   3.580   0.337  16.670  0.1113 -0.6323 -0.6094
  737TIP3    H223703   3.624   0.332  16.815  0.7604  1.4998 -0.6982
  738TIP3   OH223704   1.947   4.703   4.863 -0.3416 -0.3282  0.2496
  738TIP3    H123705   1.863   4.714   4.908 -1.0344  0.1466 -1.1082
  738TIP3    H223706   1.986   4.790   4.863 -0.5957 -0.2072 -0.5165
  739TIP3   OH223707   5.295   1.792   5.733  0.7914  0.1415  0.1934
  739TIP3    H123708   5.360   1.731   5.699  0.3502 -0.6836  0.7845
  739TIP3    H223709   5.219   1.782   5.675  0.6207 -0.0783  0.4513
  740TIP3   OH223710   4.928   1.146   3.776  0.0417  0.5502 -0.0294
  740TIP3    H123711   4.918   1.096   3.857  2.3044  0.5248  0.2926
  740TIP3    H223712   4.847   1.129   3.728  0.0015 -2.0746  0.8023
  741TIP3   OH223713   5.460   3.965   2.952 -0.8285  0.0966  0.0970
  741TIP3    H123714   5.494   3.881   2.980  0.6218  0.6682  0.1265
  741TIP3    H223715   5.365   3.959   2.967 -0.8740 -1.8219 -0.7060
  742TIP3   OH223716   0.243   2.412  11.862  0.1512  0.3076  0.0670
  742TIP3    H123717   0.178   2.374  11.922  0.0468  1.4572  0.7091
  742TIP3    H223718   0.323   2.362  11.878 -0.0010  0.3000  0.8436
  743TIP3   OH223719   1.946   0.669   3.447  0.6840  0.2944 -0.1459
  743TIP3    H123720   1.917   0.578   3.445 -0.5551  0.5656  1.8350
  743TIP3    H223721   1.994   0.677   3.530  1.4948  1.2612 -0.6839
  744TIP3   OH223722   0.278   1.739  11.763  0.2204  0.1538  0.0059
  744TIP3    H123723   0.200   1.747  11.818  1.0591 -0.4998  1.3489
  744TIP3    H223724   0.344   1.699  11.820  1.1630 -0.4872 -1.4585
  745TIP3   OH223725   1.146   6.708  16.560 -0.4087  0.2867 -0.2168
  745TIP3    H123726   1.113   6.647  16.495 -1.4644  0.5948  0.0044
  745TIP3    H223727   1.152   6.657  16.641  1.1262 -0.1560 -0.5872
  746TIP3   OH223728   3.121   3.805  16.270  0.5600 -0.2347 -0.1574
  746TIP3    H123729   3.165   3.871  16.324 -0.6861  0.5628 -0.0923
  746TIP3    H223730   3.055   3.766  16.328 -0.5848  0.4159 -0.9982
  747TIP3   OH223731   2.416   1.327   3.663  0.0300 -0.0726  0.1519
  747TIP3    H123732   2.471   1.286   3.596  1.5189  0.3358  1.0763
  747TIP3    H223733   2.378   1.403   3.620 -2.6850 -2.2158 -1.5631
  748TIP3   OH223734   5.815   0.536   1.190  0.6349  0.8359  0.3613
  748TIP3    H123735   5.890   0.488   1.226 -1.2121 -3.1841 -0.4816
  748TIP3    H223736   5.743   0.517   1.251 -1.0966 -1.0066 -2.0202
  749TIP3   OH223737   5.235   2.584   2.096 -0.4348  0.2754  0.5952
  749TIP3    H123738   5.206   2.656   2.151 -1.9600  1.0645 -1.1430
  749TIP3    H223739   5.156   2.552   2.053  0.4736 -1.2687 -0.0406
  750TIP3   OH223740   1.385   4.613  12.211  0.1551 -0.5475  0.1133
  750TIP3    H123741   1.478   4.594  12.208  0.4103  0.6568 -2.8079
  750TIP3    H223742   1.356   4.606  12.120 -2.3376  0.2796  0.7644
  751TIP3   OH223743   1.511   4.175  14.265 -0.5466  0.7811 -0.2707
  751TIP3    H123744   1.583   4.237  14.258 -0.2092  0.2684 -1.8141
  751TIP3    H223745   1.545   4.095  14.226 -1.6751  0.2793 -0.2531
  752TIP3   OH223746   4.368   4.863   3.349  0.2374 -0.3700  0.8395
  752TIP3    H123747   4.363   4.770   3.327 -0.1550 -0.0578 -0.4822
  752TIP3    H223748   4.280   4.884   3.381  0.1285 -0.3158  0.5123
  753TIP3   OH223749   0.717   1.044   0.169  0.0042  0.1042 -0.2435
  753TIP3    H123750   0.780   1.097   0.121  1.3919 -2.2000 -1.0919
  753TIP3    H223751   0.766   0.968   0.200 -1.7608 -0.4691  1.4063
  754TIP3   OH223752   1.706   2.658   6.009 -0.2346 -0.4442  0.3564
  754TIP3    H123753   1.753   2.580   5.980 -0.4083 -0.8729  1.1953
  754TIP3    H223754   1.761   2.693   6.080 -0.4010 -0.0721  0.3019
  755TIP3   OH223755   6.305   1.761  10.727 -0.8086  0.2747 -0.4792
  755TIP3    H123756   6.392   1.783  10.694 -0.6186  0.0054 -0.1600
  755TIP3    H223757   6.246   1.822  10.681 -0.4068  0.7700 -0.3465
  756TIP3   OH223758   3.469   0.827   4.780  0.8461  0.3340 -0.5164
  756TIP3    H123759   3.407   0.756   4.761 -0.6573  1.2720  0.6583
  756TIP3    H223760   3.456   0.889   4.708  0.3862  0.5465 -0.2523
  757TIP3   OH223761   5.340   1.635   4.928  0.1272 -0.6766 -0.2344
  757TIP3    H123762   5.351   1.629   4.834 -1.2569 -0.9743 -0.4014
  757TIP3    H223763   5.417   1.591   4.965  1.7714  1.2998 -1.1589
  758TIP3   OH223764   1.218   2.676  12.514 -0.4179  0.1858 -0.6730
  758TIP3    H123765   1.175   2.743  12.460  0.1600 -0.6011 -2.1621
  758TIP3    H223766   1.190   2.593  12.476 -1.4268 -0.4881  1.3912
  759TIP3   OH223767   4.576   0.187  11.951 -0.6349  0.4879 -0.1774
  759TIP3    H123768   4.629   0.122  11.906 -0.0953  1.1654 -0.5248
  759TIP3    H223769   4.620   0.199  12.036 -2.0318 -1.3032  0.8852
  760TIP3   OH223770   1.816   6.549   5.403  0.2018 -0.3369  0.5057
  760TIP3    H123771   1.774   6.616   5.349  0.5582 -0.6357 -0.1520
  760TIP3    H223772   1.894   6.524   5.354  0.1251 -1.1665  0.7906
  761TIP3   OH223773   3.003   2.347  12.133  0.1388  0.3820  0.3262
  761TIP3    H123774   3.016   2.400  12.055 -0.6437 -2.5560 -2.0020
  761TIP3    H223775   3.039   2.261  12.110  0.3110 -0.5080  3.4037
  762TIP3   OH223776   1.269   0.263  16.006  0.8880 -0.8981  0.4021
  762TIP3    H123777   1.193   0.313  15.976  1.0603 -0.2252  1.0388
  762TIP3    H223778   1.335   0.278  15.939  1.5465  1.2632  1.4231
  763TIP3   OH223779   0.118   2.674   1.917  0.7255 -0.2223 -0.2869
  763TIP3    H123780   0.182   2.709   1.979  0.1959 -0.9187  0.6725
  763TIP3    H223781   0.045   2.645   1.971 -0.1340 -0.0408 -1.3185
  764TIP3   OH223782   1.751   3.374   5.565  0.1536  0.2901  0.1596
  764TIP3    H123783   1.684   3.382   5.497  0.2138 -1.8915 -0.2097
  764TIP3    H223784   1.799   3.294   5.543  1.1123  0.3080  1.9660
  765TIP3   OH223785   2.571   0.316   6.371  0.4600 -0.0291  0.0327
  765TIP3    H123786   2.663   0.343   6.363  0.4303  0.1204  0.1855
  765TIP3    H223787   2.530   0.346   6.290 -0.5608  4.3435  1.8489
  766TIP3   OH223788   0.527   3.003  11.929 -0.0160 -0.1293  0.1472
  766TIP3    H123789   0.577   3.079  11.899  0.0850  0.4260  1.6155
  766TIP3    H223790   0.547   2.935  11.865 -0.1986  1.0921 -1.2808
  767TIP3   OH223791   4.511   1.457  15.901  0.4618 -0.0951  0.2119
  767TIP3    H123792   4.575   1.481  15.968 -0.8186  0.4458  1.3100
  767TIP3    H223793   4.543   1.498  15.821  1.5244  0.0924  0.7161
  768TIP3   OH223794   2.331   4.204  12.233  0.2686 -0.3327 -0.1092
  768TIP3    H123795   2.361   4.227  12.321 -1.4421  0.9118  0.1939
  768TIP3    H223796   2.371   4.270  12.176  2.5321 -1.9525 -0.5538
  769TIP3   OH223797   0.209   4.874  14.973  0.1863 -0.5783 -0.0598
  769TIP3    H123798   0.304   4.887  14.966 -0.0176  0.7055 -0.7611
  769TIP3    H223799   0.174   4.912  14.892 -1.1722  2.0120  1.6008
  770TIP3   OH223800   4.598   1.982   5.431  0.6594  0.1316 -0.3236
  770TIP3    H123801   4.582   1.934   5.512  0.6124 -0.7356 -0.8289
  770TIP3    H223802   4.672   1.937   5.391  1.4804  1.3204 -0.1803
  771TIP3   OH223803   4.674   3.677  12.415  0.6898  0.4930  0.2712
  771TIP3    H123804   4.751   3.666  12.359 -0.2280  2.5796 -1.5458
  771TIP3    H223805   4.614   3.608  12.389  0.8648  0.5517 -0.2982
  772TIP3   OH223806   2.580   3.363   5.491 -0.1529 -0.2521 -0.2106
  772TIP3    H123807   2.509   3.414   5.530 -1.0233 -1.0264 -0.7230
  772TIP3    H223808   2.569   3.275   5.527  0.4268 -0.4274 -0.4492
  773TIP3   OH223809   2.092   2.668   0.142 -0.0935 -0.3941  0.3377
  773TIP3    H123810   2.098   2.670   0.047  2.4900 -1.3341  0.3896
  773TIP3    H223811   2.011   2.621   0.160 -1.6425  1.4771 -1.3191
  774TIP3   OH223812   5.369   2.296  11.565 -0.3587  0.2577  0.6482
  774TIP3    H123813   5.331   2.210  11.550  0.9917 -0.2723  0.0185
  774TIP3    H223814   5.455   2.292  11.522 -0.3698  2.0063  0.3836
  775TIP3   OH223815   4.963   4.153   1.964 -0.0670  0.2500  0.3409
  775TIP3    H123816   4.904   4.169   2.038 -1.8123  0.5888 -1.0599
  775TIP3    H223817   4.907   4.118   1.895  1.2271  1.2334 -1.2944
  776TIP3   OH223818   1.334   1.225  11.160 -0.1316 -0.3732  0.3394
  776TIP3    H123819   1.343   1.133  11.134 -0.2087  0.2723 -2.2397
  776TIP3    H223820   1.259   1.257  11.109  0.3548  1.2974  0.6059
  777TIP3   OH223821   4.232   1.754   3.768 -0.3491  0.4386  0.2959
  777TIP3    H123822   4.299   1.809   3.727 -0.8015 -0.0578 -1.1934
  777TIP3    H223823   4.281   1.695   3.825  0.5970 -0.3074 -1.2112
  778TIP3   OH223824   1.515   2.982  12.865  0.3655  0.1389  0.1557
  778TIP3    H123825   1.576   2.915  12.894 -1.0260 -0.9249  0.7144
  778TIP3    H223826   1.429   2.950  12.891 -0.3283  2.3165  0.7668
  779TIP3   OH223827   3.823   5.068   5.098  0.6307 -0.5966  0.0356
  779TIP3    H123828   3.795   5.036   5.183 -1.3280 -1.2211 -0.7808
  779TIP3    H223829   3.828   4.990   5.043 -0.5389  0.0274 -1.0161
  780TIP3   OH223830   2.979   5.004  14.250  0.8017  0.2340  0.3684
  780TIP3    H123831   3.062   5.001  14.298  0.6203  0.7416  0.7222
  780TIP3    H223832   2.920   4.946  14.298  0.9340 -0.0924  0.1417
  781TIP3   OH223833   1.637   3.993   2.985  0.1268  0.1111 -0.2579
  781TIP3    H123834   1.606   4.011   3.074  0.7305 -1.6583  0.3663
  781TIP3    H223835   1.690   3.913   2.994  1.9512  1.0397 -1.8512
  782TIP3   OH223836   5.486   0.116   2.782  0.3044  0.2081  0.4543
  782TIP3    H123837   5.439   0.041   2.745 -0.2103  0.7339  0.0295
  782TIP3    H223838   5.481   0.103   2.877  2.3640 -1.6136  0.3958
  783TIP3   OH223839   6.548   3.773   0.366 -0.1396 -0.0966  0.3583
  783TIP3    H123840   6.612   3.776   0.437  1.2857  0.3326 -0.8717
  783TIP3    H223841   6.538   3.865   0.340 -2.2397 -0.0015  1.3164
  784TIP3   OH223842   2.723   4.213  11.711 -0.4791  0.2132 -0.2794
  784TIP3    H123843   2.712   4.123  11.678 -0.7740  0.0764  0.1800
  784TIP3    H223844   2.709   4.268  11.634 -3.1659 -0.0065 -0.0399
  785TIP3   OH223845   6.414   6.779  14.529 -0.0779 -0.1941  0.3861
  785TIP3    H123846   6.437   6.783  14.436 -0.4201 -1.8184  0.2056
  785TIP3    H223847   6.429   6.868  14.561  2.2121 -0.1168 -0.7061
  786TIP3   OH223848   3.158   4.979  16.089  0.2757 -0.4898 -0.8394
  786TIP3    H123849   3.175   4.905  16.147 -1.8229 -2.1476 -2.1574
  786TIP3    H223850   3.140   5.052  16.148  1.8444 -1.1323  0.5163
  787TIP3   OH223851   2.052   1.044  14.364  0.2460  0.0665 -0.3967
  787TIP3    H123852   2.115   1.034  14.293  0.9745  0.4925  0.1658
  787TIP3    H223853   2.106   1.045  14.444 -0.5077  0.0492  0.1261
  788TIP3   OH223854   3.593   3.157  15.439 -0.5280  0.3341  0.2491
  788TIP3    H123855   3.626   3.182  15.353 -1.2024  2.7586  0.6163
  788TIP3    H223856   3.664   3.178  15.500 -0.3527 -0.6084  0.3790
  789TIP3   OH223857   5.886   5.134  15.112  0.4206  0.4545 -0.4068
  789TIP3    H123858   5.820   5.158  15.047  0.3490  2.7875  0.4332
  789TIP3    H223859   5.840   5.139  15.196  1.3086  0.7529  0.0767
  790TIP3   OH223860   4.248   2.240   4.818 -0.2237  0.3934 -0.2347
  790TIP3    H123861   4.240   2.158   4.769  0.2273  1.4476 -2.1942
  790TIP3    H223862   4.163   2.284   4.806 -0.7920 -0.1584  1.5775
  791TIP3   OH223863   6.390   0.471   2.363  0.5206 -0.1958 -0.2189
  791TIP3    H123864   6.326   0.475   2.434  1.2697  0.4188  0.4453
  791TIP3    H223865   6.356   0.530   2.296 -0.1860 -0.7718 -0.3835
  792TIP3   OH223866   0.279   6.386   5.249 -0.8081  1.3074  0.2385
  792TIP3    H123867   0.367   6.414   5.225 -1.4957  1.9820 -1.7237
  792TIP3    H223868   0.279   6.292   5.232 -0.7743  1.4949 -0.9094
  793TIP3   OH223869   0.523   4.189   4.205 -0.0947  0.1216  0.4229
  793TIP3    H123870   0.527   4.238   4.288  0.1244  1.3900 -0.3154
  793TIP3    H223871   0.614   4.169   4.185 -0.2897 -2.6505  1.8568
  794TIP3   OH223872   3.205   4.466  14.111  0.4418 -0.2421 -0.4671
  794TIP3    H123873   3.137   4.507  14.165 -1.5728 -2.8065 -0.8678
  794TIP3    H223874   3.284   4.515  14.132 -0.8714  0.9114  2.4040
  795TIP3   OH223875   1.837   3.353   0.871  0.5812 -0.4418  0.0477
  795TIP3    H123876   1.842   3.285   0.939  1.4810 -0.2563  0.1815
  795TIP3    H223877   1.874   3.312   0.793  1.0134 -0.1520  0.0957
  796TIP3   OH223878   0.773   4.369  10.375  0.0241 -0.0524  0.4404
  796TIP3    H123879   0.801   4.451  10.416 -0.5187 -0.4213  1.5981
  796TIP3    H223880   0.739   4.316  10.447  0.7194 -1.4696 -0.2171
  797TIP3   OH223881   5.957   1.167   6.100  0.6267 -0.1562  0.3401
  797TIP3    H123882   6.052   1.156   6.099  0.5693 -0.6703  0.1306
  797TIP3    H223883   5.923   1.081   6.075  0.0659 -0.4164  1.9328
  798TIP3   OH223884   2.930   5.031  16.550 -0.2073  0.2635  0.0336
  798TIP3    H123885   2.846   5.075  16.564  0.1582  0.9415  0.1666
  798TIP3    H223886   2.996   5.095  16.578  0.3519 -0.2947  0.0311
  799TIP3   OH223887   1.654   1.995   0.303  0.1456 -0.0866  0.1600
  799TIP3    H123888   1.624   1.905   0.316 -0.1936  0.0983  0.7102
  799TIP3    H223889   1.749   1.989   0.303  0.1718 -0.2686  1.7114
  800TIP3   OH223890   4.875   1.066  11.758 -0.0740 -0.4326 -0.4906
  800TIP3    H123891   4.794   1.080  11.808  0.1944  0.9708 -0.4153
  800TIP3    H223892   4.933   1.020  11.819  0.4796  1.8211  0.8107
  801TIP3   OH223893   3.360   0.705  12.145 -0.3083 -0.5443  0.5071
  801TIP3    H123894   3.341   0.660  12.228 -1.0790 -1.8216 -0.3338
  801TIP3    H223895   3.306   0.783  12.148 -0.1637 -0.4611  1.3031
  802TIP3   OH223896   0.791   0.837  14.263  0.0439 -0.4591 -0.3533
  802TIP3    H123897   0.741   0.918  14.264 -0.4427 -0.7500  0.2544
  802TIP3    H223898   0.882   0.865  14.255 -0.0287  0.2152  0.8817
  803TIP3   OH223899   5.434   4.494  16.298  0.4220  0.0833 -0.9028
  803TIP3    H123900   5.410   4.438  16.224  2.0605 -0.3763 -1.1029
  803TIP3    H223901   5.508   4.450  16.340 -0.1035  0.6344  0.6837
  804TIP3   OH223902   2.093   4.369  14.887  0.8162  0.2967  0.6400
  804TIP3    H123903   2.041   4.395  14.964  0.2611  0.1061  0.3354
  804TIP3    H223904   2.036   4.388  14.813  0.9867 -0.3938  0.3260
  805TIP3   OH223905   4.668   0.698   3.676  0.3697  0.0743 -0.1751
  805TIP3    H123906   4.724   0.710   3.599  0.0181  1.0961 -0.2855
  805TIP3    H223907   4.584   0.736   3.651  0.0594 -0.1593  0.4929
  806TIP3   OH223908   0.758   3.805   0.580 -0.1490 -0.2705 -0.1604
  806TIP3    H123909   0.710   3.814   0.497  1.7409 -0.5610 -1.3432
  806TIP3    H223910   0.697   3.760   0.638 -1.4076 -0.3711 -1.5083
  807TIP3   OH223911   1.553   3.160  12.315  0.0698 -0.1702  0.2640
  807TIP3    H123912   1.531   3.092  12.252  0.6063 -0.3390  0.2607
  807TIP3    H223913   1.606   3.116  12.381 -0.2249  0.0747  0.6719
  808TIP3   OH223914   6.531   1.526  10.467 -0.5197 -0.3563 -0.3392
  808TIP3    H123915   6.522   1.458  10.534 -1.5122  0.6927  0.6282
  808TIP3    H223916   6.482   1.493  10.392  3.3444 -3.1254 -1.9550
  809TIP3   OH223917   6.040   0.896   1.539  0.3552 -0.7058  0.5426
  809TIP3    H123918   6.135   0.899   1.554  0.8731  0.0290 -2.3168
  809TIP3    H223919   6.029   0.833   1.468 -0.9499  1.2231 -1.0893
  810TIP3   OH223920   5.870   3.589  11.021 -0.7267 -0.0953  0.2227
  810TIP3    H123921   5.857   3.563  11.113 -1.0570  2.4657  0.9781
  810TIP3    H223922   5.841   3.513  10.970  0.3127 -1.9605  2.2017
  811TIP3   OH223923   0.336   2.210  14.116  0.0315  0.0605  0.4124
  811TIP3    H123924   0.349   2.199  14.022 -1.6030 -0.6425  0.2191
  811TIP3    H223925   0.350   2.303  14.132  1.0677  0.0577 -0.3749
  812TIP3   OH223926   5.466   2.041  12.949  0.1861 -0.4880  0.7935
  812TIP3    H123927   5.457   2.010  12.859 -0.0612 -0.9048  0.9594
  812TIP3    H223928   5.392   2.101  12.962  0.8523  0.4665  0.3641
  813TIP3   OH223929   1.294   1.470  14.305 -0.5466 -0.0291  0.2940
  813TIP3    H123930   1.362   1.534  14.283 -1.2056  1.2857  1.8863
  813TIP3    H223931   1.313   1.446  14.396 -1.8830 -0.0738  0.5734
  814TIP3   OH223932   1.281   3.959   1.319 -0.4474  0.0505  0.7864
  814TIP3    H123933   1.293   3.919   1.405  1.0634 -0.9382  0.1543
  814TIP3    H223934   1.346   4.030   1.316 -1.9653  1.5337  1.2469
  815TIP3   OH223935   2.846   4.117   0.705 -0.9013 -0.0311  0.0820
  815TIP3    H123936   2.886   4.164   0.778 -0.1359 -0.2781 -0.1671
  815TIP3    H223937   2.763   4.084   0.740  0.7333 -2.6927  1.8296
  816TIP3   OH223938   3.506   0.318   5.235 -0.0871 -0.6692 -0.6591
  816TIP3    H123939   3.425   0.312   5.185  0.6003  1.4851 -2.1897
  816TIP3    H223940   3.490   0.266   5.314 -2.9990 -0.1320 -0.8002
  817TIP3   OH223941   1.129   6.772   6.160  0.0341 -0.1104 -0.0159
  817TIP3    H123942   1.160   6.715   6.230 -0.5906 -0.2972  0.1181
  817TIP3    H223943   1.038   6.790   6.183  0.0359  0.4100 -0.4048
  818TIP3   OH223944   0.881   2.857  13.506  0.4227 -0.7169  0.3301
  818TIP3    H123945   0.959   2.910  13.518  0.0128 -0.1096  0.3678
  818TIP3    H223946   0.913   2.774  13.471  1.1939 -0.8974  1.4208
  819TIP3   OH223947   5.530   1.730  11.725  0.3239 -0.2913 -0.1041
  819TIP3    H123948   5.451   1.765  11.766  1.7315  1.9733  0.8665
  819TIP3    H223949   5.531   1.637  11.750 -1.4113 -0.0928  0.8310
  820TIP3   OH223950   3.641   2.591  13.201 -0.0967 -0.0709 -0.1494
  820TIP3    H123951   3.622   2.523  13.265 -1.4657  0.0961 -0.3591
  820TIP3    H223952   3.651   2.544  13.118 -0.5638 -0.0628 -0.2097
  821TIP3   OH223953   1.171   3.824  16.163 -0.4371  0.0458 -0.3057
  821TIP3    H123954   1.220   3.835  16.244  0.7955  0.8768 -1.1362
  821TIP3    H223955   1.155   3.912  16.131  0.8753 -0.2712 -1.9810
  822TIP3   OH223956   5.066   5.042   2.842 -0.0685  0.1892 -0.1351
  822TIP3    H123957   5.046   4.969   2.783  0.7719 -0.3515  0.2197
  822TIP3    H223958   5.149   5.077   2.809 -0.2263  0.6766 -0.0155
  823TIP3   OH223959   2.434   0.316  16.397 -0.0034  0.0437 -0.2506
  823TIP3    H123960   2.372   0.389  16.401  0.0373  0.3598 -3.1694
  823TIP3    H223961   2.385   0.240  16.428 -0.2363  1.1405  2.2603
  824TIP3   OH223962   6.642   5.385  15.571 -0.1424 -0.1001 -0.7914
  824TIP3    H123963   6.647   5.468  15.619  0.6948  1.0553 -2.7664
  824TIP3    H223964   6.562   5.344  15.602 -0.4691  1.3516  0.3869
  825TIP3   OH223965   4.724   3.088   2.289  0.6096  0.2381 -0.0434
  825TIP3    H123966   4.636   3.053   2.281  0.2266  0.6351  1.9988
  825TIP3    H223967   4.721   3.171   2.240  0.3432 -0.5251 -1.3568
  826TIP3   OH223968   4.250   0.744  15.370  0.2566 -0.0026 -0.0667
  826TIP3    H123969   4.193   0.807  15.414  0.9842 -0.4025  1.5423
  826TIP3    H223970   4.208   0.729  15.285 -0.8497  1.3316  0.2017
  827TIP3   OH223971   4.848   4.119   6.028 -0.1181 -0.4928  0.4235
  827TIP3    H123972   4.824   4.194   6.082 -0.8286 -2.1310  2.5351
  827TIP3    H223973   4.767   4.068   6.021  0.2384 -0.8863 -1.3281
  828TIP3   OH223974   1.621   5.142  15.212 -0.2658 -0.3538  0.1008
  828TIP3    H123975   1.622   5.233  15.244  1.7368 -0.5915  0.8656
  828TIP3    H223976   1.565   5.145  15.135 -0.8863  1.3708  0.5549
  829TIP3   OH223977   5.155   6.572   4.654 -0.3237 -0.2930  0.1081
  829TIP3    H123978   5.080   6.533   4.699 -0.4310 -0.1007  0.0986
  829TIP3    H223979   5.136   6.560   4.561 -0.3254 -0.2786  0.1063
  830TIP3   OH223980   6.503   2.137   2.585 -0.0194 -0.5118 -0.4810
  830TIP3    H123981   6.429   2.130   2.646 -0.5977  1.2339 -0.9112
  830TIP3    H223982   6.466   2.112   2.500 -0.6748  1.9220 -1.0217
  831TIP3   OH223983   2.745   5.901  15.404  0.3018  0.4932  0.8210
  831TIP3    H123984   2.715   5.884  15.493 -0.9479  1.0884  0.5403
  831TIP3    H223985   2.834   5.934  15.415  1.4798 -2.5753  1.5993
  832TIP3   OH223986   4.212   4.627  12.313 -0.1694  0.0819 -0.0130
  832TIP3    H123987   4.261   4.619  12.394  0.6543 -1.3528 -0.6144
  832TIP3    H223988   4.213   4.721  12.293  1.4061  0.2105  0.5498
  833TIP3   OH223989   3.006   2.813   5.314  0.0359  0.0161 -0.7809
  833TIP3    H123990   2.938   2.796   5.379  1.0213  1.9250  0.8881
  833TIP3    H223991   3.086   2.821   5.366  0.9914  0.9142 -2.3161
  834TIP3   OH223992   4.190   6.494  12.105  0.1061 -0.0394  0.2527
  834TIP3    H123993   4.267   6.519  12.157  1.3660 -0.6041 -1.2302
  834TIP3    H223994   4.221   6.421  12.051  0.0064  2.4617 -3.6388
  835TIP3   OH223995   4.761   1.451  13.444 -0.7731  0.4125 -0.0151
  835TIP3    H123996   4.757   1.501  13.526 -2.4791  0.5087 -0.1255
  835TIP3    H223997   4.764   1.360  13.471  0.9399  0.4748  0.1573
  836TIP3   OH223998   5.257   1.041   5.916  0.0253 -0.1808  0.1441
  836TIP3    H123999   5.181   0.999   5.956 -0.6271 -0.0511 -0.9148
  836TIP3    H224000   5.233   1.051   5.824  0.5251  1.7031  0.1862
  837TIP3   OH224001   1.771   5.154   0.393 -0.1712 -0.2624 -0.4058
  837TIP3    H124002   1.830   5.224   0.421 -1.1996  1.1018 -1.5156
  837TIP3    H224003   1.685   5.179   0.429 -0.2933 -1.7187  0.3916
  838TIP3   OH224004   5.666   5.326  12.451  0.3828  0.1240 -0.0204
  838TIP3    H124005   5.703   5.411  12.475  0.9701 -0.3875  0.9332
  838TIP3    H224006   5.580   5.346  12.414  0.3874  1.1003  0.4878
  839TIP3   OH224007   3.120   3.396  11.079  0.0324  0.0649  0.6701
  839TIP3    H124008   3.046   3.386  11.020  0.2027  2.2924  0.0109
  839TIP3    H224009   3.193   3.421  11.022  0.1491  2.5110  1.7711
  840TIP3   OH224010   2.699   0.138  15.591  0.5955 -0.3616 -0.0114
  840TIP3    H124011   2.770   0.181  15.638  0.6405 -2.0760  1.6054
  840TIP3    H224012   2.742   0.078  15.531  0.5118  0.7294 -1.2016
  841TIP3   OH224013   0.415   3.069  15.190 -0.0269  0.6253 -0.3699
  841TIP3    H124014   0.470   2.991  15.192 -0.3024  0.4287 -0.4088
  841TIP3    H224015   0.468   3.135  15.146 -0.7498 -0.2590 -2.6670
  842TIP3   OH224016   2.289   4.991  14.349 -0.1664 -0.3552 -0.4552
  842TIP3    H124017   2.293   4.967  14.442 -0.9585 -0.5351 -0.4631
  842TIP3    H224018   2.380   5.004  14.324 -0.0032  0.6918  0.6112
  843TIP3   OH224019   0.863   6.639   6.167 -0.1370 -0.7003  0.1545
  843TIP3    H124020   0.866   6.673   6.077 -0.0659 -0.4358  0.2578
  843TIP3    H224021   0.939   6.581   6.172  0.7516  0.4707  0.5187
  844TIP3   OH224022   0.195   0.105  14.408 -0.4120 -0.1200 -0.2456
  844TIP3    H124023   0.280   0.149  14.403 -0.2099 -0.5784 -1.1461
  844TIP3    H224024   0.176   0.100  14.501  0.7131 -0.2976 -0.0065
  845TIP3   OH224025   1.467   4.157  16.119 -0.2615 -0.2557 -0.4345
  845TIP3    H124026   1.457   4.252  16.132  1.2876 -0.0474 -0.6138
  845TIP3    H224027   1.503   4.149  16.030  0.5580 -0.9400 -0.0514
  846TIP3   OH224028   0.138   6.815   2.200  0.0524 -0.0598  0.3666
  846TIP3    H124029   0.085   6.826   2.280  0.3584 -1.1654  0.7418
  846TIP3    H224030   0.219   6.861   2.219 -0.4668  1.0035  0.0804
  847TIP3   OH224031   4.781   5.006   1.255 -0.1352 -0.6110  0.1331
  847TIP3    H124032   4.722   4.931   1.245 -0.9933 -0.2548  2.0306
  847TIP3    H224033   4.865   4.975   1.222 -1.2461 -1.2667 -2.2868
  848TIP3   OH224034   5.350   6.028  14.308  0.0060 -0.7978 -0.0556
  848TIP3    H124035   5.356   5.952  14.250 -2.2722  1.2847 -3.3275
  848TIP3    H224036   5.257   6.034  14.331  0.1148  1.0197  0.0852
  849TIP3   OH224037   1.643   6.093  13.558 -0.6357 -0.0096 -0.4803
  849TIP3    H124038   1.674   6.094  13.649  0.2087 -0.2594 -0.7571
  849TIP3    H224039   1.705   6.037  13.512 -1.0867  0.0732 -1.2112
  850TIP3   OH224040   4.524   5.537   4.543 -0.2885 -0.1556 -0.5255
  850TIP3    H124041   4.615   5.562   4.557 -0.1537 -1.3835  1.0303
  850TIP3    H224042   4.475   5.588   4.607 -0.8715  1.2947 -2.0545
  851TIP3   OH224043   0.469   2.059   0.084 -0.8636 -0.2019 -0.0003
  851TIP3    H124044   0.424   2.054  -0.000 -0.4275  2.5942 -0.4772
  851TIP3    H224045   0.415   2.116   0.138  2.0421  3.6234 -0.7224
  852TIP3   OH224046   2.158   6.706   1.832  0.2889 -0.0684  0.1526
  852TIP3    H124047   2.146   6.758   1.753  2.4332 -0.0582 -0.2101
  852TIP3    H224048   2.125   6.762   1.902  1.1679  1.1850 -0.4030
  853TIP3   OH224049   6.180   4.470   2.159  0.3844  0.6458 -0.3112
  853TIP3    H124050   6.234   4.455   2.082  0.3410  0.6571 -0.3441
  853TIP3    H224051   6.090   4.477   2.125  0.1924 -0.6937 -0.1099
  854TIP3   OH224052   3.255   3.337  12.307  0.4585 -0.2920  0.6356
  854TIP3    H124053   3.181   3.357  12.364  1.0913 -0.2391  1.4554
  854TIP3    H224054   3.233   3.252  12.268 -0.4638  0.1681  0.1276
  855TIP3   OH224055   3.357   3.853   1.648 -0.4316  0.0879 -0.3567
  855TIP3    H124056   3.269   3.817   1.659 -0.3627 -0.1989 -0.7466
  855TIP3    H224057   3.414   3.793   1.696 -0.6621  1.3481  1.6086
  856TIP3   OH224058   3.843   0.138  10.708  0.1256 -0.1748  0.5123
  856TIP3    H124059   3.852   0.128  10.613  0.4658  1.4067  0.3501
  856TIP3    H224060   3.856   0.050  10.743  0.1757 -0.7505 -0.8911
  857TIP3   OH224061   0.796   4.413   0.290  0.2734  0.9032  0.2147
  857TIP3    H124062   0.872   4.374   0.333 -0.3602  0.0645  0.6167
  857TIP3    H224063   0.731   4.421   0.359 -0.3769  0.5794 -0.3445
  858TIP3   OH224064   2.207   1.518   6.078  0.4920 -0.7299  0.1928
  858TIP3    H124065   2.140   1.486   6.138 -0.9554 -0.0784 -1.0337
  858TIP3    H224066   2.224   1.608   6.107  0.4443 -0.7079  0.1507
  859TIP3   OH224067   3.459   3.808  14.095  0.0966 -0.0877  0.2133
  859TIP3    H124068   3.524   3.747  14.129  0.5313  0.0878 -0.3028
  859TIP3    H224069   3.506   3.861  14.031  0.4833  2.6697  2.5371
  860TIP3   OH224070   0.087   1.433  15.607  0.4343 -0.1846  0.5860
  860TIP3    H124071   0.010   1.453  15.555 -0.0406  0.9508  1.6837
  860TIP3    H224072   0.137   1.372  15.553  0.4901  1.7371 -1.6525
  861TIP3   OH224073   0.874   3.171  11.419 -0.0430 -0.6595  0.4297
  861TIP3    H124074   0.887   3.233  11.348  1.2812 -2.6732 -1.1991
  861TIP3    H224075   0.886   3.223  11.499 -0.1789  1.3718 -0.8182
  862TIP3   OH224076   3.460   3.496  11.840  0.4944 -0.2299  0.4930
  862TIP3    H124077   3.406   3.485  11.918  0.7950 -0.2347  0.7027
  862TIP3    H224078   3.521   3.422  11.841  0.4841 -0.2451  0.2393
  863TIP3   OH224079   3.984   2.568   5.911  0.2523  0.1087 -0.8182
  863TIP3    H124080   4.076   2.548   5.893  1.6662  4.5629  0.3191
  863TIP3    H224081   3.959   2.507   5.980  2.4434 -1.0439 -0.9598
  864TIP3   OH224082   6.816   6.617   5.161  0.0263 -0.2146 -0.1469
  864TIP3    H124083   6.740   6.641   5.107 -0.2257 -0.2492  0.1887
  864TIP3    H224084   6.891   6.641   5.108 -0.2088  1.5480  0.2538
  865TIP3   OH224085   2.695   3.407   5.226 -0.3093  0.3691  0.1152
  865TIP3    H124086   2.745   3.328   5.208 -0.3552  0.4242 -0.2675
  865TIP3    H224087   2.671   3.401   5.318  0.0418  0.1394  0.1897
  866TIP3   OH224088   4.942   3.047   1.331  0.1604 -0.2116 -0.4082
  866TIP3    H124089   4.951   3.029   1.425  1.1747  0.5992 -0.3291
  866TIP3    H224090   5.005   3.117   1.314 -0.1078 -0.2515 -1.6761
  867TIP3   OH224091   5.577   1.059   5.982  0.3449  0.4730 -0.0751
  867TIP3    H124092   5.582   1.022   6.070  1.6797 -0.3297 -0.4645
  867TIP3    H224093   5.521   0.999   5.934  1.9508 -0.7342 -0.5192
  868TIP3   OH224094   0.273   3.179   0.422 -0.0481  0.2303 -0.5967
  868TIP3    H124095   0.328   3.250   0.456  0.9250 -0.4375 -0.7236
  868TIP3    H224096   0.320   3.099   0.446  1.3460 -0.3152 -4.3889
  869TIP3   OH224097   1.434   4.953   5.023  1.0769  0.0745 -0.4008
  869TIP3    H124098   1.461   4.894   5.093  2.1201 -0.9223 -1.5836
  869TIP3    H224099   1.504   5.017   5.016 -0.4504  2.1002  1.4587
  870TIP3   OH224100   5.826   5.987   1.494 -0.5342 -0.1886  0.7174
  870TIP3    H124101   5.875   5.983   1.577 -0.4325  0.9382  0.7199
  870TIP3    H224102   5.873   6.051   1.441 -2.3273  1.4117  0.9566
  871TIP3   OH224103   5.795   4.495  11.207 -0.1067  0.1200 -0.2206
  871TIP3    H124104   5.818   4.494  11.115 -1.4080 -2.4691 -0.5939
  871TIP3    H224105   5.705   4.528  11.209 -0.0329  0.3115  0.1737
  872TIP3   OH224106   4.363   1.000   5.294  0.0345 -0.2349  0.1574
  872TIP3    H124107   4.425   1.030   5.360  0.6609 -1.4511  0.1528
  872TIP3    H224108   4.383   1.052   5.216  0.0662  0.3969  0.5861
  873TIP3   OH224109   2.331   6.676   2.452 -0.4535 -0.0851  0.0154
  873TIP3    H124110   2.266   6.698   2.385  0.2998  2.4821  0.0161
  873TIP3    H224111   2.303   6.725   2.529  1.0177  0.4514  0.2394
  874TIP3   OH224112   6.573   3.709   4.550  0.1861 -0.6110 -0.3548
  874TIP3    H124113   6.529   3.777   4.499  0.9492  0.7050  0.6677
  874TIP3    H224114   6.503   3.650   4.577 -0.7103  0.5484 -0.0903
  875TIP3   OH224115   5.671   4.807   2.896  0.2105 -0.2175 -0.3671
  875TIP3    H124116   5.650   4.810   2.803  0.3188 -1.7320 -0.4648
  875TIP3    H224117   5.766   4.820   2.900 -0.1945  3.7236 -0.1337
  876TIP3   OH224118   4.387   5.827   6.317  0.5191  0.1602  0.6730
  876TIP3    H124119   4.340   5.777   6.384 -0.3188 -0.4976 -0.3893
  876TIP3    H224120   4.469   5.778   6.304 -0.7684 -1.6562 -1.1608
  877TIP3   OH224121   5.070   1.469   5.898 -0.0713  0.4588 -0.0389
  877TIP3    H124122   5.155   1.430   5.880 -0.2416  0.7325 -1.5710
  877TIP3    H224123   5.063   1.469   5.994  1.6775  0.5247  0.1170
  878TIP3   OH224124   2.794   3.441  11.548 -0.0330 -0.0926 -0.3450
  878TIP3    H124125   2.827   3.405  11.465 -0.8756 -1.4206 -0.1277
  878TIP3    H224126   2.840   3.392  11.615  0.4552  0.8085  0.0066
  879TIP3   OH224127   1.684   6.345  11.075 -0.1287  0.0590 -0.2586
  879TIP3    H124128   1.743   6.332  11.149  0.2215 -0.8792 -0.6776
  879TIP3    H224129   1.647   6.432  11.088  0.0258 -0.0402  0.9356
  880TIP3   OH224130   1.767   5.299  15.958  0.3244 -0.1894  0.3056
  880TIP3    H124131   1.759   5.295  16.053 -0.0838  1.0569  0.3304
  880TIP3    H224132   1.828   5.228  15.937 -1.7303 -2.3718  1.1979
  881TIP3   OH224133   3.386   0.259   2.209  0.0493  0.3347 -0.3527
  881TIP3    H124134   3.449   0.330   2.204  0.1223  0.3280  0.4184
  881TIP3    H224135   3.409   0.201   2.136  0.5153  0.6710 -0.4730
  882TIP3   OH224136   4.239   1.854   3.231  0.5040  0.4348  0.3007
  882TIP3    H124137   4.153   1.872   3.269 -0.1508  2.4790 -1.9039
  882TIP3    H224138   4.296   1.922   3.268  0.4925  0.7894 -0.3253
  883TIP3   OH224139   6.492   0.251   2.491 -0.2766  0.6782 -0.9669
  883TIP3    H124140   6.459   0.322   2.435  1.4652  1.9725 -0.4244
  883TIP3    H224141   6.574   0.284   2.526  0.4295 -1.5077 -0.4128
  884TIP3   OH224142   4.787   3.651   0.739 -0.5645  0.3008 -0.0889
  884TIP3    H124143   4.811   3.601   0.660  0.8782  1.4704 -0.4368
  884TIP3    H224144   4.693   3.666   0.731 -0.8018 -1.2731 -0.5894
  885TIP3   OH224145   5.299   2.129  15.421 -0.3018 -0.2271 -0.9188
  885TIP3    H124146   5.350   2.191  15.473 -1.2203 -0.7110  0.6061
  885TIP3    H224147   5.261   2.183  15.351  1.1431  0.3845 -1.2564
  886TIP3   OH224148   2.935   5.667   0.911 -0.1460 -0.0590 -0.5863
  886TIP3    H124149   2.850   5.680   0.952 -0.4463  2.2145 -1.7378
  886TIP3    H224150   2.923   5.591   0.853  0.2746 -3.2778  3.1677
  887TIP3   OH224151   2.911   6.669   6.104  0.1673 -0.3174  0.8096
  887TIP3    H124152   2.916   6.697   6.195  0.8210 -2.2940  1.4313
  887TIP3    H224153   2.903   6.573   6.109 -0.8089 -0.3953 -1.1881
  888TIP3   OH224154   0.143   3.406   2.873  0.3244 -0.5787 -0.3812
  888TIP3    H124155   0.150   3.465   2.949  0.3726 -0.9153 -0.1225
  888TIP3    H224156   0.054   3.422   2.839  0.1139 -0.8029  0.0584
  889TIP3   OH224157   6.586   1.951  15.877 -0.4475  0.0546 -0.0373
  889TIP3    H124158   6.673   1.975  15.845  0.4920 -2.7569  0.0651
  889TIP3    H224159   6.548   1.900  15.805  0.6183 -4.0746  2.0225
  890TIP3   OH224160   3.882   5.996   3.691  0.7460 -0.2336 -0.6308
  890TIP3    H124161   3.813   6.031   3.747  0.7426 -0.6042 -0.4004
  890TIP3    H224162   3.883   5.903   3.710  0.6820 -0.3767 -1.3268
  891TIP3   OH224163   1.253   1.213   1.322 -0.1362 -0.0119  0.1714
  891TIP3    H124164   1.171   1.185   1.281 -0.2036  0.9226 -0.3618
  891TIP3    H224165   1.242   1.191   1.414 -0.2448 -1.5710 -0.1752
  892TIP3   OH224166   1.872   0.985  16.581  0.3998  0.2647 -0.1390
  892TIP3    H124167   1.819   0.917  16.624  1.6740 -0.9873 -0.4759
  892TIP3    H224168   1.940   0.936  16.534  0.7319  1.7382 -1.2619
  893TIP3   OH224169   6.517   4.339   2.874  0.0055 -0.0951 -0.0269
  893TIP3    H124170   6.494   4.312   2.963 -1.7572 -0.3531 -0.5355
  893TIP3    H224171   6.587   4.279   2.849 -0.2412 -0.7458  0.7883
  894TIP3   OH224172   5.042   4.963  11.985  0.0447  0.3432  0.2947
  894TIP3    H124173   5.128   5.005  11.976 -0.2734  0.5306 -2.6838
  894TIP3    H224174   5.059   4.870  11.969 -0.0969  0.1293  1.3184
  895TIP3   OH224175   1.200   2.955   1.177  0.4436 -0.2017 -0.4772
  895TIP3    H124176   1.225   3.018   1.244 -0.9227 -0.5949  0.4716
  895TIP3    H224177   1.276   2.898   1.167  1.2950  0.9395 -0.5565
  896TIP3   OH224178   6.097   0.232   2.262 -0.0753 -0.0709  0.0569
  896TIP3    H124179   6.103   0.325   2.283 -0.2599  0.1340 -0.7735
  896TIP3    H224180   6.166   0.191   2.314  0.7294  0.6682 -0.3977
  897TIP3   OH224181   0.027   6.224  14.154  0.1121 -0.1364  0.1116
  897TIP3    H124182   0.042   6.291  14.221  0.6065 -0.9616  0.8641
  897TIP3    H224183   0.018   6.272  14.072  0.6156  0.8332  0.6117
  898TIP3   OH224184   1.550   5.980   0.647  0.9669  0.2627 -0.6957
  898TIP3    H124185   1.521   5.894   0.676  2.5087 -0.0057  0.1769
  898TIP3    H224186   1.623   5.961   0.587  1.2315  0.9497 -0.6002
  899TIP3   OH224187   0.964   4.323  16.525  0.0714 -0.4603  0.1498
  899TIP3    H124188   0.984   4.320  16.618  2.0143  1.6022 -0.0998
  899TIP3    H224189   1.045   4.298  16.482 -0.8398 -1.5250 -1.0268
  900TIP3   OH224190   3.785   5.624  15.845 -0.3143  0.4486  0.1036
  900TIP3    H124191   3.806   5.689  15.778 -1.3934  0.1669 -0.5225
  900TIP3    H224192   3.736   5.674  15.911 -2.5377  0.0263 -1.1227
  901TIP3   OH224193   2.576   0.976  12.316  0.1949 -0.3444  0.1811
  901TIP3    H124194   2.595   0.943  12.228 -1.1681  1.7422 -0.9707
  901TIP3    H224195   2.662   0.991  12.355  0.8977  0.7722 -1.6515
  902TIP3   OH224196   4.200   1.506  12.135 -0.0635  0.0574  0.0544
  902TIP3    H124197   4.198   1.462  12.050 -1.0627  0.2078 -0.0103
  902TIP3    H224198   4.110   1.502  12.166  0.3805 -0.4224  1.3403
  903TIP3   OH224199   1.982   4.640   2.076  0.2198 -0.1411 -0.1708
  903TIP3    H124200   2.036   4.645   2.155 -1.5006 -1.5566  1.1919
  903TIP3    H224201   1.957   4.730   2.057  1.3983  0.3088  0.3377
  904TIP3   OH224202   0.790   3.284  15.813 -0.3406 -0.4842 -0.2073
  904TIP3    H124203   0.845   3.363  15.813 -1.7430  0.5342 -0.7018
  904TIP3    H224204   0.846   3.216  15.851  1.2685  0.4807 -0.7437
  905TIP3   OH224205   0.403   1.998   2.090  0.0549  0.5121  0.1028
  905TIP3    H124206   0.380   2.071   2.031 -0.8611  1.2236  1.2854
  905TIP3    H224207   0.443   1.933   2.033 -2.1521  0.5159 -1.6110
  906TIP3   OH224208   0.220   4.895  11.660 -0.2388  0.5143  0.4723
  906TIP3    H124209   0.217   4.816  11.605 -0.4925 -0.5547  1.9796
  906TIP3    H224210   0.144   4.946  11.632 -1.4697 -0.9116  1.1000
  907TIP3   OH224211   1.080   6.823   5.172  0.7691  0.7621  0.0921
  907TIP3    H124212   1.037   6.907   5.192  1.3522  1.1431 -0.2134
  907TIP3    H224213   1.139   6.808   5.246 -0.0733  0.1002  0.6468
  908TIP3   OH224214   4.211   4.352  12.246 -0.1904  0.0868 -0.0628
  908TIP3    H124215   4.206   4.445  12.270  0.5685 -0.2324  1.4723
  908TIP3    H224216   4.216   4.306  12.330 -1.4252 -1.4177 -0.7697
  909TIP3   OH224217   2.505   2.237   5.329  0.7602  0.1701  0.0945
  909TIP3    H124218   2.514   2.184   5.408  1.4750  0.2804  0.0880
  909TIP3    H224219   2.443   2.188   5.275  2.0358 -1.0942 -0.2759
  910TIP3   OH224220   2.313   3.165   5.826 -0.1762  0.4243  0.1883
  910TIP3    H124221   2.231   3.148   5.779 -0.0812  1.4190 -0.3807
  910TIP3    H224222   2.335   3.256   5.803  0.6758  0.4298  0.9590
  911TIP3   OH224223   2.551   1.512   0.924  0.0283  0.2580  0.7670
  911TIP3    H124224   2.500   1.445   0.969  1.3372 -1.9669 -0.8850
  911TIP3    H224225   2.494   1.544   0.854  0.0438 -0.5020  0.4019
  912TIP3   OH224226   1.339   3.236   1.032  0.1559 -0.0819 -0.0070
  912TIP3    H124227   1.342   3.320   0.987  0.7331 -0.9975 -1.8081
  912TIP3    H224228   1.266   3.243   1.094  1.4572  2.4099  1.3976
  913TIP3   OH224229   2.397   6.671   1.018 -0.0970 -0.1373  0.1120
  913TIP3    H124230   2.488   6.648   0.998 -0.2344 -0.4145 -0.1953
  913TIP3    H224231   2.403   6.722   1.099  0.2266 -1.1162  0.7199
  914TIP3   OH224232   5.846   6.079  15.377 -0.3771 -0.2418  0.8692
  914TIP3    H124233   5.762   6.080  15.333  0.1138 -1.4728 -0.1650
  914TIP3    H224234   5.824   6.078  15.470 -1.5083 -0.7361  0.6135
  915TIP3   OH224235   6.090   0.937  15.541 -0.4175  0.3168 -0.5662
  915TIP3    H124236   6.105   1.025  15.507  2.6002  0.8736  1.7855
  915TIP3    H224237   6.024   0.949  15.609 -0.3084  0.6849 -0.5203
  916TIP3   OH224238   0.223   6.531   6.060  0.0913  0.9672  0.3857
  916TIP3    H124239   0.307   6.487   6.073  0.1285  0.8345 -0.2359
  916TIP3    H224240   0.175   6.517   6.141 -0.1589 -0.8240 -0.0203
  917TIP3   OH224241   1.318   0.780   3.587  0.5102  0.0164 -0.2252
  917TIP3    H124242   1.236   0.784   3.635  0.2145 -1.9315 -0.4995
  917TIP3    H224243   1.307   0.842   3.515 -0.5319  0.1180  0.0152
  918TIP3   OH224244   1.725   4.668  10.547 -0.5248  0.4843  0.0740
  918TIP3    H124245   1.756   4.758  10.558  0.4922  0.1518 -0.0315
  918TIP3    H224246   1.748   4.624  10.629 -3.1984  0.8911  1.1687
  919TIP3   OH224247   5.769   3.058   4.239 -0.0934 -0.0382 -0.3974
  919TIP3    H124248   5.863   3.071   4.254 -0.0326  2.0501 -2.0872
  919TIP3    H224249   5.743   2.993   4.304  2.3681 -0.1486  0.5875
  920TIP3   OH224250   5.563   3.492  11.174 -0.3011 -0.1133 -0.1917
  920TIP3    H124251   5.641   3.441  11.195 -0.1717 -0.3934 -1.2906
  920TIP3    H224252   5.514   3.437  11.113 -0.0871  1.1062 -1.5203
  921TIP3   OH224253   1.785   2.029  14.286  0.7144 -0.4010  0.3799
  921TIP3    H124254   1.766   1.999  14.375  1.7671 -1.3381  0.3024
  921TIP3    H224255   1.840   1.960  14.248  0.6176  0.1794 -0.8615
  922TIP3   OH224256   2.953   6.282  14.674 -0.2921 -0.2863 -0.3528
  922TIP3    H124257   2.912   6.355  14.628 -1.3297 -0.2949  0.5070
  922TIP3    H224258   3.011   6.324  14.738  2.5752 -0.2763 -2.7781
  923TIP3   OH224259   0.110   4.214  15.175  0.5768  0.1071  0.1475
  923TIP3    H124260   0.064   4.296  15.189  0.7216  0.8764 -2.9887
  923TIP3    H224261   0.042   4.147  15.173 -0.0731  0.7604 -1.0828
  924TIP3   OH224262   2.780   1.101  11.394  0.5943  0.2648  0.2180
  924TIP3    H124263   2.862   1.070  11.355  0.5233 -1.4753  1.3495
  924TIP3    H224264   2.714   1.085  11.327  1.0838  1.1354 -0.4830
  925TIP3   OH224265   5.469   4.563  14.567  0.4068  0.1279  0.9549
  925TIP3    H124266   5.552   4.608  14.552  0.5732 -0.0059  1.4397
  925TIP3    H224267   5.458   4.565  14.662  0.3830 -0.7741  0.9799
  926TIP3   OH224268   4.242   5.254   3.988  0.2509  0.1880 -0.3228
  926TIP3    H124269   4.209   5.276   3.901  0.5759  0.1182 -0.4656
  926TIP3    H224270   4.167   5.213   4.032  0.5694 -1.4104 -1.1725
  927TIP3   OH224271   2.199   1.044  14.577 -0.5265  0.1386  0.1274
  927TIP3    H124272   2.238   0.958  14.585  0.3761  0.3068 -1.8628
  927TIP3    H224273   2.271   1.105  14.591 -0.8785  0.5415  0.2061
  928TIP3   OH224274   6.751   3.506  11.745  0.0025  0.2843  0.5570
  928TIP3    H124275   6.734   3.509  11.840 -0.8877  0.5913  0.4031
  928TIP3    H224276   6.830   3.557  11.733 -0.1324  0.6282  1.0885
  929TIP3   OH224277   2.098   3.768  15.961  0.0118  0.0949  0.2725
  929TIP3    H124278   2.134   3.844  15.917 -0.2483 -0.3296 -0.7079
  929TIP3    H224279   2.010   3.759  15.925 -0.1388 -0.3816  0.7412
  930TIP3   OH224280   4.049   2.227  14.619  0.0769  0.0960  0.8182
  930TIP3    H124281   4.091   2.179  14.691  1.2829 -0.3940 -0.1706
  930TIP3    H224282   3.959   2.197  14.619  0.4603 -1.0861  1.1376
  931TIP3   OH224283   1.585   2.045  16.346  0.2615  0.1957 -0.1701
  931TIP3    H124284   1.547   2.121  16.302 -0.6300  0.1600  0.5020
  931TIP3    H224285   1.520   1.976  16.334  0.9866 -0.4190 -0.6293
  932TIP3   OH224286   5.860   3.703  11.803 -0.3638 -0.0499 -0.0999
  932TIP3    H124287   5.866   3.777  11.863 -1.3132 -0.9340  1.1275
  932TIP3    H224288   5.786   3.724  11.746  0.7046  0.9137 -1.1929
  933TIP3   OH224289   3.506   6.441   2.105 -0.3361 -0.3332 -0.3801
  933TIP3    H124290   3.479   6.482   2.187 -0.9108  1.7735 -1.5314
  933TIP3    H224291   3.438   6.375   2.088 -1.0446  0.2612  0.0864
  934TIP3   OH224292   5.468   2.619   6.125  0.1279  0.5943  0.6701
  934TIP3    H124293   5.400   2.677   6.090  0.2712  0.5588  0.3320
  934TIP3    H224294   5.421   2.555   6.178 -0.0209  1.0921  1.1420
  935TIP3   OH224295   2.565   5.614   4.700  0.3435  0.5339 -0.2510
  935TIP3    H124296   2.598   5.703   4.715 -1.3151  1.2699 -0.7873
  935TIP3    H224297   2.640   5.567   4.664  1.6763  1.2881  1.3579
  936TIP3   OH224298   5.132   6.567   6.316  0.6815  0.0893 -0.1476
  936TIP3    H124299   5.163   6.642   6.265  1.2104 -0.3278 -0.4493
  936TIP3    H224300   5.054   6.599   6.361 -0.9395 -0.0467 -2.6743
  937TIP3   OH224301   0.699   3.600  15.828  0.5350  0.5787 -0.2277
  937TIP3    H124302   0.763   3.564  15.766  3.0478  1.6185  1.5642
  937TIP3    H224303   0.744   3.596  15.913 -1.9787  1.0549  1.2120
  938TIP3   OH224304   1.463   3.942   3.191  0.2335  0.2506 -0.9317
  938TIP3    H124305   1.494   3.883   3.260 -0.8898 -1.7796 -2.0807
  938TIP3    H224306   1.427   3.884   3.124 -1.9407  2.2919 -1.6677
  939TIP3   OH224307   1.508   0.623   1.514 -0.8737  0.4444 -0.1249
  939TIP3    H124308   1.493   0.670   1.432 -1.9097  0.8226  0.2613
  939TIP3    H224309   1.579   0.563   1.495 -0.5650  1.0951 -1.0726
  940TIP3   OH224310   6.664   6.154   4.296 -0.0625  0.3493 -0.4142
  940TIP3    H124311   6.663   6.219   4.366 -2.1488  1.0692 -1.0142
  940TIP3    H224312   6.603   6.189   4.230 -1.4293 -2.2675 -0.6893
  941TIP3   OH224313   4.760   6.405   3.893 -0.2066  0.2936 -0.3623
  941TIP3    H124314   4.671   6.371   3.888 -0.6278  1.4908 -4.0384
  941TIP3    H224315   4.751   6.500   3.882  1.5293  0.2851 -2.5741
  942TIP3   OH224316   3.327   3.658  11.599  0.1983 -0.4065  0.6265
  942TIP3    H124317   3.376   3.710  11.663 -0.3299 -0.7496  1.3334
  942TIP3    H224318   3.291   3.723  11.538  1.2187 -0.1262  0.3061
  943TIP3   OH224319   5.005   5.428  13.160  0.2692  0.0146  0.2480
  943TIP3    H124320   4.994   5.361  13.228 -0.5050  0.0186  0.1402
  943TIP3    H224321   4.986   5.381  13.079 -1.2605  0.5693  0.2477
  944TIP3   OH224322   4.462   1.405  16.175  0.3255 -0.6562  0.0434
  944TIP3    H124323   4.383   1.356  16.198  1.3197 -1.9558  0.8177
  944TIP3    H224324   4.474   1.388  16.082 -0.3096 -0.4207 -0.0916
  945TIP3   OH224325   6.119   3.912   5.659 -0.1600  0.1414  0.2153
  945TIP3    H124326   6.029   3.888   5.637 -0.4305  1.5236 -0.2864
  945TIP3    H224327   6.110   3.973   5.732  0.5989 -2.3278  2.5356
  946TIP3   OH224328   0.776   2.677  15.148 -0.7000 -0.2926  0.1943
  946TIP3    H124329   0.725   2.620  15.091 -0.7812 -0.7119  0.6826
  946TIP3    H224330   0.794   2.624  15.226 -2.0826  0.8099  1.3359
  947TIP3   OH224331   1.957   6.459   1.984  0.0925  0.3214  0.0247
  947TIP3    H124332   1.939   6.421   2.070  0.8813  2.2109  1.0966
  947TIP3    H224333   1.871   6.469   1.943 -0.4523  0.8105  1.2505
  948TIP3   OH224334   4.217   6.596   5.748  0.7829 -0.4764 -0.0130
  948TIP3    H124335   4.146   6.534   5.768 -0.1505  0.8371  0.8598
  948TIP3    H224336   4.185   6.646   5.672  1.2523 -0.5952 -0.2957
  949TIP3   OH224337   2.978   4.419   3.537  0.1769  0.5847  0.4716
  949TIP3    H124338   2.939   4.458   3.459  1.7363 -2.3479 -2.0061
  949TIP3    H224339   3.070   4.403   3.512 -0.1626 -3.9816  1.2906
  950TIP3   OH224340   0.147   5.093   1.808 -0.6312  0.0064 -0.1404
  950TIP3    H124341   0.110   5.182   1.808  0.9968  0.7524 -1.3434
  950TIP3    H224342   0.182   5.083   1.897  2.7473  2.2920 -0.9936
  951TIP3   OH224343   6.833   2.647  14.106 -0.4594  0.3475  0.0430
  951TIP3    H124344   6.880   2.660  14.188 -0.6787 -0.5463  0.3316
  951TIP3    H224345   6.896   2.667  14.038  0.3171 -0.7379  0.4231
  952TIP3   OH224346   3.402   0.559   3.766 -0.6155 -0.4591 -0.2521
  952TIP3    H124347   3.483   0.513   3.744 -0.3974 -0.1654 -0.0710
  952TIP3    H224348   3.383   0.532   3.856 -0.4494 -0.1460 -0.1212
  953TIP3   OH224349   6.740   5.758   4.887  0.5842  0.1775  0.0348
  953TIP3    H124350   6.662   5.705   4.870  0.7403 -0.0192 -0.0698
  953TIP3    H224351   6.812   5.695   4.890  0.6899  0.3179  0.4970
  954TIP3   OH224352   4.800   3.552  16.181 -0.1077 -0.0699  0.0900
  954TIP3    H124353   4.893   3.561  16.162  0.1737 -1.4770  0.6341
  954TIP3    H224354   4.788   3.595  16.266  0.0409  0.1607 -0.0081
  955TIP3   OH224355   5.087   1.152  10.454  0.2922 -0.2967 -0.1048
  955TIP3    H124356   5.141   1.180  10.380  0.4295  2.0431  0.7856
  955TIP3    H224357   5.003   1.196  10.441  0.1092 -0.3614  0.8125
  956TIP3   OH224358   6.775   4.090   5.619 -0.3651 -0.5148 -0.0088
  956TIP3    H124359   6.706   4.047   5.669 -0.1581 -1.7259 -0.7200
  956TIP3    H224360   6.743   4.179   5.605 -0.9867 -0.5385  1.1562
  957TIP3   OH224361   4.594   2.372  15.391 -0.7245 -0.4423 -0.0838
  957TIP3    H124362   4.515   2.423  15.372 -0.0371  0.3038 -1.0351
  957TIP3    H224363   4.572   2.283  15.364 -0.7248  0.0649 -1.8434
  958TIP3   OH224364   3.428   2.914   1.788  0.4569  0.4641 -0.1796
  958TIP3    H124365   3.516   2.953   1.797 -0.1283  2.1958 -1.4287
  958TIP3    H224366   3.438   2.849   1.719  0.2611  2.4991 -2.2287
  959TIP3   OH224367   0.514   4.574   5.348 -0.6898 -0.1152  0.1420
  959TIP3    H124368   0.456   4.636   5.304 -1.7882 -2.0724 -1.3394
  959TIP3    H224369   0.455   4.515   5.395  0.1390 -1.4020 -0.3711
  960TIP3   OH224370   3.191   0.232   4.802 -0.5243  0.3046  0.2911
  960TIP3    H124371   3.164   0.164   4.864 -4.5969  0.5215 -0.9955
  960TIP3    H224372   3.211   0.184   4.722  0.9313  0.3523  0.5949
  961TIP3   OH224373   0.520   1.647   5.230  0.0748 -0.2524 -0.0743
  961TIP3    H124374   0.436   1.689   5.247  0.4780  0.4562  0.2146
  961TIP3    H224375   0.498   1.562   5.192 -0.8409 -1.2618  2.5322
  962TIP3   OH224376   0.420   6.065   3.137 -1.0588  0.1387  0.3588
  962TIP3    H124377   0.347   6.031   3.086 -0.2765  2.0722 -2.2404
  962TIP3    H224378   0.414   6.160   3.128  1.1060  0.4093  1.0681
  963TIP3   OH224379   5.395   3.721   1.177 -0.0154  0.2001  0.0611
  963TIP3    H124380   5.444   3.802   1.193  0.2723  0.4166 -1.7405
  963TIP3    H224381   5.337   3.741   1.105  1.6792 -1.7666 -2.0189
  964TIP3   OH224382   1.636   3.465  11.440 -0.9112  0.1288  0.1197
  964TIP3    H124383   1.597   3.379  11.456 -0.3017 -0.2068 -0.1814
  964TIP3    H224384   1.561   3.524  11.432 -1.3199 -0.0561  2.0217
  965TIP3   OH224385   2.700   3.694   0.522  0.0890 -0.5097  0.3903
  965TIP3    H124386   2.620   3.652   0.489  0.7856 -1.3362 -0.2977
  965TIP3    H224387   2.707   3.775   0.472 -1.2114  0.4200  1.6507
  966TIP3   OH224388   3.338   2.864   2.438  0.4012 -0.0253  0.1555
  966TIP3    H124389   3.379   2.858   2.525  0.8294  0.1607 -0.0270
  966TIP3    H224390   3.396   2.814   2.381 -0.3962 -0.9642  0.1452
  967TIP3   OH224391   4.209   2.328  17.123  0.2489  0.2003 -0.2333
  967TIP3    H124392   4.228   2.326  17.217 -1.0577  0.0027  0.0463
  967TIP3    H224393   4.272   2.390  17.087  1.6126 -0.6764  0.5664
  968TIP3   OH224394   2.999   2.641  13.215 -0.0205 -0.1682  0.1100
  968TIP3    H124395   2.967   2.697  13.144 -0.1819  1.5430  1.4673
  968TIP3    H224396   2.920   2.603  13.253  0.1293 -2.1480 -1.3606
  969TIP3   OH224397   3.124   2.224   5.068 -0.1695  0.7504  0.4255
  969TIP3    H124398   3.075   2.219   4.986  0.6146  4.9214 -0.5192
  969TIP3    H224399   3.064   2.270   5.128  0.8332  1.7046  0.7280
  970TIP3   OH224400   5.672   0.851   2.428  0.2958 -0.4383 -0.5527
  970TIP3    H124401   5.592   0.813   2.466  0.4735  1.4038  1.9233
  970TIP3    H224402   5.660   0.843   2.334 -1.5745 -2.6486 -0.2240
  971TIP3   OH224403   5.117   0.301   2.329  0.1751  0.2917  0.3980
  971TIP3    H124404   5.150   0.311   2.418 -0.4957  1.4398  0.5458
  971TIP3    H224405   5.138   0.211   2.305  0.4950  0.0117  1.6635
  972TIP3   OH224406   2.454   5.480  10.819 -0.5969  0.1142 -0.3151
  972TIP3    H124407   2.431   5.481  10.726 -0.6890  1.1062 -0.2887
  972TIP3    H224408   2.549   5.468  10.820 -0.3410  1.8394 -0.6120
  973TIP3   OH224409   1.759   5.095   3.782  0.3433 -0.1837 -0.6293
  973TIP3    H124410   1.837   5.119   3.732 -1.1919  3.6822 -1.5423
  973TIP3    H224411   1.778   5.122   3.871 -0.2183  1.6455 -1.0352
  974TIP3   OH224412   3.752   3.546  14.664 -0.4222  0.2948  0.4440
  974TIP3    H124413   3.834   3.596  14.663  0.4049 -0.9641  1.6232
  974TIP3    H224414   3.780   3.455  14.656 -1.7985 -0.1063 -0.0547
  975TIP3   OH224415   0.300   3.720  14.178 -0.0914  0.0484  0.1029
  975TIP3    H124416   0.251   3.716  14.095  1.7952  1.6353 -1.1960
  975TIP3    H224417   0.270   3.800  14.220 -0.8234 -0.5961  0.8277
  976TIP3   OH224418   5.215   1.918   3.404 -0.1971  0.0907 -0.5675
  976TIP3    H124419   5.146   1.977   3.435  0.6721  1.0464 -0.3870
  976TIP3    H224420   5.217   1.930   3.309 -0.3229  0.0154 -0.5795
  977TIP3   OH224421   5.058   2.676  12.032  0.0113 -0.4513 -0.0303
  977TIP3    H124422   5.137   2.685  12.085 -0.5060  2.5553  0.3681
  977TIP3    H224423   5.088   2.631  11.953  1.7235 -0.9203  0.8283
  978TIP3   OH224424   1.190   3.855   0.431 -0.2406 -0.0089  0.7342
  978TIP3    H124425   1.199   3.947   0.455  0.0566  0.5137 -1.1650
  978TIP3    H224426   1.132   3.818   0.498  1.0127  1.1115  2.5179
  979TIP3   OH224427   2.369   2.197  15.904  0.0795 -0.1565  0.5475
  979TIP3    H124428   2.390   2.120  15.851 -1.4038 -0.7750  0.7826
  979TIP3    H224429   2.432   2.264  15.877 -0.5083 -0.4995 -1.9051
  980TIP3   OH224430   5.036   5.701   0.232 -0.2874  0.2978  0.0839
  980TIP3    H124431   5.108   5.715   0.171  0.8397  0.2911  1.3586
  980TIP3    H224432   5.050   5.613   0.266 -0.3677  0.6287  1.0073
  981TIP3   OH224433   4.233   2.433  13.971 -0.1683  0.3714 -0.4727
  981TIP3    H124434   4.246   2.409  13.879 -0.1698  0.2175 -0.4334
  981TIP3    H224435   4.153   2.486  13.971  0.3280  1.1494 -0.6905
  982TIP3   OH224436   5.218   4.011  15.871 -0.4501  0.0696  0.1053
  982TIP3    H124437   5.127   3.991  15.891 -0.2867 -1.0461 -0.1887
  982TIP3    H224438   5.225   4.000  15.776  0.4103 -1.8216  0.3383
  983TIP3   OH224439   2.677   3.218  13.889  0.4357  0.3663  0.0557
  983TIP3    H124440   2.723   3.201  13.971  2.0945 -2.0413 -1.2558
  983TIP3    H224441   2.616   3.145  13.880  0.3535  0.5484 -0.9248
  984TIP3   OH224442   0.465   6.644   4.487 -0.0125  0.3590 -0.0322
  984TIP3    H124443   0.497   6.594   4.562 -1.1873 -0.9327 -0.3397
  984TIP3    H224444   0.531   6.711   4.472  0.6893  0.0712  1.5857
  985TIP3   OH224445   0.876   2.485   1.491  0.1703  0.0878  0.0441
  985TIP3    H124446   0.964   2.479   1.527  0.1437  0.0334  0.1014
  985TIP3    H224447   0.880   2.556   1.427  1.1463 -2.0775 -2.5033
  986TIP3   OH224448   0.800   1.785  11.889  0.7662  0.0614 -0.6465
  986TIP3    H124449   0.737   1.824  11.829  1.0945 -0.6038 -1.4353
  986TIP3    H224450   0.778   1.692  11.889  0.3192  0.1328  0.8176
  987TIP3   OH224451   5.570   6.640  13.401  0.5831  0.4736 -0.5004
  987TIP3    H124452   5.490   6.691  13.390  0.6533  1.1206  1.6018
  987TIP3    H224453   5.639   6.705  13.416  1.4647 -0.0911 -1.8551
  988TIP3   OH224454   4.037   1.878  16.071 -0.5349  0.2499 -1.0620
  988TIP3    H124455   3.989   1.931  16.007  1.3263  2.0919 -1.0701
  988TIP3    H224456   4.118   1.928  16.086 -0.3733 -0.7253  1.8496
  989TIP3   OH224457   1.096   4.020   3.504  0.0063  0.0013 -0.6714
  989TIP3    H124458   1.155   4.078   3.456  0.4260  1.7696  1.7705
  989TIP3    H224459   1.150   3.985   3.575 -1.7135  1.5807  1.5692
  990TIP3   OH224460   5.306   3.431  15.050 -0.1551 -0.1118 -0.5717
  990TIP3    H124461   5.278   3.488  14.978 -0.6157  1.9241  1.1039
  990TIP3    H224462   5.226   3.412  15.098  0.5096  1.3127  1.2208
  991TIP3   OH224463   4.564   3.145   4.222 -0.0190 -0.1012 -0.3485
  991TIP3    H124464   4.568   3.237   4.245  0.2931 -0.5946  1.7844
  991TIP3    H224465   4.626   3.136   4.149  0.6174  1.2121 -0.0059
  992TIP3   OH224466   4.287   6.285  13.373  0.3795 -0.5954 -0.3341
  992TIP3    H124467   4.225   6.356  13.393 -1.8312 -2.8358  1.5044
  992TIP3    H224468   4.317   6.303  13.284 -1.9633  1.3368 -0.8359
  993TIP3   OH224469   1.390   5.458  15.617 -0.0666  0.1096  0.5512
  993TIP3    H124470   1.384   5.545  15.656 -1.7522 -0.5797  1.9584
  993TIP3    H224471   1.426   5.402  15.687 -1.9247 -0.8987  0.7574
  994TIP3   OH224472   6.803   4.505   4.773 -1.0679 -0.3436 -0.8555
  994TIP3    H124473   6.829   4.422   4.733  0.7633  0.4448 -1.3776
  994TIP3    H224474   6.809   4.569   4.702  0.2306  0.7078  0.1537
  995TIP3   OH224475   4.784   1.676   3.832 -0.2723 -0.1914  0.5406
  995TIP3    H124476   4.719   1.606   3.842  0.2517 -1.1157 -1.8782
  995TIP3    H224477   4.860   1.645   3.881 -0.6467 -0.5102  0.9241
  996TIP3   OH224478   2.120   6.805   1.174 -1.0788 -0.5314 -0.0632
  996TIP3    H124479   2.120   6.709   1.173  1.6085 -0.6501  1.2678
  996TIP3    H224480   2.091   6.830   1.086 -1.2144 -2.5714 -0.6492
  997TIP3   OH224481   2.784   3.146  14.398 -0.1999  0.1151  0.6317
  997TIP3    H124482   2.797   3.135  14.493 -0.4501  0.4528  0.7096
  997TIP3    H224483   2.854   3.095  14.358  0.3138  0.5080  1.0158
  998TIP3   OH224484   0.235   6.838   6.190  0.4233 -0.1735  0.0071
  998TIP3    H124485   0.142   6.851   6.170  1.1059  1.5913 -2.3556
  998TIP3    H224486   0.256   6.752   6.153 -0.5839 -1.4635  2.1778
  999TIP3   OH224487   6.191   0.899  13.677  0.5176 -0.3311 -0.6339
  999TIP3    H124488   6.227   0.915  13.590  1.8764 -1.7515 -0.3823
  999TIP3    H224489   6.110   0.851  13.662  0.2144  0.3329 -1.1389
 1000TIP3   OH224490   6.775   3.480  15.098  0.2604 -0.0538  0.2964
 1000TIP3    H124491   6.802   3.536  15.025  0.3128  1.8221  1.6788
 1000TIP3    H224492   6.680   3.490  15.102 -0.2330 -2.7768 -1.4832
 1001TIP3   OH224493   0.084   6.025   0.385 -0.1396  0.3046  0.3123
 1001TIP3    H124494   0.145   6.095   0.363  0.8958 -0.6060  0.1805
 1001TIP3    H224495   0.132   5.969   0.446 -0.5013 -0.9067 -0.4616
 1002TIP3   OH224496   2.920   6.832  15.724 -0.4286 -0.0525 -0.5449
 1002TIP3    H124497   3.005   6.818  15.682 -0.4536 -2.4077  0.0059
 1002TIP3    H224498   2.908   6.927  15.726  0.7222  0.2499 -3.5055
 1003TIP3   OH224499   5.609   1.536  12.943  0.0778  0.3327  0.1298
 1003TIP3    H124500   5.621   1.569  12.854  0.9173 -1.7090 -0.5719
 1003TIP3    H224501   5.676   1.581  12.995  0.1933  0.8482 -0.4568
 1004TIP3   OH224502   6.255   6.014  12.190  0.0206  0.1660  0.6637
 1004TIP3    H124503   6.305   5.990  12.112 -0.4215 -0.1952  0.4857
 1004TIP3    H224504   6.245   6.109  12.185  2.5737  0.5959  1.8280
 1005TIP3   OH224505   6.357   1.541  13.729  0.5338 -0.2473  0.6001
 1005TIP3    H124506   6.423   1.583  13.784  0.3222  2.5896 -1.1098
 1005TIP3    H224507   6.407   1.506  13.655  0.3399  0.0750  0.3156
 1006TIP3   OH224508   5.390   2.308  11.858 -0.1537  0.1195  0.3041
 1006TIP3    H124509   5.386   2.327  11.764  1.0466 -0.6772  0.0688
 1006TIP3    H224510   5.325   2.239  11.871 -1.2381  1.1100  0.3203
 1007TIP3   OH224511   2.853   1.600  13.704  0.5071  0.4246  0.4199
 1007TIP3    H124512   2.826   1.685  13.737  1.3392  0.9789 -0.3020
 1007TIP3    H224513   2.908   1.563  13.772 -0.9450 -0.1487  1.3330
 1008TIP3   OH224514   3.052   6.300   1.460 -0.1631  0.5496  0.0368
 1008TIP3    H124515   3.128   6.341   1.420  0.8090  0.3857  1.6420
 1008TIP3    H224516   3.069   6.206   1.452 -1.7891  0.3643 -2.4998
 1009TIP3   OH224517   4.750   1.148   6.019  0.3615  0.0752  0.2788
 1009TIP3    H124518   4.829   1.197   6.042 -0.5954  1.7032  0.2728
 1009TIP3    H224519   4.679   1.212   6.028 -0.7630 -0.8724 -1.3099
 1010TIP3   OH224520   5.809   6.692  11.829  0.1539 -0.1419 -0.6007
 1010TIP3    H124521   5.822   6.615  11.884  1.1643  0.7849  0.5213
 1010TIP3    H224522   5.829   6.766  11.887 -2.7200  1.1009 -1.0183
 1011TIP3   OH224523   1.346   4.452   0.334  0.4012 -0.4655  0.2091
 1011TIP3    H124524   1.382   4.525   0.384 -1.2054  0.5705 -0.0783
 1011TIP3    H224525   1.408   4.380   0.348  0.1108 -0.1959  3.5551
 1012TIP3   OH224526   1.837   4.568  12.516  0.0610 -0.2828  0.3236
 1012TIP3    H124527   1.828   4.662  12.506 -0.1288 -0.3132  0.1945
 1012TIP3    H224528   1.920   4.547  12.474 -0.2427 -0.2684 -0.2956
 1013TIP3   OH224529   2.555   2.594  13.719  0.3152  0.4458 -0.5578
 1013TIP3    H124530   2.648   2.615  13.710  0.7267 -0.1177  1.6566
 1013TIP3    H224531   2.521   2.661  13.779 -1.5619  2.6174 -3.7578
 1014TIP3   OH224532   0.515   5.381  12.928 -0.1062 -0.0896  0.6408
 1014TIP3    H124533   0.545   5.446  12.864 -0.3633  0.4820  1.0859
 1014TIP3    H224534   0.420   5.378  12.916  0.0645 -1.7291 -0.6088
 1015TIP3   OH224535   5.997   2.889   4.724 -0.1974  0.0044  0.1882
 1015TIP3    H124536   6.043   2.805   4.729  0.2628  0.2485  0.0639
 1015TIP3    H224537   5.931   2.884   4.794 -1.6307 -1.3178 -1.1625
 1016TIP3   OH224538   6.756   4.952  16.273 -0.7113 -0.0056  0.0765
 1016TIP3    H124539   6.728   4.862  16.292 -1.2507  0.5808  2.2396
 1016TIP3    H224540   6.719   4.970  16.186 -2.1589 -1.2404  0.3853
 1017TIP3   OH224541   5.195   5.598  11.362  0.1607  0.3600  0.2509
 1017TIP3    H124542   5.102   5.612  11.381 -0.8340 -1.6509 -2.5422
 1017TIP3    H224543   5.220   5.524  11.418 -0.5174 -0.3916 -0.4153
 1018TIP3   OH224544   3.759   6.812   2.584  0.4615 -0.0464  0.6988
 1018TIP3    H124545   3.782   6.904   2.573  3.7904 -0.6188  1.6774
 1018TIP3    H224546   3.758   6.777   2.495  1.0299  0.5782  0.4359
 1019TIP3   OH224547   3.774   4.426  16.048 -0.4316  0.1150  0.3990
 1019TIP3    H124548   3.699   4.436  15.990 -0.0491 -0.5237 -0.2202
 1019TIP3    H224549   3.742   4.371  16.120 -0.1915 -1.3837 -0.5937
 1020TIP3   OH224550   1.738   0.539  10.620  0.0512 -0.0310  0.2581
 1020TIP3    H124551   1.749   0.492  10.537 -4.0809 -0.8778 -0.0454
 1020TIP3    H224552   1.728   0.630  10.594  0.9626  0.0243  0.0794
 1021TIP3   OH224553   2.791   2.656   2.398 -0.1132 -0.0214  0.2837
 1021TIP3    H124554   2.815   2.727   2.457  0.8839 -0.7707  0.8103
 1021TIP3    H224555   2.819   2.685   2.312  0.6356  0.0873  0.5537
 1022TIP3   OH224556   0.368   1.967   0.959  0.1338  0.5810 -0.3525
 1022TIP3    H124557   0.293   1.983   0.902  0.0382  0.3725 -0.2867
 1022TIP3    H224558   0.340   1.895   1.015  0.8804 -0.4365 -1.2525
 1023TIP3   OH224559   2.640   1.634   0.014  0.4179  0.3755 -0.3807
 1023TIP3    H124560   2.683   1.717   0.035 -1.6002  1.2064  0.7444
 1023TIP3    H224561   2.576   1.621   0.084  1.6187 -2.9134  0.2999
 1024TIP3   OH224562   0.317   2.012  14.305 -0.6066  0.2187  0.7529
 1024TIP3    H124563   0.290   1.943  14.245 -1.9247  1.2541  0.0979
 1024TIP3    H224564   0.324   2.091  14.250 -0.8998  0.9823  1.7777
 1025TIP3   OH224565   1.003   2.824   2.113  0.6522 -0.1826 -0.4767
 1025TIP3    H124566   1.065   2.843   2.043  0.2164 -0.0508 -0.8317
 1025TIP3    H224567   0.990   2.729   2.109  0.1453 -0.0983 -0.9940
 1026TIP3   OH224568   3.997   4.661  14.241  0.2937  0.2981  0.0504
 1026TIP3    H124569   4.065   4.728  14.232  1.0528 -0.3471  0.8655
 1026TIP3    H224570   4.029   4.602  14.308 -0.9886 -0.1484  0.3073
 1027TIP3   OH224571   1.035   3.797   2.050 -0.3199  0.1068  0.3365
 1027TIP3    H124572   0.973   3.849   2.102 -0.1996 -0.9246  1.5484
 1027TIP3    H224573   0.984   3.724   2.016  0.0294 -0.2811  0.6286
 1028TIP3   OH224574   3.186   1.047   1.807  0.0378 -0.2007 -0.2068
 1028TIP3    H124575   3.164   0.998   1.886 -1.8728  0.7480 -0.0881
 1028TIP3    H224576   3.147   0.997   1.735  1.5649 -0.9374 -0.5573
 1029TIP3   OH224577   6.022   4.038   1.110  0.0117  0.1520  0.7477
 1029TIP3    H124578   6.016   3.947   1.138  0.1216  0.6723  2.6362
 1029TIP3    H224579   5.935   4.075   1.128 -0.5343  0.0687 -1.4961
 1030TIP3   OH224580   1.955   6.610  16.829  0.1520 -0.2006 -0.1509
 1030TIP3    H124581   1.920   6.698  16.818 -0.2710 -0.5001 -1.4667
 1030TIP3    H224582   1.972   6.601  16.922 -1.0785  0.7991  0.1919
 1031TIP3   OH224583   2.565   4.016   5.857 -0.0142  0.1903  0.1794
 1031TIP3    H124584   2.531   4.026   5.946 -0.9939 -3.0157  0.2824
 1031TIP3    H224585   2.655   4.047   5.863  0.1453 -0.5173  2.4830
 1032TIP3   OH224586   1.864   5.281  13.560  0.2932 -0.3983 -0.2034
 1032TIP3    H124587   1.888   5.296  13.468  0.4008 -1.0992 -0.2993
 1032TIP3    H224588   1.824   5.194  13.559 -0.0500 -0.2429  0.3538
 1033TIP3   OH224589   6.753   6.545   0.977 -0.0973 -0.4387 -0.1448
 1033TIP3    H124590   6.755   6.562   1.071 -1.4692  1.7196 -0.4349
 1033TIP3    H224591   6.685   6.479   0.966 -0.2476 -0.3728  0.3530
 1034TIP3   OH224592   3.867   6.406  12.948  0.4457  0.0343 -0.8563
 1034TIP3    H124593   3.896   6.364  13.029 -0.1450 -0.7004 -1.0156
 1034TIP3    H224594   3.947   6.416  12.896  0.7749  0.2014 -0.3293
 1035TIP3   OH224595   1.249   2.736   3.350  1.1866  0.0079  0.1941
 1035TIP3    H124596   1.295   2.677   3.290  0.7344 -0.7790  0.6072
 1035TIP3    H224597   1.173   2.686   3.379  1.5530  0.2537  1.6552
 1036TIP3   OH224598   5.207   2.582   6.369 -0.6317 -0.2956 -0.6595
 1036TIP3    H124599   5.283   2.571   6.425 -1.0376  1.1181  0.2136
 1036TIP3    H224600   5.182   2.492   6.344  1.0027 -0.8006 -0.5727
 1037TIP3   OH224601   2.993   3.629   4.006 -0.1753 -0.2870 -0.2728
 1037TIP3    H124602   2.996   3.723   3.993  1.9314 -0.2592  0.1182
 1037TIP3    H224603   2.906   3.613   4.043 -0.4792  1.5081 -0.1145
 1038TIP3   OH224604   4.774   2.532  16.581  0.4110  0.4624 -0.4438
 1038TIP3    H124605   4.860   2.560  16.611 -0.2415  0.9408  1.0765
 1038TIP3    H224606   4.755   2.453  16.631 -0.6081  1.1407  0.2726
 1039TIP3   OH224607   0.799   4.331  16.776  0.6074 -0.2543 -0.4599
 1039TIP3    H124608   0.726   4.391  16.787  2.0327  2.0204 -2.5661
 1039TIP3    H224609   0.767   4.264  16.715  0.3524  0.9130 -1.6360
 1040TIP3   OH224610   0.244   3.647  14.579  0.1803 -0.1318 -0.0562
 1040TIP3    H124611   0.236   3.572  14.520 -1.1032 -0.4672  0.5018
 1040TIP3    H224612   0.226   3.612  14.666  1.2659  0.5086  0.4443
 1041TIP3   OH224613   0.843   5.560  12.329  0.6807 -0.4847 -0.6302
 1041TIP3    H124614   0.759   5.538  12.289 -0.2124 -1.2397  1.5308
 1041TIP3    H224615   0.890   5.476  12.332  0.9273 -0.3433 -0.5360
 1042TIP3   OH224616   1.619   2.827   0.132  0.1505 -0.1069 -0.5233
 1042TIP3    H124617   1.687   2.821   0.200 -0.1651 -1.4934 -0.2984
 1042TIP3    H224618   1.546   2.871   0.176  0.8140  1.1984 -0.7030
 1043TIP3   OH224619   3.729   3.229  10.922  0.1732 -0.0880  0.3746
 1043TIP3    H124620   3.745   3.197  10.833  0.6162  1.6754 -0.2129
 1043TIP3    H224621   3.812   3.216  10.968  0.8388  1.4929 -0.2971
 1044TIP3   OH224622   1.728   0.599   3.299  0.3119 -0.2302 -0.1295
 1044TIP3    H124623   1.818   0.630   3.312 -0.0036  0.1987  1.1634
 1044TIP3    H224624   1.679   0.635   3.373 -1.4071  1.3215 -1.9131
 1045TIP3   OH224625   3.110   2.764   0.730  0.0517 -0.5986 -0.1798
 1045TIP3    H124626   3.131   2.751   0.637  2.2759 -0.7504  0.3047
 1045TIP3    H224627   3.158   2.842   0.755 -0.1896 -0.7993  0.9479
 1046TIP3   OH224628   4.921   0.979   0.885 -0.1249 -0.4245  0.0934
 1046TIP3    H124629   4.842   0.944   0.843 -1.1812  1.0787  0.7147
 1046TIP3    H224630   4.989   0.970   0.819 -0.9575 -1.1831 -0.6939
 1047TIP3   OH224631   3.882   3.212   0.012  0.5321  0.3948 -0.1556
 1047TIP3    H124632   3.819   3.140   0.011 -0.1591  0.9826 -0.1544
 1047TIP3    H224633   3.925   3.205   0.097  0.8269 -0.3176 -0.3628
 1048TIP3   OH224634   5.595   0.798  12.841  1.3612  0.3856 -0.0840
 1048TIP3    H124635   5.645   0.835  12.768  1.2907 -0.2272 -0.4536
 1048TIP3    H224636   5.608   0.859  12.913  2.5696  0.2894 -0.2007
 1049TIP3   OH224637   0.391   3.561  13.577  0.4852 -0.1661 -0.7461
 1049TIP3    H124638   0.411   3.635  13.520 -1.7373 -0.1834 -1.6465
 1049TIP3    H224639   0.472   3.510  13.580  2.0631  2.2113 -0.1522
 1050TIP3   OH224640   2.822   0.395   4.156  0.1298  0.5651  0.0581
 1050TIP3    H124641   2.917   0.395   4.147  0.0718  0.6155 -0.6204
 1050TIP3    H224642   2.798   0.302   4.154  0.1310  0.5688 -0.2228
 1051TIP3   OH224643   4.191   3.113   2.019  0.0537  0.5559 -0.0661
 1051TIP3    H124644   4.273   3.129   1.973  0.7819  0.3705  1.1352
 1051TIP3    H224645   4.206   3.033   2.070 -1.1174  0.1074 -0.3879
 1052TIP3   OH224646   2.297   0.444  12.143  0.4211 -0.2323  0.3455
 1052TIP3    H124647   2.271   0.473  12.231  1.4407 -3.2260  1.7957
 1052TIP3    H224648   2.392   0.455  12.142  0.3950 -0.0448 -0.4796
 1053TIP3   OH224649   5.485   1.277   2.294 -0.3943 -0.4377 -0.3671
 1053TIP3    H124650   5.480   1.242   2.205  2.0679  0.3168 -0.8757
 1053TIP3    H224651   5.569   1.324   2.297 -1.0225  0.6961  1.9555
 1054TIP3   OH224652   4.901   3.147  13.080  0.0424  0.2577 -0.4775
 1054TIP3    H124653   4.818   3.111  13.049  0.6527 -2.4352  0.7959
 1054TIP3    H224654   4.910   3.115  13.169  2.8559 -0.2956 -0.8700
 1055TIP3   OH224655   1.377   1.895  12.837 -0.3885  0.3563  0.0194
 1055TIP3    H124656   1.349   1.936  12.920 -1.5902  0.5989 -0.4921
 1055TIP3    H224657   1.296   1.864  12.797  0.3805 -1.4507 -0.1995
 1056TIP3   OH224658   0.852   1.633   0.956 -0.0555  0.3946  0.4171
 1056TIP3    H124659   0.874   1.589   1.039 -0.2951 -0.1562  0.1942
 1056TIP3    H224660   0.826   1.722   0.982  4.4964  1.9284  0.5685
 1057TIP3   OH224661   5.838   0.083  12.438  0.0473  0.1024  0.3050
 1057TIP3    H124662   5.764   0.108  12.493 -0.2548 -0.3986  0.1345
 1057TIP3    H224663   5.800   0.022  12.374  0.5888 -0.0882  0.1634
 1058TIP3   OH224664   1.357   5.677  14.762  0.2794  0.1214 -0.3608
 1058TIP3    H124665   1.427   5.611  14.761  1.9741  1.7931  0.7368
 1058TIP3    H224666   1.299   5.649  14.832  1.1844 -0.0583  0.3441
 1059TIP3   OH224667   2.764   3.129  15.598  0.1477  0.0931 -0.5605
 1059TIP3    H124668   2.804   3.216  15.590 -0.2202  0.0756 -4.4233
 1059TIP3    H224669   2.724   3.113  15.513 -1.5561 -3.0881  0.6636
 1060TIP3   OH224670   6.663   4.201   4.748 -0.2796  0.0459 -0.0676
 1060TIP3    H124671   6.741   4.214   4.694  0.2830  1.0097  0.9465
 1060TIP3    H224672   6.682   4.123   4.800  0.1746  0.4768  0.4272
 1061TIP3   OH224673   3.325   0.553  11.170  0.0794 -0.2609 -0.4617
 1061TIP3    H124674   3.314   0.458  11.168 -0.8846 -0.1537 -1.7351
 1061TIP3    H224675   3.391   0.568  11.238 -2.0255 -1.5801  2.0591
 1062TIP3   OH224676   2.384   3.331  12.703  0.3793 -0.5498 -0.0546
 1062TIP3    H124677   2.343   3.417  12.708 -0.3454 -0.8456 -0.5940
 1062TIP3    H224678   2.313   3.270  12.727  1.5736 -0.8751  3.0744
 1063TIP3   OH224679   2.776   4.869  14.059 -0.2614 -0.0276  0.4437
 1063TIP3    H124680   2.725   4.946  14.035  0.8053  0.5536 -0.0212
 1063TIP3    H224681   2.859   4.904  14.090  1.0879 -1.0359 -1.8035
 1064TIP3   OH224682   4.281   3.102  11.370 -0.4570  0.1872 -0.4572
 1064TIP3    H124683   4.267   3.197  11.363 -2.8478 -0.1051 -0.5615
 1064TIP3    H224684   4.257   3.081  11.461 -1.3821 -0.5000 -0.8454
 1065TIP3   OH224685   5.190   0.137   0.713  0.1037 -0.1239  0.0727
 1065TIP3    H124686   5.158   0.048   0.723 -0.4362  0.2142  1.5758
 1065TIP3    H224687   5.285   0.129   0.723  0.1610 -0.6424 -0.7763
 1066TIP3   OH224688   2.555   5.454   0.590 -0.4807 -0.6742 -0.4093
 1066TIP3    H124689   2.512   5.505   0.658  0.5425 -0.3134 -0.0120
 1066TIP3    H224690   2.547   5.363   0.619 -0.4891 -0.5640 -0.0673
 1067TIP3   OH224691   4.291   4.315   6.089  0.4751  0.3114  0.0081
 1067TIP3    H124692   4.251   4.289   6.006  0.4035 -1.7523  0.6305
 1067TIP3    H224693   4.320   4.232   6.128  2.1803  1.4083  1.1928
 1068TIP3   OH224694   5.740   4.695  16.919  0.2689 -0.8698 -0.1407
 1068TIP3    H124695   5.820   4.661  16.878  1.0011  0.0387  0.4636
 1068TIP3    H224696   5.758   4.689  17.013 -0.4857 -0.8844  0.0043
 1069TIP3   OH224697   1.902   4.697   2.842 -0.4568  0.0884  0.3520
 1069TIP3    H124698   1.875   4.776   2.794 -0.2445  0.1631  0.3544
 1069TIP3    H224699   1.996   4.708   2.855 -0.9861  1.6620  3.6929
 1070TIP3   OH224700   4.706   1.013   2.628 -0.0064 -0.2122  0.2630
 1070TIP3    H124701   4.735   1.065   2.553 -0.9576  3.5023  2.1741
 1070TIP3    H224702   4.613   1.034   2.637  0.0487 -0.5942  2.3343
 1071TIP3   OH224703   4.651   2.690  16.975  0.3979 -0.3450  0.2720
 1071TIP3    H124704   4.626   2.729  16.891  1.2550  0.3178  0.3059
 1071TIP3    H224705   4.673   2.600  16.955  0.5664 -0.1982 -0.2165
 1072TIP3   OH224706   4.541   1.103   0.740  0.4086 -0.5282  0.6087
 1072TIP3    H124707   4.600   1.027   0.745 -0.5277 -1.2084  2.1579
 1072TIP3    H224708   4.477   1.087   0.809 -1.2557  0.4724 -0.6421
 1073TIP3   OH224709   5.536   5.694   4.066  1.0087 -0.2782 -0.0672
 1073TIP3    H124710   5.593   5.670   4.139  0.4890 -1.3765 -0.0141
 1073TIP3    H224711   5.597   5.713   3.994  1.6312  2.6828  1.1074
 1074TIP3   OH224712   1.434   5.590  17.046  0.1732  0.6880 -0.0971
 1074TIP3    H124713   1.503   5.652  17.021 -0.2051  1.6510  1.1279
 1074TIP3    H224714   1.404   5.552  16.964  0.6195  1.9238 -0.8462
 1075TIP3   OH224715   2.507   0.590  15.735 -0.0520  0.2897 -0.6683
 1075TIP3    H124716   2.582   0.644  15.710 -1.1572  1.6354 -1.2057
 1075TIP3    H224717   2.511   0.514  15.677 -0.3460  1.4477 -2.2648
 1076TIP3   OH224718   5.043   5.845   1.881 -0.3022  0.1540 -0.1042
 1076TIP3    H124719   5.087   5.905   1.940 -0.3213  0.4505 -0.3900
 1076TIP3    H224720   5.073   5.871   1.794 -0.8129  0.1692 -0.2771
 1077TIP3   OH224721   5.657   0.342   0.758  0.1872 -0.2030 -0.6123
 1077TIP3    H124722   5.723   0.329   0.827 -0.6359 -1.1670  0.0055
 1077TIP3    H224723   5.637   0.436   0.763 -0.9452 -0.4962  1.4998
 1078TIP3   OH224724   5.494   2.314   3.109  0.0065  0.0176 -0.4674
 1078TIP3    H124725   5.413   2.321   3.060  0.0746  2.3557 -0.3996
 1078TIP3    H224726   5.500   2.398   3.156  1.5085 -0.8648  1.0244
 1079TIP3   OH224727   3.988   5.506  15.451 -0.0744 -0.1350  0.2575
 1079TIP3    H124728   3.950   5.467  15.372  1.1049  0.8982 -0.8703
 1079TIP3    H224729   4.017   5.431  15.503 -3.0950 -0.9661  0.9598
 1080TIP3   OH224730   2.016   5.910   5.850  0.6428 -0.1050  0.0889
 1080TIP3    H124731   2.022   5.817   5.872  0.4047  0.2809  1.8950
 1080TIP3    H224732   1.925   5.921   5.823  0.8180 -0.4861 -0.7154
 1081TIP3   OH224733   0.970   3.734  15.223  0.1066 -0.0166  0.0079
 1081TIP3    H124734   0.961   3.821  15.263  0.1338  0.4179 -0.9172
 1081TIP3    H224735   0.986   3.751  15.131  2.3340 -0.9262  0.1599
 1082TIP3   OH224736   4.682   2.864  12.584 -0.2750 -0.0123  0.4655
 1082TIP3    H124737   4.685   2.957  12.604  0.7268  0.1514 -0.3491
 1082TIP3    H224738   4.679   2.861  12.488 -2.0120 -0.7938  0.5161
 1083TIP3   OH224739   4.074   0.090  12.144 -0.1392 -0.0844 -0.8971
 1083TIP3    H124740   4.033   0.004  12.154 -0.3934  0.1249 -0.0283
 1083TIP3    H224741   4.010   0.143  12.096 -0.7421  0.1249  0.1070
 1084TIP3   OH224742   6.182   3.579  14.543  0.4085 -0.1814 -0.7244
 1084TIP3    H124743   6.198   3.538  14.627  0.5103 -1.7172 -1.4544
 1084TIP3    H224744   6.086   3.584  14.536  0.3971 -0.2556 -0.6163
 1085TIP3   OH224745   3.656   6.082   3.845 -0.2215  0.7000  0.9303
 1085TIP3    H124746   3.597   6.064   3.772 -0.4603 -2.0019  1.6719
 1085TIP3    H224747   3.598   6.105   3.918 -0.0327  2.4865  0.5661
 1086TIP3   OH224748   6.080   5.358   5.033  0.7292  0.0640 -0.2969
 1086TIP3    H124749   6.006   5.304   5.006  0.7432  0.5951 -1.4378
 1086TIP3    H224750   6.048   5.406   5.110 -0.0332  0.1335 -0.6527
 1087TIP3   OH224751   3.233   5.013   3.237  0.2962 -0.0518 -0.6020
 1087TIP3    H124752   3.318   4.977   3.210  0.1199  0.2010 -1.5385
 1087TIP3    H224753   3.169   4.948   3.207  0.1212  0.0012 -0.3460
 1088TIP3   OH224754   3.658   4.787   0.517 -0.1149 -0.2979 -0.2688
 1088TIP3    H124755   3.680   4.869   0.562 -2.1315 -0.6259  1.4610
 1088TIP3    H224756   3.735   4.769   0.463  0.9402  2.0275  0.2924
 1089TIP3   OH224757   6.551   2.682  13.038 -0.2695  0.4124  0.1079
 1089TIP3    H124758   6.472   2.668  13.089 -0.7245 -1.8906 -1.1468
 1089TIP3    H224759   6.622   2.653  13.095 -0.8224 -2.7376 -0.6254
 1090TIP3   OH224760   2.339   4.573   0.514 -0.2321  0.1160 -0.0606
 1090TIP3    H124761   2.410   4.511   0.498 -0.5433 -0.9155  2.1516
 1090TIP3    H224762   2.383   4.652   0.546 -0.0139 -1.1104  3.0580
 1091TIP3   OH224763   4.067   4.169   0.532  0.7056  0.3801 -0.0087
 1091TIP3    H124764   4.085   4.086   0.490 -0.0283 -0.2660  0.9126
 1091TIP3    H224765   3.973   4.181   0.524  0.4856  0.0760  1.6668
 1092TIP3   OH224766   3.194   6.184   0.378 -0.7372  0.3011 -0.1619
 1092TIP3    H124767   3.231   6.211   0.462 -0.0229  0.2276 -0.4482
 1092TIP3    H224768   3.217   6.254   0.318  1.0237 -0.8318 -0.8793
 1093TIP3   OH224769   2.602   1.719   4.204 -0.1440  0.2251  0.4611
 1093TIP3    H124770   2.555   1.658   4.148 -0.5469 -2.0161  3.0632
 1093TIP3    H224771   2.682   1.672   4.229  0.7566  1.7623  0.5982
 1094TIP3   OH224772   6.028   1.004  14.325 -0.6601  0.4535  0.5432
 1094TIP3    H124773   5.934   0.988  14.317 -0.6961  0.7938  0.2703
 1094TIP3    H224774   6.059   0.934  14.382 -1.3209  1.2054  1.8691
 1095TIP3   OH224775   1.058   6.414  12.296  0.0930 -0.1648  0.2244
 1095TIP3    H124776   1.077   6.322  12.280  1.3473  0.1735 -0.4148
 1095TIP3    H224777   1.078   6.427  12.388  4.2742  0.3535 -0.5412
 1096TIP3   OH224778   5.955   2.933   6.045  0.2670 -0.0281 -0.5985
 1096TIP3    H124779   5.890   2.972   6.103 -0.4708 -0.3652 -1.1751
 1096TIP3    H224780   6.039   2.964   6.078 -0.1500 -0.0251  0.4952
 1097TIP3   OH224781   4.621   6.063  14.085 -0.2806 -0.2735 -0.2490
 1097TIP3    H124782   4.716   6.063  14.075 -0.3046  0.7881 -0.6336
 1097TIP3    H224783   4.598   6.156  14.096 -1.2969 -0.4923 -0.3993
 1098TIP3   OH224784   4.316   3.463   6.576 -0.3587  0.2366  0.1730
 1098TIP3    H124785   4.389   3.459   6.514 -0.6091  1.6192 -0.2459
 1098TIP3    H224786   4.341   3.403   6.646 -0.2261 -1.6750 -1.4012
 1099TIP3   OH224787   3.074   2.776  13.508 -0.2933  0.7265 -0.6483
 1099TIP3    H124788   3.159   2.769  13.465  0.0124  0.3828 -0.0045
 1099TIP3    H224789   3.094   2.773  13.601 -1.1058 -0.6649 -0.4827
 1100TIP3   OH224790   5.413   4.106  14.180  0.4275 -0.3193 -0.1377
 1100TIP3    H124791   5.412   4.192  14.222  2.9469 -0.5685  0.5904
 1100TIP3    H224792   5.399   4.125  14.087 -3.2127  0.4177  0.4390
 1101TIP3   OH224793   5.819   3.334   6.448  0.3090 -0.1682  0.2791
 1101TIP3    H124794   5.773   3.417   6.459 -0.1793 -0.1943 -1.2647
 1101TIP3    H224795   5.749   3.268   6.451  0.6782 -0.5305  1.3854
 1102TIP3   OH224796   0.154   4.044  11.795 -0.1501 -0.3786 -0.1823
 1102TIP3    H124797   0.177   3.957  11.827 -0.8496  0.1290  1.7949
 1102TIP3    H224798   0.151   4.034  11.700  2.1140 -1.9296 -0.1825
 1103TIP3   OH224799   4.197   5.300  12.406  0.3272  0.2415 -0.1618
 1103TIP3    H124800   4.241   5.384  12.395  0.4521  0.7865  3.2407
 1103TIP3    H224801   4.109   5.313  12.370  0.6334  1.5267 -0.4910
 1104TIP3   OH224802   6.236   2.720   5.476  0.6542  0.9075 -0.3323
 1104TIP3    H124803   6.275   2.808   5.483 -0.0076  1.1113  1.7297
 1104TIP3    H224804   6.143   2.735   5.494  0.1946 -0.0158 -1.7814
 1105TIP3   OH224805   6.744   5.546   2.294  0.3408  0.4188  0.0055
 1105TIP3    H124806   6.839   5.558   2.303  0.3332  0.5550 -0.1025
 1105TIP3    H224807   6.734   5.480   2.226  0.4233 -1.0761  1.3654
 1106TIP3   OH224808   1.635   6.659   0.475 -0.4450 -0.1421 -0.3420
 1106TIP3    H124809   1.557   6.713   0.469 -1.8476 -2.1727 -2.1477
 1106TIP3    H224810   1.608   6.581   0.523  1.5051  0.5889  2.1703
 1107TIP3   OH224811   2.731   3.730   6.138  0.1658  0.3110 -0.1414
 1107TIP3    H124812   2.751   3.638   6.125  2.1280  0.6080  0.3576
 1107TIP3    H224813   2.731   3.742   6.233  1.2209  1.0336 -0.2063
 1108TIP3   OH224814   5.198   6.224   0.247  0.4114 -0.2666 -0.5278
 1108TIP3    H124815   5.291   6.240   0.228  0.3843  1.5622  0.6294
 1108TIP3    H224816   5.197   6.137   0.287  2.0264  0.6584  1.7393
 1109TIP3   OH224817   4.299   1.931  15.078 -0.0335 -0.0251 -0.0296
 1109TIP3    H124818   4.275   1.901  14.991 -1.9942  1.0465  0.0911
 1109TIP3    H224819   4.388   1.965  15.068  0.8992 -2.5252 -0.9246
 1110TIP3   OH224820   1.474   6.377  13.172 -0.4011  0.7551 -0.1351
 1110TIP3    H124821   1.381   6.367  13.192 -0.0237  0.0313  1.4401
 1110TIP3    H224822   1.511   6.290  13.190  0.8057  1.4180  0.6847
 1111TIP3   OH224823   0.260   3.392   5.870  0.6680  0.0909  0.1432
 1111TIP3    H124824   0.166   3.406   5.875  0.5510 -0.4728 -0.3957
 1111TIP3    H224825   0.298   3.462   5.923 -0.0547  0.2782  0.4154
 1112TIP3   OH224826   0.695   1.840  12.611  0.3762 -0.2056  0.1380
 1112TIP3    H124827   0.654   1.925  12.624  1.6293  0.4412 -0.0080
 1112TIP3    H224828   0.640   1.779  12.661 -1.8816  0.2618 -1.5548
 1113TIP3   OH224829   0.662   0.526  14.568 -0.7519 -0.1170 -0.1227
 1113TIP3    H124830   0.595   0.513  14.635  0.2218 -0.1272  0.8853
 1113TIP3    H224831   0.745   0.521  14.616 -0.0584  0.9405 -1.1589
 1114TIP3   OH224832   5.738   6.772  12.237  0.0515 -0.2136 -0.2338
 1114TIP3    H124833   5.827   6.737  12.223 -0.7689 -2.9373  0.6382
 1114TIP3    H224834   5.694   6.703  12.287 -1.8235  2.1691  1.5951
 1115TIP3   OH224835   2.718   2.094  13.286 -0.4146 -0.0678  0.6469
 1115TIP3    H124836   2.749   2.037  13.216  0.6218  2.2183 -0.8174
 1115TIP3    H224837   2.646   2.143  13.247 -0.5159  0.4932  1.5177
 1116TIP3   OH224838   5.931   3.328   2.571 -0.4148  0.1960 -0.0709
 1116TIP3    H124839   5.975   3.399   2.616  0.5067 -1.1149  1.1877
 1116TIP3    H224840   5.973   3.249   2.604  0.1926 -0.8819 -3.1424
 1117TIP3   OH224841   5.729   6.214   0.355 -0.1785 -0.3231 -0.2161
 1117TIP3    H124842   5.818   6.240   0.329  0.0388 -1.0459 -0.2140
 1117TIP3    H224843   5.732   6.119   0.358 -0.9878 -0.3586 -0.3210
 1118TIP3   OH224844   5.492   3.848  15.067 -0.3664 -0.6931 -0.2795
 1118TIP3    H124845   5.436   3.787  15.019 -0.1246  0.1663 -1.7086
 1118TIP3    H224846   5.536   3.899  14.999  4.4317 -3.1904  0.5674
 1119TIP3   OH224847   1.642   6.538  13.526  0.4960 -0.7689 -0.1583
 1119TIP3    H124848   1.567   6.507  13.475  1.2635 -1.6641 -0.7865
 1119TIP3    H224849   1.662   6.624  13.489  2.0325 -2.0406 -2.5714
 1120TIP3   OH224850   5.925   2.478  12.982 -0.1769 -0.0567 -0.7401
 1120TIP3    H124851   6.015   2.483  13.013 -0.4614  0.1277  0.0809
 1120TIP3    H224852   5.928   2.516  12.894  0.3864  0.7947 -0.3700
 1121TIP3   OH224853   4.689   1.846  12.193 -0.1304 -0.2798  0.1349
 1121TIP3    H124854   4.641   1.918  12.151 -0.7406 -0.7301  0.0472
 1121TIP3    H224855   4.665   1.769  12.142 -2.2044 -1.1461  2.2295
 1122TIP3   OH224856   5.337   5.661  14.514  0.6257 -0.0736  0.2709
 1122TIP3    H124857   5.300   5.592  14.568  0.9006 -1.2341 -0.9644
 1122TIP3    H224858   5.411   5.619  14.470  1.0863  1.1465 -0.1530
 1123TIP3   OH224859   2.884   1.304  16.904 -0.3857  0.5979  0.2327
 1123TIP3    H124860   2.854   1.347  16.985  0.8798  1.2846  0.3506
 1123TIP3    H224861   2.862   1.367  16.835  0.9154  1.2036  0.3422
 1124TIP3   OH224862   1.050   2.361   3.591 -1.0562  0.5690 -0.2807
 1124TIP3    H124863   1.015   2.449   3.581 -0.8685  0.9475  1.8863
 1124TIP3    H224864   0.977   2.309   3.623 -0.4395  0.6970  1.4499
 1125TIP3   OH224865   1.789   5.513  16.698  0.1127 -0.0595 -0.7510
 1125TIP3    H124866   1.868   5.495  16.647  0.0428 -2.2942 -0.1486
 1125TIP3    H224867   1.727   5.445  16.672 -0.4573 -0.3279  1.1519
 1126TIP3   OH224868   0.724   4.632  16.013  0.5691  1.1255  0.2694
 1126TIP3    H124869   0.656   4.568  15.992  1.2734  0.6758 -0.7428
 1126TIP3    H224870   0.678   4.715  16.018 -0.5142  0.4667  2.5063
 1127TIP3   OH224871   2.669   5.438  15.513 -0.4330 -0.1015 -0.1085
 1127TIP3    H124872   2.692   5.353  15.475 -2.8893 -1.9794  2.2052
 1127TIP3    H224873   2.737   5.454  15.578  0.2081 -0.1505 -0.7614
 1128TIP3   OH224874   5.629   4.398   2.867 -0.1285 -0.1814 -0.5974
 1128TIP3    H124875   5.642   4.314   2.912  0.7898  0.0872 -0.3253
 1128TIP3    H224876   5.585   4.375   2.785 -0.9606 -0.7848  0.0154
 1129TIP3   OH224877   4.615   2.966  13.123 -0.2078  0.4910 -0.2558
 1129TIP3    H124878   4.600   3.006  13.209 -4.4272 -0.4020 -0.3783
 1129TIP3    H224879   4.654   2.881  13.143 -1.8356 -0.0319  0.9282
 1130TIP3   OH224880   6.407   3.791   1.451 -0.5957 -0.4629  0.1051
 1130TIP3    H124881   6.412   3.724   1.519  0.6383 -1.1572 -0.6473
 1130TIP3    H224882   6.413   3.743   1.369 -1.9804  0.3780 -0.5341
 1131TIP3   OH224883   5.668   6.546   4.624  0.0554  0.1262  0.0054
 1131TIP3    H124884   5.669   6.619   4.562  0.2912  0.3027  0.2165
 1131TIP3    H224885   5.589   6.560   4.677  1.1750  1.4111  1.4400
 1132TIP3   OH224886   0.640   0.539  13.283  0.1665  0.3706  0.7620
 1132TIP3    H124887   0.665   0.459  13.329 -0.8542 -0.6551 -0.4004
 1132TIP3    H224888   0.686   0.534  13.200  0.7180  1.4051  0.9897
 1133TIP3   OH224889   1.559   5.347   3.573 -0.1636 -0.7924 -0.2957
 1133TIP3    H124890   1.651   5.368   3.587 -0.5324  0.0283  1.0342
 1133TIP3    H224891   1.554   5.321   3.481  1.2010  0.1588 -0.6578
 1134TIP3   OH224892   6.742   6.291   2.792  0.0593  0.6795  0.3329
 1134TIP3    H124893   6.759   6.257   2.704 -2.3923  2.1544 -0.8252
 1134TIP3    H224894   6.764   6.384   2.786 -1.0115  0.9985  0.9503
 1135TIP3   OH224895   5.087   0.924  17.012  0.2996  0.3096 -0.2548
 1135TIP3    H124896   5.166   0.906  17.062  1.0225 -0.6281 -1.6790
 1135TIP3    H224897   5.118   0.960  16.929 -0.8611  1.5853 -0.1794
 1136TIP3   OH224898   2.113   4.761   0.327 -0.0811  0.0374 -0.3805
 1136TIP3    H124899   2.132   4.723   0.241 -1.1962 -0.4068 -0.4520
 1136TIP3    H224900   2.100   4.686   0.384 -0.5880  0.3150 -0.1216
 1137TIP3   OH224901   3.619   3.942   4.818  0.3291 -0.2409 -0.0280
 1137TIP3    H124902   3.679   3.871   4.839  0.3755  0.6081  3.0825
 1137TIP3    H224903   3.572   3.910   4.740  0.6882 -3.4442  0.9031
 1138TIP3   OH224904   0.687   4.783   5.805 -0.2787 -0.4397 -0.2586
 1138TIP3    H124905   0.614   4.741   5.850  0.8743 -0.1089  2.0962
 1138TIP3    H224906   0.764   4.734   5.835  0.5091 -0.6737 -2.5380
 1139TIP3   OH224907   3.499   0.365   5.673 -0.7229 -0.5945 -0.4735
 1139TIP3    H124908   3.584   0.408   5.682 -1.0106  0.0225 -0.6782
 1139TIP3    H224909   3.517   0.290   5.615 -0.5071  0.1092 -1.3421
 1140TIP3   OH224910   0.043   5.433   0.184  0.4108 -0.0925  0.3661
 1140TIP3    H124911   0.076   5.498   0.247 -0.7337 -0.2378  1.1473
 1140TIP3    H224912  -0.021   5.382   0.234  1.4231 -1.9732 -0.1802
 1141TIP3   OH224913   6.594   0.134  10.904  0.3913 -0.3517  0.3008
 1141TIP3    H124914   6.611   0.181  10.986  2.3808  0.6794 -0.6440
 1141TIP3    H224915   6.547   0.055  10.932 -1.3713  1.2195  2.1324
 1142TIP3   OH224916   5.811   2.058  16.225 -0.0975  0.0358  0.0407
 1142TIP3    H124917   5.896   2.078  16.187 -0.6896 -0.3979 -1.5997
 1142TIP3    H224918   5.831   2.011  16.306  1.2307 -0.2291 -0.4204
 1143TIP3   OH224919   5.302   4.339   5.377 -0.0910 -0.1669  0.1292
 1143TIP3    H124920   5.223   4.392   5.387  0.1926  0.5796 -1.3368
 1143TIP3    H224921   5.303   4.282   5.454 -2.3490 -0.5859 -0.1038
 1144TIP3   OH224922   6.639   4.188   5.057  0.0128  0.2908  0.2102
 1144TIP3    H124923   6.664   4.156   4.970  2.1849  1.4759  0.3187
 1144TIP3    H224924   6.669   4.279   5.058  0.9243  0.0405  2.5096
 1145TIP3   OH224925   2.426   0.590  10.649  0.5861  0.1114  0.1401
 1145TIP3    H124926   2.366   0.602  10.724  1.5746  0.5895  0.8732
 1145TIP3    H224927   2.458   0.677  10.630  1.4508 -0.2067  0.0973
 1146TIP3   OH224928   5.653   2.815   5.813 -0.0315  0.3377 -0.2116
 1146TIP3    H124929   5.581   2.813   5.750 -1.3705 -0.5111  1.2695
 1146TIP3    H224930   5.639   2.738   5.868  1.3616  0.7746  0.8173
 1147TIP3   OH224931   6.778   0.101  11.869 -0.0849  0.5601 -0.7523
 1147TIP3    H124932   6.725   0.168  11.914 -0.1158 -0.1280  0.2882
 1147TIP3    H224933   6.818   0.051  11.941  0.2744 -0.2658 -1.5144
 1148TIP3   OH224934   1.876   1.309  17.070  0.0842 -0.5366 -0.0197
 1148TIP3    H124935   1.961   1.353  17.076 -1.0999  2.0221 -0.7294
 1148TIP3    H224936   1.866   1.267  17.156  1.9767 -0.8088  0.1221
 1149TIP3   OH224937   5.721   1.611  13.717 -0.1823  0.3350 -0.5857
 1149TIP3    H124938   5.752   1.545  13.780  2.8585  1.4777 -0.7046
 1149TIP3    H224939   5.625   1.602  13.718 -0.1018 -1.5473  2.1346
 1150TIP3   OH224940   3.430   3.369  14.432 -0.3105 -0.0357 -0.6903
 1150TIP3    H124941   3.497   3.303  14.416  0.1297  0.7038 -2.0940
 1150TIP3    H224942   3.479   3.449  14.450 -0.8318  0.2073 -0.3092
 1151TIP3   OH224943   6.620   2.999   5.775 -0.4340  0.1633  0.3061
 1151TIP3    H124944   6.598   2.926   5.717 -0.4120  0.1598  0.3020
 1151TIP3    H224945   6.627   3.075   5.718 -1.8057  0.4475  0.4729
 1152TIP3   OH224946   2.910   6.156  14.231 -0.2980  0.2985  0.0938
 1152TIP3    H124947   2.928   6.247  14.207 -0.8728  0.6224  0.8537
 1152TIP3    H224948   2.960   6.141  14.311  1.1577 -0.6060 -0.9159
 1153TIP3   OH224949   1.918   1.042   4.531 -0.4336  0.9296 -0.4767
 1153TIP3    H124950   1.890   1.134   4.526 -0.1412  0.9760 -1.4773
 1153TIP3    H224951   1.858   1.002   4.593 -1.1897  1.5756 -0.7728
 1154TIP3   OH224952   0.463   2.671  12.831 -0.1379  0.0162 -0.1832
 1154TIP3    H124953   0.431   2.606  12.768  0.3614  0.7316 -1.2202
 1154TIP3    H224954   0.558   2.664  12.827 -0.1000  0.1876  0.3742
 1155TIP3   OH224955   6.059   2.142   2.203 -0.5137  1.0879 -0.2855
 1155TIP3    H124956   6.148   2.118   2.178 -1.1189 -0.4393 -1.1312
 1155TIP3    H224957   6.056   2.128   2.297 -0.4329 -0.9846 -0.5458
 1156TIP3   OH224958   4.096   3.964  14.820  0.3481  0.0279 -0.6557
 1156TIP3    H124959   4.135   3.988  14.736 -0.1511  1.1852 -0.5745
 1156TIP3    H224960   4.021   4.022  14.829  0.4460 -0.0086  0.6314
 1157TIP3   OH224961   2.585   1.056  14.830 -0.4857  0.1505 -0.2360
 1157TIP3    H124962   2.679   1.044  14.820 -0.5915  0.2819 -1.4358
 1157TIP3    H224963   2.553   0.972  14.864  0.3133  0.7272  2.1967
 1158TIP3   OH224964   0.351   1.900   4.096  0.1639 -0.2778 -0.1968
 1158TIP3    H124965   0.332   1.990   4.070  0.2331 -0.5386 -1.2296
 1158TIP3    H224966   0.266   1.863   4.119 -0.1067 -0.4073 -1.3413
 1159TIP3   OH224967   3.825   1.412   5.681  0.1131 -0.3241 -0.8662
 1159TIP3    H124968   3.870   1.415   5.766 -1.3678 -1.8548  0.0609
 1159TIP3    H224969   3.893   1.389   5.618  0.9863 -0.5996  0.1449
 1160TIP3   OH224970   4.200   6.641  15.698  0.1585  0.0923  0.0965
 1160TIP3    H124971   4.244   6.658  15.781 -0.3737  0.2217  0.3560
 1160TIP3    H224972   4.206   6.724  15.650 -1.0047  0.5481  0.6979
 1161TIP3   OH224973   2.821   1.202  10.851 -0.3278  0.6054  0.0995
 1161TIP3    H124974   2.903   1.230  10.812  0.3544 -0.2922  0.8424
 1161TIP3    H224975   2.767   1.175  10.777  0.3025  0.5491 -0.3495
 1162TIP3   OH224976   3.749   4.538  13.482 -0.0989  0.1427  0.1206
 1162TIP3    H124977   3.741   4.591  13.403  0.8975  2.4099  1.4439
 1162TIP3    H224978   3.716   4.594  13.552 -2.6591 -2.4409  1.1980
 1163TIP3   OH224979   1.821   5.488   2.348 -0.0247  0.2501  0.1995
 1163TIP3    H124980   1.835   5.510   2.255  1.5224  1.3534  0.6427
 1163TIP3    H224981   1.893   5.532   2.393  0.5856 -2.1566  1.6943
 1164TIP3   OH224982   6.754   4.247   6.236 -0.1221  0.0029 -0.3416
 1164TIP3    H124983   6.798   4.162   6.239  2.7715  1.4074  1.6267
 1164TIP3    H224984   6.709   4.254   6.320  1.2682  1.1279  0.3466
 1165TIP3   OH224985   1.558   1.793  13.094 -0.1163  0.5125 -0.3118
 1165TIP3    H124986   1.480   1.836  13.058 -0.8530 -1.4888 -1.2937
 1165TIP3    H224987   1.566   1.828  13.182 -0.3344  2.9849 -1.1830
 1166TIP3   OH224988   5.826   4.917  15.890 -0.1978 -0.4774 -0.2310
 1166TIP3    H124989   5.755   4.900  15.952  0.9582 -0.9479  1.0184
 1166TIP3    H224990   5.898   4.948  15.944  0.0534  1.5910 -1.6632
 1167TIP3   OH224991   0.923   1.430   5.225 -0.0790 -0.1049  0.6040
 1167TIP3    H124992   1.005   1.458   5.186 -1.0899  0.5433 -1.1617
 1167TIP3    H224993   0.930   1.457   5.317  1.9801 -0.8266  0.7112
 1168TIP3   OH224994   5.974   0.666   3.459  0.2151  0.0586 -0.2545
 1168TIP3    H124995   5.973   0.691   3.551 -0.9478  0.3369 -0.3355
 1168TIP3    H224996   6.067   0.671   3.434  0.3890  1.2783  0.5480
 1169TIP3   OH224997   3.492   6.025   6.357  0.4359 -0.2431  0.5340
 1169TIP3    H124998   3.578   6.051   6.324  0.4356  0.9382  1.4007
 1169TIP3    H224999   3.434   6.030   6.281  0.7167  1.0328  0.3875
 1170TIP3   OH225000   5.310   6.290   4.864 -0.2391  0.3367 -0.6071
 1170TIP3    H125001   5.280   6.301   4.774 -1.2483 -1.9637 -0.6286
 1170TIP3    H225002   5.401   6.263   4.856  0.5255  2.7759 -0.7622
 1171TIP3   OH225003   4.518   0.170  14.979 -0.4019  0.5745 -0.4076
 1171TIP3    H125004   4.515   0.258  14.940 -1.3841  0.4333 -0.6655
 1171TIP3    H225005   4.608   0.141  14.964 -0.2092  1.3327 -0.7820
 1172TIP3   OH225006   4.933   4.419   3.864 -0.1800 -0.6086  0.1779
 1172TIP3    H125007   4.903   4.447   3.950 -0.0114  1.5743 -0.4200
 1172TIP3    H225008   4.873   4.348   3.840 -0.0605 -1.4327  2.1610
 1173TIP3   OH225009   4.662   0.838   0.269 -0.9023  0.1159 -0.5533
 1173TIP3    H125010   4.744   0.823   0.316 -0.7720 -1.0114 -1.1181
 1173TIP3    H225011   4.596   0.789   0.319 -1.2176  0.8978 -0.1840
 1174TIP3   OH225012   2.954   6.073   1.766 -0.5746 -0.2442  0.2038
 1174TIP3    H125013   2.915   5.986   1.757  0.4058 -0.7185  0.3376
 1174TIP3    H225014   3.031   6.071   1.709 -0.6983  0.6416 -0.0118
 1175TIP3   OH225015   0.709   5.027   1.771 -0.5014 -0.2313 -0.4078
 1175TIP3    H125016   0.755   4.944   1.763  0.9685  0.6224 -1.3785
 1175TIP3    H225017   0.774   5.093   1.745 -1.9506  1.1232 -0.7607
 1176TIP3   OH225018   3.562   1.037   4.121 -0.2703 -0.4071 -0.6283
 1176TIP3    H125019   3.604   1.013   4.204 -0.4230  0.6865 -0.2178
 1176TIP3    H225020   3.576   1.131   4.114 -2.8377  0.0664 -0.3354
 1177TIP3   OH225021   3.609   5.889   4.478  0.3036  0.1836  0.5778
 1177TIP3    H125022   3.702   5.909   4.466  0.6575 -2.3424 -2.0095
 1177TIP3    H225023   3.563   5.963   4.439  1.2860  0.4296 -0.1567
 1178TIP3   OH225024   0.462   2.873  10.680  0.1791  0.1735  0.1708
 1178TIP3    H125025   0.407   2.797  10.701 -1.2711  1.0117 -0.4389
 1178TIP3    H225026   0.483   2.912  10.765  1.6857 -1.3528  0.5662
 1179TIP3   OH225027   0.811   4.514  12.442  0.6587 -0.0543  0.0927
 1179TIP3    H125028   0.800   4.424  12.473  1.3505 -0.0307  0.4158
 1179TIP3    H225029   0.852   4.559  12.516 -1.9375  1.1462  0.9306
 1180TIP3   OH225030   3.530   3.727   5.217  0.1985 -0.0469 -0.1264
 1180TIP3    H125031   3.468   3.697   5.151 -0.8828 -0.3177  0.9788
 1180TIP3    H225032   3.591   3.783   5.169  0.5015 -1.6130 -1.6873
 1181TIP3   OH225033   2.054   5.332  15.051 -0.2593 -0.6664  0.1611
 1181TIP3    H125034   2.050   5.344  14.956  1.0397 -0.6985  0.0896
 1181TIP3    H225035   2.132   5.381  15.078 -0.7029 -0.5293  1.2357
 1182TIP3   OH225036   2.336   2.415  12.260 -0.1827 -0.1942  0.5308
 1182TIP3    H125037   2.379   2.488  12.214 -0.5116  0.0185  0.5568
 1182TIP3    H225038   2.259   2.396  12.207 -0.3286 -0.2386  0.7602
 1183TIP3   OH225039   4.356   3.478   0.449  0.1399  0.3373 -0.2397
 1183TIP3    H125040   4.293   3.551   0.455  0.6398  0.7750 -0.2726
 1183TIP3    H225041   4.365   3.463   0.355  1.3501  1.4000 -0.3248
 1184TIP3   OH225042   4.047   6.553   0.541  0.4331  0.5638 -0.0196
 1184TIP3    H125043   3.996   6.596   0.472 -0.6649  1.6652  1.4459
 1184TIP3    H225044   4.124   6.609   0.551  0.1798  0.8693  0.2281
 1185TIP3   OH225045   4.424   4.852  14.019  0.1403 -0.1255  0.2741
 1185TIP3    H125046   4.502   4.894  14.056 -0.0558  1.6818 -1.2194
 1185TIP3    H225047   4.439   4.852  13.925 -2.4125  2.0525 -0.2622
 1186TIP3   OH225048   3.356   3.197  14.647  0.2450  0.5735 -0.3370
 1186TIP3    H125049   3.266   3.207  14.678  1.1413  2.1461  2.1055
 1186TIP3    H225050   3.367   3.264  14.580  0.3808  2.4748  1.4985
 1187TIP3   OH225051   6.781   0.147   0.558 -0.0665 -0.3328  0.1977
 1187TIP3    H125052   6.832   0.085   0.506  1.3587  0.5425  0.4947
 1187TIP3    H225053   6.819   0.232   0.538 -0.0893  0.1269  1.9678
 1188TIP3   OH225054   6.306   2.726   3.072  0.1860 -0.4293  0.2659
 1188TIP3    H125055   6.381   2.775   3.036  0.1979 -1.9036 -1.9242
 1188TIP3    H225056   6.233   2.788   3.066  0.7513  0.2473  0.2029
 1189TIP3   OH225057   6.722   6.426  16.976 -0.4265  0.6040 -0.2692
 1189TIP3    H125058   6.660   6.482  17.024 -0.8867  1.1858 -1.5078
 1189TIP3    H225059   6.787   6.488  16.942 -0.1228  0.2010 -0.4179
 1190TIP3   OH225060   2.761   5.747   2.634  0.5984 -0.2383 -0.1104
 1190TIP3    H125061   2.668   5.743   2.657  0.5217 -2.1422 -0.5955
 1190TIP3    H225062   2.762   5.745   2.538  1.1306 -0.1616 -0.1075
 1191TIP3   OH225063   5.570   2.209  16.727 -0.5124 -0.0590 -0.2616
 1191TIP3    H125064   5.657   2.245  16.709 -0.4113 -1.2413 -2.5407
 1191TIP3    H225065   5.509   2.278  16.701 -0.2930  0.2758  0.0950
 1192TIP3   OH225066   0.056   1.302  15.840  0.1114 -0.2640 -0.1781
 1192TIP3    H125067   0.080   1.367  15.906 -0.7236 -0.2037  0.0701
 1192TIP3    H225068   0.036   1.353  15.762  2.5163 -0.4028 -0.9676
 1193TIP3   OH225069   5.217   6.662   2.091 -0.3682  0.0571 -0.5799
 1193TIP3    H125070   5.127   6.629   2.088 -0.0184 -1.0341  0.2940
 1193TIP3    H225071   5.269   6.596   2.045 -0.2815  1.8540 -3.2892
 1194TIP3   OH225072   1.033   5.725   4.104  0.7101 -0.2419  0.0247
 1194TIP3    H125073   1.004   5.690   4.188 -0.9717  0.2208 -0.3378
 1194TIP3    H225074   0.955   5.763   4.065  1.8937  1.4221 -0.8474
 1195TIP3   OH225075   4.633   2.498  15.642 -0.1112 -0.0880  0.6858
 1195TIP3    H125076   4.553   2.526  15.598  2.1095  5.2263 -0.7249
 1195TIP3    H225077   4.673   2.436  15.581 -1.0745  0.6693 -0.7853
 1196TIP3   OH225078   2.294   3.395   0.605  0.3130 -0.0740  0.9570
 1196TIP3    H125079   2.227   3.394   0.537  2.6765 -2.7748 -1.6111
 1196TIP3    H225080   2.315   3.488   0.617 -1.5774  0.6025 -0.5338
 1197TIP3   OH225081   5.628   0.242  15.591  0.1335 -0.1377 -0.7104
 1197TIP3    H125082   5.650   0.335  15.587 -1.2808  0.2120 -1.1922
 1197TIP3    H225083   5.596   0.221  15.503  1.6108 -1.4229 -0.9749
 1198TIP3   OH225084   3.331   0.358   4.408  0.3449  1.2964  0.2535
 1198TIP3    H125085   3.265   0.389   4.469 -0.4620 -0.4860  0.3680
 1198TIP3    H225086   3.386   0.298   4.459  0.0057  0.2191 -0.5900
 1199TIP3   OH225087   3.377   5.190   2.165 -0.0393  0.4222  0.2822
 1199TIP3    H125088   3.290   5.184   2.205 -0.5028 -0.0384 -0.7789
 1199TIP3    H225089   3.411   5.101   2.166 -0.9657 -0.0374 -2.3008
 1200TIP3   OH225090   1.369   5.372  16.063  0.1872 -0.4753 -0.0287
 1200TIP3    H125091   1.365   5.422  15.981  1.5335  1.4536  0.9979
 1200TIP3    H225092   1.462   5.364  16.081 -0.0885 -1.2500  1.1137
 1201TIP3   OH225093   1.950   2.058  13.551  0.7018 -0.1684  0.1481
 1201TIP3    H125094   2.039   2.034  13.575  0.1170  0.8614  3.9884
 1201TIP3    H225095   1.942   2.150  13.575 -2.0043 -0.8356  2.3084
 1202TIP3   OH225096   1.523   1.167   1.264 -0.0121 -0.2803 -0.0869
 1202TIP3    H125097   1.450   1.139   1.320 -1.4822 -0.7932 -2.1674
 1202TIP3    H225098   1.493   1.151   1.175  1.7187  1.7764 -1.1329
 1203TIP3   OH225099   6.433   0.415  15.089  0.0185  0.2987  0.0716
 1203TIP3    H125100   6.462   0.481  15.026 -1.0257 -0.0943 -0.8590
 1203TIP3    H225101   6.381   0.463  15.153  2.8360  1.0846  1.9791
 1204TIP3   OH225102   5.206   4.223   2.750  0.0547  0.1973  0.0727
 1204TIP3    H125103   5.138   4.290   2.741 -0.7819 -0.2541  2.4359
 1204TIP3    H225104   5.230   4.226   2.843  2.1728 -0.7339 -0.3903
 1205TIP3   OH225105   1.843   4.083   1.485 -0.0885 -0.2181  0.2635
 1205TIP3    H125106   1.816   4.042   1.403  0.7054 -1.0161  0.3828
 1205TIP3    H225107   1.845   4.177   1.466  0.0956 -0.3998 -0.6281
 1206TIP3   OH225108   4.695   1.568   5.871 -0.3046  0.7952 -0.2010
 1206TIP3    H125109   4.762   1.564   5.802 -0.8704  1.3775 -0.7973
 1206TIP3    H225110   4.746   1.574   5.952  0.3721  0.0309 -0.5515
 1207TIP3   OH225111   2.944   6.601   1.239 -0.3083 -0.0445  0.6462
 1207TIP3    H125112   3.031   6.626   1.271 -0.4130 -0.1991  1.0460
 1207TIP3    H225113   2.957   6.517   1.196 -0.5902 -0.9591  2.2934
 1208TIP3   OH225114   5.235   1.657   3.966  0.0106 -0.2148  0.4308
 1208TIP3    H125115   5.297   1.636   3.897  1.6937  0.1078  1.7542
 1208TIP3    H225116   5.192   1.738   3.937 -0.8758 -1.2194 -1.1562
 1209TIP3   OH225117   3.880   6.229  12.243 -0.0879 -0.2489 -0.1655
 1209TIP3    H125118   3.809   6.177  12.279 -1.7288  1.0604 -1.3438
 1209TIP3    H225119   3.909   6.180  12.166 -0.2476 -0.3905 -0.1350
 1210TIP3   OH225120   3.614   5.125   3.197 -0.1506 -0.4106  0.1401
 1210TIP3    H125121   3.557   5.051   3.174  1.2496 -1.9920  1.4965
 1210TIP3    H225122   3.697   5.104   3.154 -0.0401  0.9614 -0.3447
 1211TIP3   OH225123   4.863   0.094   5.143  0.1871  0.5341 -0.4302
 1211TIP3    H125124   4.921   0.028   5.180 -1.2297 -0.4316  0.1306
 1211TIP3    H225125   4.855   0.070   5.050 -1.7974 -1.2431  0.1515
 1212TIP3   OH225126   2.733   5.524  10.431 -0.2877  0.0838 -0.3673
 1212TIP3    H125127   2.788   5.512  10.508 -2.1434  1.3058  1.2331
 1212TIP3    H225128   2.701   5.436  10.411  1.3270 -0.4785 -0.7026
 1213TIP3   OH225129   4.845   2.254   0.550  0.0859 -0.1549  0.4142
 1213TIP3    H125130   4.938   2.243   0.531  0.0575 -1.3402  0.9401
 1213TIP3    H225131   4.837   2.345   0.581  0.8287  0.4095 -0.9552
 1214TIP3   OH225132   1.903   4.761  15.615  0.1130 -0.2582  0.3884
 1214TIP3    H125133   1.960   4.693  15.652  0.6066 -0.6772 -1.0740
 1214TIP3    H225134   1.834   4.712  15.569 -0.4688  0.2422  0.7205
 1215TIP3   OH225135   2.050   1.369  10.743  0.7628  0.2671 -0.2524
 1215TIP3    H125136   2.091   1.448  10.777  1.9540 -0.8258  0.9556
 1215TIP3    H225137   2.117   1.301  10.752 -0.9484 -1.3758  0.8270
 1216TIP3   OH225138   3.583   4.088  13.435  0.2185 -0.5912 -0.0015
 1216TIP3    H125139   3.647   4.086  13.506  1.1536 -0.3800 -0.8330
 1216TIP3    H225140   3.581   3.998  13.402  1.2391 -0.2726 -0.9790
 1217TIP3   OH225141   0.014   3.502   4.309  0.2118 -0.4694 -0.3902
 1217TIP3    H125142   0.107   3.508   4.288  0.9735  0.7957  2.8192
 1217TIP3    H225143  -0.027   3.572   4.258  1.0868 -0.5788 -1.2838
 1218TIP3   OH225144   6.677   3.367   4.909 -0.2505  0.1001 -0.4709
 1218TIP3    H125145   6.601   3.313   4.886  0.1691 -0.8261  0.2477
 1218TIP3    H225146   6.746   3.336   4.850 -0.2751  0.5536 -0.7403
 1219TIP3   OH225147   0.841   3.750  16.137  0.2958 -0.0618  0.4745
 1219TIP3    H125148   0.829   3.837  16.176  2.0893  0.6154 -0.3827
 1219TIP3    H225149   0.848   3.691  16.212  2.2240  1.0077  1.2073
 1220TIP3   OH225150   6.320   6.594  16.491  0.6530  0.1799  0.3511
 1220TIP3    H125151   6.285   6.629  16.409  1.4483  0.8150  0.2725
 1220TIP3    H225152   6.326   6.670  16.549  2.1247  0.1512  0.2735
 1221TIP3   OH225153   0.531   0.086   1.967  0.0317  0.5178 -0.2904
 1221TIP3    H125154   0.492   0.007   2.005 -0.8341  0.6873 -0.8226
 1221TIP3    H225155   0.532   0.071   1.873  1.7359  0.3077 -0.2805
 1222TIP3   OH225156   4.189   4.212  10.502 -0.2941  0.4272  0.4534
 1222TIP3    H125157   4.240   4.164  10.437 -0.6969  0.4770  0.0972
 1222TIP3    H225158   4.242   4.290  10.521  0.2939 -0.0861  0.9335
 1223TIP3   OH225159   5.732   4.991  16.975  0.2245  0.8216  0.4418
 1223TIP3    H125160   5.651   4.940  16.978 -0.0666  1.1297 -1.0404
 1223TIP3    H225161   5.770   4.969  16.889  0.9407  1.8156  0.4896
 1224TIP3   OH225162   1.130   0.330   4.371 -0.0306 -0.0140  0.0236
 1224TIP3    H125163   1.213   0.317   4.417 -1.6491  0.3322  3.3306
 1224TIP3    H225164   1.079   0.253   4.392 -1.1842  0.5962 -0.4597
 1225TIP3   OH225165   3.085   1.123   2.245  0.0210 -0.0797  0.2657
 1225TIP3    H125166   3.018   1.178   2.203  0.0908  0.0691  0.3470
 1225TIP3    H225167   3.093   1.047   2.188 -0.6147 -0.3632  0.5395
 1226TIP3   OH225168   0.740   2.071  11.631  0.0633 -0.0133 -1.2128
 1226TIP3    H125169   0.659   2.066  11.579  0.8784 -2.1241 -2.4151
 1226TIP3    H225170   0.717   2.030  11.714 -0.5498  0.9835 -0.8753
 1227TIP3   OH225171   6.551   2.482  11.170 -0.0910  0.4127 -0.0868
 1227TIP3    H125172   6.608   2.427  11.224 -0.9877  0.2581  0.7207
 1227TIP3    H225173   6.601   2.496  11.089  0.6435 -0.5947  0.1757
 1228TIP3   OH225174   6.807   6.714  16.995 -0.0969 -0.0393 -0.5957
 1228TIP3    H125175   6.720   6.706  17.034  0.7952 -0.3617  1.4582
 1228TIP3    H225176   6.790   6.730  16.902 -2.3843  1.9608  0.0406
 1229TIP3   OH225177   5.662   2.782   0.408  0.1366  0.1332  0.0022
 1229TIP3    H125178   5.754   2.799   0.387  0.2328 -0.7787 -0.3616
 1229TIP3    H225179   5.650   2.820   0.495  0.9160  0.0645  0.1476
 1230TIP3   OH225180   6.220   4.524   1.748 -0.3155  0.2805 -0.3420
 1230TIP3    H125181   6.220   4.612   1.786 -0.4069  0.3226 -0.4388
 1230TIP3    H225182   6.254   4.536   1.659  0.1700  0.1402 -0.1755
 1231TIP3   OH225183   0.039   4.466  16.902 -0.5246  0.7003  0.0807
 1231TIP3    H125184   0.115   4.506  16.861  0.6739 -0.4333  1.1017
 1231TIP3    H225185   0.022   4.518  16.980 -0.6586  0.8320 -0.0368
 1232TIP3   OH225186   3.035   5.306   3.351  0.0266  0.0752 -0.3923
 1232TIP3    H125187   3.079   5.347   3.277  0.0264  1.5211  0.3686
 1232TIP3    H225188   3.106   5.278   3.409  0.0012  0.1496 -0.3246
 1233TIP3   OH225189   3.121   2.372   0.010 -0.0906 -0.2306  0.4361
 1233TIP3    H125190   3.194   2.378  -0.052  0.5891 -0.0581  1.2215
 1233TIP3    H225191   3.164   2.356   0.094 -1.0118 -0.8134  0.8030
 1234TIP3   OH225192   5.408   4.713   1.054 -0.2267  0.5930  0.3234
 1234TIP3    H125193   5.317   4.735   1.068 -0.7104  0.7773 -2.4661
 1234TIP3    H225194   5.406   4.627   1.011  0.7940  1.1356 -0.8930
 1235TIP3   OH225195   5.045   0.833   1.849  0.0074 -0.3718  0.1244
 1235TIP3    H125196   5.090   0.917   1.858  0.6575 -0.6507 -0.4135
 1235TIP3    H225197   5.005   0.837   1.761  1.0034 -1.0679 -0.3700
 1236TIP3   OH225198   5.846   6.284   5.286  0.9784  0.1113 -0.1605
 1236TIP3    H125199   5.919   6.346   5.296  1.1624 -0.3862  1.9958
 1236TIP3    H225200   5.810   6.275   5.374 -0.3027 -1.3413 -0.7991
 1237TIP3   OH225201   4.949   0.102  14.229 -0.2639 -0.0615 -0.5307
 1237TIP3    H125202   4.854   0.094  14.238 -0.2375  0.0049 -0.1539
 1237TIP3    H225203   4.968   0.192  14.256 -0.1532  0.0948 -1.1330
 1238TIP3   OH225204   3.785   4.348   6.574  0.3558  0.2507 -0.0168
 1238TIP3    H125205   3.743   4.265   6.597 -1.2033  0.9314 -0.2156
 1238TIP3    H225206   3.870   4.323   6.538  1.2099 -1.0569  2.6518
 1239TIP3   OH225207   6.657   5.776   0.328 -0.0901  0.2084  0.4898
 1239TIP3    H125208   6.574   5.821   0.348 -0.6857  0.4400 -2.1238
 1239TIP3    H225209   6.664   5.781   0.233  1.4465 -2.4613  0.3691
 1240TIP3   OH225210   2.166   1.662  11.641 -0.4077 -0.3253 -0.2178
 1240TIP3    H125211   2.106   1.727  11.677  0.1826  0.0456  0.1038
 1240TIP3    H225212   2.119   1.625  11.566 -1.0342 -0.0415  0.0278
 1241TIP3   OH225213   1.739   0.726  15.518  0.1355 -0.0294 -0.1494
 1241TIP3    H125214   1.788   0.731  15.600 -2.2103 -1.5303  1.4687
 1241TIP3    H225215   1.648   0.743  15.543 -0.9528 -2.3962 -2.0419
 1242TIP3   OH225216   0.167   2.532   3.124 -0.3353 -0.1819  0.0733
 1242TIP3    H125217   0.236   2.467   3.114 -1.5898 -1.6407  0.5200
 1242TIP3    H225218   0.155   2.567   3.036  0.7689 -0.0859 -0.0611
 1243TIP3   OH225219   4.595   2.373   1.524  0.0272  0.5438 -0.0316
 1243TIP3    H125220   4.571   2.463   1.500 -0.6635  0.1375 -0.9372
 1243TIP3    H225221   4.646   2.382   1.604 -0.5830  1.7004  0.2512
 1244TIP3   OH225222   3.223   0.691   2.655 -0.3126  0.7273  0.5194
 1244TIP3    H125223   3.240   0.761   2.718  1.6163  0.3672  0.4643
 1244TIP3    H225224   3.186   0.736   2.579  0.4373  1.6329  0.6713
 1245TIP3   OH225225   0.682   3.120  16.966  0.3570 -0.9290 -0.0241
 1245TIP3    H125226   0.632   3.114  17.047  0.5377  1.0395  0.2913
 1245TIP3    H225227   0.773   3.104  16.993  0.1757 -2.4010 -0.2326
 1246TIP3   OH225228   4.822   1.036  16.968  0.2542  0.1513 -0.4849
 1246TIP3    H125229   4.761   1.003  17.034 -1.8876  0.3974 -2.2399
 1246TIP3    H225230   4.907   1.003  16.996 -1.0557 -2.6706  0.5322
 1247TIP3   OH225231   6.276   5.786   0.232 -0.4997  0.2316 -0.1866
 1247TIP3    H125232   6.210   5.847   0.197  1.0907  0.7968 -2.4328
 1247TIP3    H225233   6.324   5.757   0.155  3.4042  1.6590  1.4492
 1248TIP3   OH225234   2.210   5.943  14.873 -0.1218 -0.1092  0.1644
 1248TIP3    H125235   2.209   6.028  14.917 -1.1350  0.3050 -0.6189
 1248TIP3    H225236   2.219   5.965  14.780 -1.8939 -0.7704 -0.1884
 1249TIP3   OH225237   6.684   0.512  12.443 -0.0647  0.3088 -0.4908
 1249TIP3    H125238   6.699   0.560  12.524 -2.6604 -0.1033  0.3031
 1249TIP3    H225239   6.656   0.579  12.380 -1.5614  0.1659  0.0010
 1250TIP3   OH225240   1.339   1.127   5.013 -0.2848 -0.0054  0.6393
 1250TIP3    H125241   1.266   1.087   5.062 -0.0550  0.4086  1.3284
 1250TIP3    H225242   1.297   1.196   4.961 -0.5953 -0.7293 -0.1102
 1251TIP3   OH225243   4.994   5.437  17.021 -0.5879 -0.1004 -0.1155
 1251TIP3    H125244   5.003   5.347  17.052 -2.2372 -0.1350  0.3596
 1251TIP3    H225245   5.037   5.437  16.935 -0.7941 -1.4106 -0.2430
 1252TIP3   OH225246   5.859   0.729   0.270 -0.0766 -0.2948  0.3748
 1252TIP3    H125247   5.929   0.792   0.285 -1.3551  1.1438  0.4882
 1252TIP3    H225248   5.865   0.670   0.345  1.9210 -1.1383 -0.3562
 1253TIP3   OH225249   1.376   0.881  15.065 -0.0125 -0.2689 -0.1522
 1253TIP3    H125250   1.361   0.897  15.159  1.3540 -0.5221  0.1209
 1253TIP3    H225251   1.416   0.794  15.061 -2.4961 -1.4670 -1.2155
 1254TIP3   OH225252   0.927   1.424   3.180  0.0010  0.0520 -0.2562
 1254TIP3    H125253   0.914   1.514   3.151 -0.4920  0.0537 -0.0407
 1254TIP3    H225254   0.939   1.431   3.275 -1.3529 -0.2202 -0.0439
 1255TIP3   OH225255   1.043   3.588   0.320  0.1755  0.1704  0.2435
 1255TIP3    H125256   0.999   3.591   0.405 -1.7851  1.2177 -0.7310
 1255TIP3    H225257   1.074   3.677   0.305  1.3136 -0.2161  0.2360
 1256TIP3   OH225258   2.378   0.638   5.905  0.2431 -0.3231 -0.2775
 1256TIP3    H125259   2.349   0.628   5.814 -3.0945  0.9092  0.5094
 1256TIP3    H225260   2.449   0.574   5.915  0.0012 -1.2426 -3.4035
 1257TIP3   OH225261   1.657   6.232   2.089  1.0063  0.1178  0.1456
 1257TIP3    H125262   1.743   6.246   2.050  0.1362  1.6122 -1.4186
 1257TIP3    H225263   1.597   6.228   2.014 -0.0526 -3.6633  0.9963
 1258TIP3   OH225264   5.041   1.560  14.527 -0.2040 -0.5557  0.3588
 1258TIP3    H125265   5.104   1.619  14.567  0.6422 -0.1597 -1.4772
 1258TIP3    H225266   5.094   1.498  14.477 -1.2080 -0.7941 -0.4477
 1259TIP3   OH225267   5.725   3.638   5.313  0.1831 -0.1685  0.6851
 1259TIP3    H125268   5.677   3.633   5.396  1.1401 -2.4279  1.1657
 1259TIP3    H225269   5.814   3.665   5.339 -0.2704  2.2284 -0.0028
 1260TIP3   OH225270   1.056   3.773   3.408 -0.8012 -0.6003  0.2011
 1260TIP3    H125271   1.065   3.759   3.313 -1.9326 -1.0252  0.1413
 1260TIP3    H225272   1.081   3.864   3.421 -2.2294 -0.0268 -0.7714
 1261TIP3   OH225273   4.527   3.975   0.657 -0.0281  0.1414  0.7084
 1261TIP3    H125274   4.435   3.962   0.636 -0.5079  2.5506  1.0566
 1261TIP3    H225275   4.529   3.981   0.753  0.5505 -0.1295  0.7224
 1262TIP3   OH225276   4.686   2.291  16.718  0.2024  0.7726 -0.3189
 1262TIP3    H125277   4.620   2.239  16.673  0.2996  1.5220 -1.3686
 1262TIP3    H225278   4.665   2.282  16.811  0.2750 -1.2031 -0.4504
 1263TIP3   OH225279   1.842   1.600   4.866  0.1285 -0.1364  0.1005
 1263TIP3    H125280   1.821   1.524   4.920  0.5038 -0.0982  0.3052
 1263TIP3    H225281   1.934   1.588   4.842  0.2237  0.3013  0.2245
 1264TIP3   OH225282   6.308   2.969   6.355 -0.1530  0.0381  0.2114
 1264TIP3    H125283   6.279   2.885   6.391 -1.9997  0.8930  0.8842
 1264TIP3    H225284   6.326   3.023   6.433  2.8355 -0.2463 -0.1918
 1265TIP3   OH225285   5.676   5.129  12.640 -0.2228 -0.1060 -0.6722
 1265TIP3    H125286   5.768   5.122  12.665  0.3281  0.4500 -2.3945
 1265TIP3    H225287   5.676   5.190  12.566 -2.5139  3.7887  2.1259
 1266TIP3   OH225288   5.448   4.483  13.824  0.0312  0.0227 -0.0874
 1266TIP3    H125289   5.395   4.561  13.837 -0.6254 -0.1335 -1.6149
 1266TIP3    H225290   5.528   4.500  13.875 -0.5000  1.2552  0.3778
 1267TIP3   OH225291   0.407   6.513   2.629 -0.1031  0.7540 -0.0490
 1267TIP3    H125292   0.388   6.419   2.621 -1.9822  1.0569  0.4084
 1267TIP3    H225293   0.482   6.518   2.687  0.6357 -0.5001 -0.8515
 1268TIP3   OH225294   0.178   0.314  11.898  0.2303 -0.2430  0.3481
 1268TIP3    H125295   0.205   0.392  11.851  0.3531 -0.2998  0.3233
 1268TIP3    H225296   0.253   0.293  11.954 -0.2003  0.2589  1.1260
 1269TIP3   OH225297   4.397   5.699  16.914 -0.2619  0.1824  0.3205
 1269TIP3    H125298   4.486   5.728  16.892 -0.6045  2.1142  1.2452
 1269TIP3    H225299   4.409   5.613  16.953  1.2641  0.5350  0.7145
 1270TIP3   OH225300   3.595   3.642  12.125  0.1729 -0.6302  0.5259
 1270TIP3    H125301   3.666   3.577  12.124  0.4932 -0.2830  0.0578
 1270TIP3    H225302   3.564   3.644  12.035 -1.1408 -1.5290  0.9345
 1271TIP3   OH225303   1.734   0.764   3.768  0.0369 -0.0747 -0.1959
 1271TIP3    H125304   1.822   0.745   3.800 -0.4634 -2.2184  0.0648
 1271TIP3    H225305   1.746   0.835   3.705  2.0539 -0.8203 -0.7349
 1272TIP3   OH225306   0.899   6.329   0.034 -0.0210  0.3931 -0.2602
 1272TIP3    H125307   0.843   6.342  -0.043  0.1742 -1.5493 -0.7812
 1272TIP3    H225308   0.845   6.277   0.094  0.6330 -0.0504 -0.0478
 1273TIP3   OH225309   5.259   3.801  16.472  0.3035  0.6105  0.2428
 1273TIP3    H125310   5.168   3.772  16.482  0.1533  0.6582 -0.9404
 1273TIP3    H225311   5.254   3.876  16.413  1.3304 -0.7030 -1.6047
 1274TIP3   OH225312   2.197   3.967   3.125  0.1635  0.2452 -0.4131
 1274TIP3    H125313   2.164   3.879   3.146 -0.3169  0.4575 -0.2755
 1274TIP3    H225314   2.153   4.025   3.186  1.0555  0.5014  0.0070
 1275TIP3   OH225315   3.625   1.980  16.089 -0.2707 -0.5654 -0.7225
 1275TIP3    H125316   3.715   1.987  16.057 -0.4806 -0.6689 -1.3530
 1275TIP3    H225317   3.576   2.044  16.036 -0.4382  0.0346  0.1275
 1276TIP3   OH225318   0.933   3.530  11.796  0.2202  0.4564 -0.0234
 1276TIP3    H125319   1.023   3.550  11.823  0.4036 -0.3351  0.0061
 1276TIP3    H225320   0.881   3.541  11.876  0.9340 -2.9900  1.0877
 1277TIP3   OH225321   0.404   4.731   5.573 -0.6916  0.2647  0.5091
 1277TIP3    H125322   0.366   4.645   5.590 -0.7478  0.6191  2.3812
 1277TIP3    H225323   0.352   4.767   5.501  1.1170 -2.3402 -2.3275
 1278TIP3   OH225324   6.606   5.004  16.043  0.1484  0.5192  0.1262
 1278TIP3    H125325   6.613   5.098  16.028 -1.1032  0.7253  0.7240
 1278TIP3    H225326   6.637   4.965  15.961  2.6620  1.3584  0.5853
 1279TIP3   OH225327   3.724   6.605  15.349 -0.4418 -0.0127  0.3792
 1279TIP3    H125328   3.677   6.650  15.279 -2.0747  1.2992  2.1968
 1279TIP3    H225329   3.806   6.655  15.358  0.0944 -0.5977 -0.9704
 1280TIP3   OH225330   2.989   5.943   2.045 -0.4055 -0.0330  0.1705
 1280TIP3    H125331   3.027   6.028   2.067 -0.1101 -0.6170  2.0311
 1280TIP3    H225332   3.044   5.910   1.974 -0.2577  1.1163 -0.2839
 1281TIP3   OH225333   1.546   3.569  16.557 -0.2015 -0.6042 -0.0532
 1281TIP3    H125334   1.607   3.600  16.624 -1.8752  0.0878  1.2126
 1281TIP3    H225335   1.597   3.570  16.476  1.5306 -0.2989  1.0007
 1282TIP3   OH225336   0.908   5.795  11.252  0.1866  0.0375 -0.4164
 1282TIP3    H125337   0.835   5.804  11.314  0.8054 -0.2415  0.3770
 1282TIP3    H225338   0.870   5.812  11.166 -0.1421  3.2776  0.2693
 1283TIP3   OH225339   2.202   3.642  15.577 -0.3777 -0.6209 -0.1030
 1283TIP3    H125340   2.172   3.553  15.593  0.3790 -0.9535 -0.4761
 1283TIP3    H225341   2.239   3.670  15.660 -1.1407 -0.4349  0.1805
 1284TIP3   OH225342   2.494   6.002  14.872  0.0140 -0.0134 -0.5096
 1284TIP3    H125343   2.420   5.942  14.878 -0.3774  0.3998 -1.0942
 1284TIP3    H225344   2.466   6.079  14.923  0.6510 -0.4480  0.5294
 1285TIP3   OH225345   5.535   3.708  16.725  0.1186 -0.5359  0.4663
 1285TIP3    H125346   5.598   3.744  16.787  0.4905  0.8283 -0.6495
 1285TIP3    H225347   5.548   3.759  16.645 -1.3681 -1.2383 -0.2681
 1286TIP3   OH225348   0.286   0.910   2.382  0.2864  0.0581  0.9734
 1286TIP3    H125349   0.332   0.832   2.414 -0.4010 -0.8551 -0.1849
 1286TIP3    H225350   0.356   0.974   2.368  0.9534 -0.5810  1.2800
 1287TIP3   OH225351   3.859   0.989  12.672  0.1644 -0.2059 -0.0989
 1287TIP3    H125352   3.918   0.915  12.658 -1.2939 -1.3048 -0.7108
 1287TIP3    H225353   3.800   0.987  12.597 -1.5517 -0.0585  1.1801
 1288TIP3   OH225354   2.573   4.174   4.456  0.3816  0.4034  0.1290
 1288TIP3    H125355   2.595   4.124   4.378  0.8216 -0.8201  1.0100
 1288TIP3    H225356   2.515   4.244   4.424 -1.9065 -1.8010 -0.8964
 1289TIP3   OH225357   4.597   0.371  14.534 -0.5010  0.6031  0.6990
 1289TIP3    H125358   4.613   0.388  14.441  0.3050 -1.2363  0.4657
 1289TIP3    H225359   4.682   0.346  14.569 -1.0334  0.0882  1.6647
 1290TIP3   OH225360   1.303   1.500   4.231  0.8029  0.1318 -0.5800
 1290TIP3    H125361   1.346   1.585   4.242 -2.9010  2.2504 -0.7756
 1290TIP3    H225362   1.304   1.461   4.319  0.8624  1.3189 -0.0388
 1291TIP3   OH225363   5.849   6.841  14.846  0.7576 -0.2521  0.3243
 1291TIP3    H125364   5.874   6.837  14.754 -1.3562  0.6821 -0.3457
 1291TIP3    H225365   5.769   6.788  14.852 -1.1977  2.5575  0.8155
 1292TIP3   OH225366   1.597   2.473   4.090 -0.9798  0.3787 -0.4577
 1292TIP3    H125367   1.506   2.470   4.119 -1.7949 -0.1579 -2.8449
 1292TIP3    H225368   1.593   2.456   3.996  1.4920  1.5577 -0.8548
 1293TIP3   OH225369   2.885   0.171  14.062  0.0458 -0.5381  0.3940
 1293TIP3    H125370   2.852   0.254  14.096  0.9976 -0.0400  0.1522
 1293TIP3    H225371   2.825   0.149  13.991 -1.1906 -0.9227  1.5227
 1294TIP3   OH225372   5.516   0.701   4.074 -0.5222  0.0069  0.1454
 1294TIP3    H125373   5.608   0.725   4.069  0.7889 -3.8638  1.9394
 1294TIP3    H225374   5.484   0.710   3.984  1.4327  1.7902 -0.4413
 1295TIP3   OH225375   2.168   6.227   0.706 -0.5662 -0.1600 -0.1150
 1295TIP3    H125376   2.089   6.224   0.761 -1.4753 -0.0805 -1.3655
 1295TIP3    H225377   2.158   6.308   0.655  1.6945  1.3266  1.6120
 1296TIP3   OH225378   2.348   4.315   5.445  0.6596 -0.2030  0.1467
 1296TIP3    H125379   2.341   4.250   5.515  1.0107 -0.7961 -0.3606
 1296TIP3    H225380   2.354   4.263   5.364  1.8953  0.4330 -0.1895
 1297TIP3   OH225381   5.261   6.411   5.350 -0.0008  0.2261  0.1249
 1297TIP3    H125382   5.256   6.316   5.364  0.2451  0.4316  1.7312
 1297TIP3    H225383   5.247   6.421   5.256  3.0944 -1.6262 -0.6638
 1298TIP3   OH225384   4.257   3.727  14.920 -0.0130  0.6547 -0.3133
 1298TIP3    H125385   4.204   3.661  14.876  0.3177  0.7407 -0.8546
 1298TIP3    H225386   4.203   3.806  14.919  0.6479  1.1429 -2.1600
 1299TIP3   OH225387   1.390   1.088   3.648 -0.7021  0.1289 -0.4390
 1299TIP3    H125388   1.317   1.082   3.586  0.5533  1.9417 -2.2128
 1299TIP3    H225389   1.466   1.061   3.598  0.2520  0.9615  0.5188
 1300TIP3   OH225390   2.935   5.897   0.324  0.5068  0.1943 -0.4391
 1300TIP3    H125391   3.030   5.892   0.323  0.7493  2.7106  1.5861
 1300TIP3    H225392   2.906   5.805   0.321  3.0007 -0.7005  0.5421
 1301TIP3   OH225393   0.804   6.624   0.154 -0.2569 -0.2709  0.3891
 1301TIP3    H125394   0.717   6.634   0.117 -0.2546 -0.1949  0.4044
 1301TIP3    H225395   0.831   6.535   0.129 -0.4929 -0.4350  0.7106
 1302TIP3   OH225396   4.818   5.362   4.722 -0.2757 -0.1089  0.0229
 1302TIP3    H125397   4.847   5.273   4.740 -1.0314  0.0255  2.2111
 1302TIP3    H225398   4.728   5.353   4.690 -0.1882 -0.1515 -0.2123
 1303TIP3   OH225399   5.000   2.692  15.381 -0.9584  0.1325  0.3674
 1303TIP3    H125400   4.940   2.766  15.394 -0.7279  0.3353  0.2911
 1303TIP3    H225401   5.064   2.701  15.451 -0.4155  0.5203 -0.1759
 1304TIP3   OH225402   2.550   2.142   0.537 -0.5466 -0.8238 -0.6449
 1304TIP3    H125403   2.463   2.105   0.524 -0.4387 -0.4788 -2.7473
 1304TIP3    H225404   2.560   2.204   0.464  0.6900  0.6291  0.6850
 1305TIP3   OH225405   3.587   0.621   4.000  0.3221 -0.0068  0.0044
 1305TIP3    H125406   3.679   0.625   4.026  0.1159  1.5741  0.6126
 1305TIP3    H225407   3.589   0.583   3.912  1.7552  1.5892 -0.7163
 1306TIP3   OH225408   5.481   0.638  13.862  0.1450  0.3390 -0.3634
 1306TIP3    H125409   5.405   0.637  13.804  0.3462 -2.9206 -0.7804
 1306TIP3    H225410   5.548   0.590  13.813  0.9751 -0.7546  1.7250
 1307TIP3   OH225411   2.060   1.598   5.475 -0.4631 -0.4220  0.0156
 1307TIP3    H125412   2.015   1.654   5.412 -2.3739 -2.3622 -0.4488
 1307TIP3    H225413   2.018   1.617   5.559 -1.0825 -1.0750 -0.1347
 1308TIP3   OH225414   5.800   6.751  14.334 -0.2503  0.3662  0.0837
 1308TIP3    H125415   5.788   6.706  14.417 -1.1482  0.2927 -0.0720
 1308TIP3    H225416   5.822   6.841  14.358  2.6262 -0.3265  0.4073
 1309TIP3   OH225417   2.245   6.191  10.377 -0.1078  0.3053 -0.3642
 1309TIP3    H125418   2.287   6.253  10.436  1.4054 -0.2861 -0.7663
 1309TIP3    H225419   2.250   6.231  10.290 -0.8789  0.4615 -0.3469
 1310TIP3   OH225420   3.654   5.739   6.039  0.1355 -0.1540  0.3201
 1310TIP3    H125421   3.690   5.825   6.020 -0.7980  0.1729 -0.0331
 1310TIP3    H225422   3.719   5.697   6.095 -0.0398  1.3301  1.7008
 1311TIP3   OH225423   0.430   2.356   1.722 -0.3345 -0.6541  0.1470
 1311TIP3    H125424   0.462   2.293   1.658  1.6499  1.7723 -1.4366
 1311TIP3    H225425   0.502   2.367   1.784 -0.8155 -0.2492  0.6551
 1312TIP3   OH225426   0.336   4.824  14.056  0.5759  0.3381  0.3471
 1312TIP3    H125427   0.420   4.793  14.023 -0.1434 -0.9219 -0.3870
 1312TIP3    H225428   0.337   4.801  14.149  1.3061  0.9603  0.5042
 1313TIP3   OH225429   0.244   3.798   0.399 -0.1055  0.4882  0.3590
 1313TIP3    H125430   0.174   3.785   0.335  0.4733  0.0519 -0.2000
 1313TIP3    H225431   0.283   3.882   0.375  0.3390  0.1590 -0.0924
 1314TIP3   OH225432   1.287   2.849   6.093  0.3344  0.2030  0.3307
 1314TIP3    H125433   1.363   2.837   6.035 -0.4236  0.5297 -0.7634
 1314TIP3    H225434   1.280   2.765   6.139  1.5858  0.2999  0.7499
 1315TIP3   OH225435   2.901   6.728   2.122  0.0538  0.0712 -0.0031
 1315TIP3    H125436   2.834   6.669   2.087  0.6907 -0.4310 -0.3967
 1315TIP3    H225437   2.853   6.790   2.176 -0.8799  0.4939 -1.2803
 1316TIP3   OH225438   5.069   5.201  14.957 -0.3430  0.0110  0.6968
 1316TIP3    H125439   5.028   5.277  14.998  0.2882  0.7050  0.0831
 1316TIP3    H225440   5.039   5.203  14.866 -0.9783 -0.9624  0.8720
 1317TIP3   OH225441   2.554   3.230   6.226 -0.6040  0.3853 -0.1049
 1317TIP3    H125442   2.648   3.215   6.237 -0.3779  0.9083 -1.1808
 1317TIP3    H225443   2.527   3.276   6.306 -0.3311 -1.3108  1.0112
 1318TIP3   OH225444   3.668   1.197   4.589 -0.8913  0.0696  0.2940
 1318TIP3    H125445   3.652   1.218   4.497  0.2928  2.5248  0.5537
 1318TIP3    H225446   3.607   1.254   4.637 -2.0120 -1.7093  1.0593
 1319TIP3   OH225447   0.683   5.528  13.204 -0.1079 -0.0158  0.1942
 1319TIP3    H125448   0.638   5.445  13.186 -0.3950  0.1665  0.0654
 1319TIP3    H225449   0.774   5.512  13.179 -0.1721 -0.2783  0.1252
 1320TIP3   OH225450   5.424   3.484   2.853 -0.2991  0.2688 -0.2708
 1320TIP3    H125451   5.503   3.439   2.883 -0.8462 -0.7663 -0.3198
 1320TIP3    H225452   5.455   3.554   2.797  0.7076  1.4990  1.7119
 1321TIP3   OH225453   5.763   3.575   0.247  0.1412 -0.4709 -0.0576
 1321TIP3    H125454   5.781   3.581   0.340  0.6199 -0.6378 -0.1373
 1321TIP3    H225455   5.669   3.589   0.240 -0.1470 -1.9449  0.5961
 1322TIP3   OH225456   0.482   2.698   0.602 -0.0528  0.4694  0.8562
 1322TIP3    H125457   0.568   2.701   0.645  0.0120 -0.0222  0.7603
 1322TIP3    H225458   0.501   2.661   0.515 -0.4565 -0.2268  1.0604
 1323TIP3   OH225459   5.425   5.214  15.517 -0.6849 -0.2930  0.2289
 1323TIP3    H125460   5.471   5.131  15.514 -0.5234 -0.2670  1.4231
 1323TIP3    H225461   5.488   5.278  15.486 -0.5302 -0.5094  0.0981
 1324TIP3   OH225462   5.482   4.999   0.757  0.4123  0.2568 -0.4383
 1324TIP3    H125463   5.393   4.997   0.791  0.2277 -1.0573 -0.9700
 1324TIP3    H225464   5.496   5.091   0.733  0.1820  1.0332  2.1219
 1325TIP3   OH225465   3.269   2.050  16.306  0.1791 -0.0335  0.8444
 1325TIP3    H125466   3.231   2.134  16.331  0.1787 -0.2440  1.5824
 1325TIP3    H225467   3.315   2.068  16.224 -0.7058  0.4432  0.4381
 1326TIP3   OH225468   1.877   6.515   4.229  0.0125 -0.2024 -0.0582
 1326TIP3    H125469   1.928   6.437   4.252  2.3484  1.0118 -0.8412
 1326TIP3    H225470   1.868   6.510   4.134 -2.0945 -0.7740  0.1173
 1327TIP3   OH225471   2.956   3.412  15.211 -0.2104 -0.5821  0.0346
 1327TIP3    H125472   2.873   3.438  15.170 -0.3168 -0.9673  0.0061
 1327TIP3    H225473   3.020   3.416  15.141 -0.1948 -0.2583  0.0617
 1328TIP3   OH225474   5.547   1.523   4.422 -0.3980 -0.2115  0.1229
 1328TIP3    H125475   5.532   1.469   4.500 -0.9415 -0.1550  0.0628
 1328TIP3    H225476   5.543   1.613   4.453  0.2497 -0.1990  0.1773
 1329TIP3   OH225477   0.511   4.780   4.308 -0.1378  0.5127 -0.1322
 1329TIP3    H125478   0.450   4.746   4.241  0.0520  0.4587 -0.2797
 1329TIP3    H225479   0.559   4.849   4.263 -1.2546  1.7157  0.4725
 1330TIP3   OH225480   2.801   3.150   5.313  0.3616 -0.4969 -0.0563
 1330TIP3    H125481   2.723   3.096   5.298  0.8613 -1.2560  0.0188
 1330TIP3    H225482   2.826   3.132   5.403  0.5940 -0.2099 -0.0618
 1331TIP3   OH225483   4.473   4.134   4.974  0.6929 -0.0758 -0.0327
 1331TIP3    H125484   4.393   4.088   4.999  0.1157  0.8424 -0.1134
 1331TIP3    H225485   4.544   4.080   5.007 -0.0008 -0.0299  1.6088
 1332TIP3   OH225486   3.042   1.662  16.447 -0.1235 -0.0917  0.5282
 1332TIP3    H125487   3.045   1.721  16.523 -1.6990  1.2358 -0.3644
 1332TIP3    H225488   3.065   1.718  16.372 -1.1357 -0.7265 -0.2881
 1333TIP3   OH225489   5.931   1.506  14.181 -0.1131 -0.1072  0.2804
 1333TIP3    H125490   5.924   1.428  14.236  0.1700  0.1492  0.6869
 1333TIP3    H225491   5.841   1.532  14.164 -0.2010 -0.0913  0.7631
 1334TIP3   OH225492   3.695   2.500   5.513 -0.4866  0.3725 -0.2569
 1334TIP3    H125493   3.745   2.490   5.432 -0.3708  0.9593 -0.2569
 1334TIP3    H225494   3.639   2.422   5.515  1.1608 -0.8376  0.2785
 1335TIP3   OH225495   3.441   2.139  12.920 -0.2630  0.4221 -0.0327
 1335TIP3    H125496   3.477   2.055  12.947 -0.2868  0.3859 -0.1120
 1335TIP3    H225497   3.346   2.126  12.923 -0.2672  0.0712 -1.1836
 1336TIP3   OH225498   1.070   4.044  13.391  0.0495 -0.3737  0.2456
 1336TIP3    H125499   1.158   4.021  13.421  0.5503  2.1688  0.9961
 1336TIP3    H225500   1.072   4.028  13.297  1.5118  0.0967  0.1579
 1337TIP3   OH225501   5.053   2.188   5.706  0.3045  0.4485  0.2409
 1337TIP3    H125502   5.049   2.276   5.667  0.1697  0.5124  0.3953
 1337TIP3    H225503   5.010   2.198   5.791  1.2413  0.4802  0.7258
 1338TIP3   OH225504   0.150   4.334   0.052  0.2104  0.0356  0.1518
 1338TIP3    H125505   0.099   4.414   0.040  0.8005  0.3883 -0.0682
 1338TIP3    H225506   0.206   4.329  -0.026  1.8159  0.6563  1.1973
 1339TIP3   OH225507   2.918   2.402  16.943  0.4601 -0.1036 -0.3830
 1339TIP3    H125508   2.951   2.373  17.028 -0.0977 -1.3634 -0.5694
 1339TIP3    H225509   2.823   2.394  16.950  0.0980  3.1899  0.0488
 1340TIP3   OH225510   2.350   6.585  13.228 -0.3757  0.1106  0.2193
 1340TIP3    H125511   2.277   6.630  13.270 -1.6823 -2.0601  0.4769
 1340TIP3    H225512   2.316   6.560  13.142  1.1821  1.7623 -0.9342
 1341TIP3   OH225513   1.624   3.912  16.759 -0.3131 -0.0258  0.3525
 1341TIP3    H125514   1.659   3.952  16.679  1.4955 -0.6688  0.7854
 1341TIP3    H225515   1.529   3.915  16.747 -0.1892  2.2138 -0.6821
 1342TIP3   OH225516   5.334   0.345  15.513 -0.9154  0.0805  0.2614
 1342TIP3    H125517   5.354   0.267  15.461  1.0258  0.1198  0.8700
 1342TIP3    H225518   5.279   0.312  15.584 -1.0271 -0.5395 -0.1075
 1343TIP3   OH225519   5.573   5.372  14.329 -0.0031 -0.5004 -0.0128
 1343TIP3    H125520   5.625   5.452  14.340  2.4307 -1.7916 -1.3603
 1343TIP3    H225521   5.635   5.307  14.298 -2.4372 -2.2588 -1.5455
 1344TIP3   OH225522   5.962   3.188  12.050 -0.2070  0.5441  0.0973
 1344TIP3    H125523   5.905   3.111  12.051  1.0044 -0.4048  1.4300
 1344TIP3    H225524   5.975   3.209  11.958 -1.6136 -0.0266 -0.2460
 1345TIP3   OH225525   3.052   3.384   0.822 -0.2715  0.1852  0.5160
 1345TIP3    H125526   3.066   3.400   0.728  0.1875 -0.7078  0.4207
 1345TIP3    H225527   3.030   3.291   0.827 -0.0479  0.1746  1.3197
 1346TIP3   OH225528   6.576   0.910   4.301  0.0302 -0.1356  0.6150
 1346TIP3    H125529   6.603   0.976   4.237 -0.7198  1.5086  1.9048
 1346TIP3    H225530   6.630   0.928   4.378 -1.4567  0.2094  1.6245
 1347TIP3   OH225531   2.361   2.975  12.887  0.1722  0.4578  0.4067
 1347TIP3    H125532   2.372   2.935  12.801  0.7761 -3.6834  2.1914
 1347TIP3    H225533   2.435   2.942  12.938 -1.7264  0.3437  3.2779
 1348TIP3   OH225534   3.207   1.481   0.621  0.2312 -0.1150 -0.5488
 1348TIP3    H125535   3.150   1.484   0.697  0.2919  1.5635 -0.5359
 1348TIP3    H225536   3.291   1.452   0.655 -0.2598 -1.3893 -0.3571
 1349TIP3   OH225537   2.850   3.077   3.065  0.2033  0.5043 -0.8202
 1349TIP3    H125538   2.831   3.115   3.151  0.1158 -1.5165  0.1169
 1349TIP3    H225539   2.935   3.034   3.077  1.3314  2.1353 -2.4621
 1350TIP3   OH225540   6.318   2.911   4.270 -0.0908  0.1760  0.3607
 1350TIP3    H125541   6.399   2.963   4.269  1.5137 -2.1649 -0.8153
 1350TIP3    H225542   6.310   2.882   4.361  0.8591 -0.1808  0.3491
 1351TIP3   OH225543   5.620   0.895   4.338  0.0838 -0.4393 -0.6355
 1351TIP3    H125544   5.662   0.963   4.391 -0.1023 -2.0229  1.7392
 1351TIP3    H225545   5.599   0.826   4.401 -1.1895 -2.0161 -2.6550
 1352TIP3   OH225546   3.744   5.586  13.926  0.1178 -0.2729 -0.0180
 1352TIP3    H125547   3.694   5.555  13.851  1.7115  0.1634 -1.3179
 1352TIP3    H225548   3.828   5.613  13.890  1.2038 -0.6908  2.0388
 1353TIP3   OH225549   1.276   4.785   0.664 -0.0149  0.1563  0.6308
 1353TIP3    H125550   1.202   4.774   0.604 -1.2106  1.0555  1.8811
 1353TIP3    H225551   1.320   4.865   0.634 -1.2430  1.2086  1.5517
 1354TIP3   OH225552   3.733   4.116  15.579  0.5407  0.2463  0.1274
 1354TIP3    H125553   3.664   4.060  15.614  3.5744 -2.6007  2.3138
 1354TIP3    H225554   3.747   4.182  15.647 -0.9577  1.8256 -1.0329
 1355TIP3   OH225555   5.636   0.780  17.036  0.3701 -0.0953 -0.3751
 1355TIP3    H125556   5.722   0.793  17.075  0.7477  0.0644 -1.2492
 1355TIP3    H225557   5.653   0.770  16.943 -0.4774 -0.9969 -0.4465
 1356TIP3   OH225558   4.486   1.358  14.877  0.3102 -0.0129 -0.0683
 1356TIP3    H125559   4.494   1.436  14.932  1.7359 -0.1941  0.0188
 1356TIP3    H225560   4.576   1.330  14.862 -0.0581 -0.3657 -1.9487
 1357TIP3   OH225561   1.817   6.428  15.714  0.0117  0.5488 -0.0423
 1357TIP3    H125562   1.891   6.485  15.737  1.8033 -0.5910 -2.5054
 1357TIP3    H225563   1.752   6.445  15.782  2.7391  1.1805  2.6498
 1358TIP3   OH225564   4.851   0.305  14.557  0.0223  0.1759 -0.7396
 1358TIP3    H125565   4.894   0.391  14.557 -1.5367  0.9966 -0.4514
 1358TIP3    H225566   4.910   0.248  14.606 -0.5483  1.9847  2.2794
 1359TIP3   OH225567   6.378   3.070  11.166  0.6128  0.0278 -0.1559
 1359TIP3    H125568   6.392   3.109  11.252 -1.0434 -1.2071  0.7366
 1359TIP3    H225569   6.304   3.118  11.130 -0.0364 -0.8322  0.0172
 1360TIP3   OH225570   3.492   0.064  14.045 -0.1325 -0.6627 -0.3028
 1360TIP3    H125571   3.473  -0.028  14.066  1.3212 -0.9616 -0.1718
 1360TIP3    H225572   3.494   0.108  14.129  0.1149 -0.7048 -0.2869
 1361TIP3   OH225573   5.648   5.516   2.973  0.6119  0.1027  0.0749
 1361TIP3    H125574   5.727   5.507   2.921  1.1430  0.1010  0.8642
 1361TIP3    H225575   5.599   5.435   2.958  0.4825  0.3362 -0.8481
 1362TIP3   OH225576   3.094   5.764  12.000  0.2269 -0.1956 -0.3539
 1362TIP3    H125577   3.029   5.737  11.935  0.0587  1.0491 -0.7109
 1362TIP3    H225578   3.178   5.751  11.956  0.1648 -0.3637 -0.4274
 1363TIP3   OH225579   1.360   5.191  15.096  0.1716  0.0352  0.4558
 1363TIP3    H125580   1.390   5.280  15.117  1.4182 -0.0514 -0.8095
 1363TIP3    H225581   1.308   5.200  15.017  0.9744 -0.4342 -0.1494
 1364TIP3   OH225582   3.091   2.981   5.108  0.1414 -0.2814  0.4426
 1364TIP3    H125583   3.047   2.947   5.186  1.9246 -2.1068  0.7434
 1364TIP3    H225584   3.034   2.955   5.035 -0.4807 -0.4470  0.9843
 1365TIP3   OH225585   1.554   6.284   3.070 -0.1432 -0.0789 -0.3393
 1365TIP3    H125586   1.494   6.218   3.106  0.3051  0.4251  1.4301
 1365TIP3    H225587   1.497   6.353   3.037 -0.5771 -0.7691 -1.0840
 1366TIP3   OH225588   6.512   4.502  16.386 -0.4441  0.2520  0.3044
 1366TIP3    H125589   6.544   4.445  16.457 -1.7778 -0.8501  0.0545
 1366TIP3    H225590   6.468   4.573  16.431  2.8444  2.2763  0.7068
 1367TIP3   OH225591   6.498   3.393   6.553 -0.1827  0.6747 -0.0219
 1367TIP3    H125592   6.531   3.426   6.469  0.1218  1.1986  0.3037
 1367TIP3    H225593   6.418   3.443   6.569 -1.5624 -1.0256 -1.1208
 1368TIP3   OH225594   5.618   5.209   4.798  0.1095 -0.0740  0.3156
 1368TIP3    H125595   5.638   5.302   4.785 -2.2177  0.6316  1.2806
 1368TIP3    H225596   5.542   5.193   4.743  0.3847 -1.3979  0.2900
 1369TIP3   OH225597   4.563   1.700  11.370 -0.2454  0.5712  0.1984
 1369TIP3    H125598   4.585   1.721  11.279  0.2538 -1.3035 -0.1495
 1369TIP3    H225599   4.472   1.671  11.366 -0.1143  0.1402  0.2126
 1370TIP3   OH225600   2.874   2.837   2.192 -0.1121  0.0923  0.1306
 1370TIP3    H125601   2.863   2.771   2.124  0.2443 -1.2072  1.2793
 1370TIP3    H225602   2.966   2.864   2.185  0.0492 -0.3758  0.3634
 1371TIP3   OH225603   1.786   5.031   4.264 -0.3173  0.1995  0.2449
 1371TIP3    H125604   1.861   4.976   4.243 -0.5285  0.4636 -1.3330
 1371TIP3    H225605   1.822   5.098   4.322  1.9041  3.0524 -3.9019
 1372TIP3   OH225606   3.520   3.863   2.611 -0.0762  0.3518 -0.0833
 1372TIP3    H125607   3.432   3.826   2.609  0.6136 -1.5327  1.2688
 1372TIP3    H225608   3.514   3.938   2.671 -0.7264  0.1401  0.1185
 1373TIP3   OH225609   4.249   2.576  16.500 -0.1981  0.2834  0.2823
 1373TIP3    H125610   4.339   2.549  16.480 -0.3061 -0.3950  0.6587
 1373TIP3    H225611   4.195   2.502  16.471 -0.6600  0.7626 -0.1156
 1374TIP3   OH225612   6.065   2.456  12.480  0.1649  0.5084 -0.1826
 1374TIP3    H125613   6.101   2.514  12.547 -1.2196  2.2802 -0.9184
 1374TIP3    H225614   6.142   2.420  12.436  1.1267 -0.5115  2.1159
 1375TIP3   OH225615   5.832   0.839   3.047 -0.1019 -0.7232  0.0081
 1375TIP3    H125616   5.912   0.851   3.097  0.3292  1.8586 -1.1087
 1375TIP3    H225617   5.859   0.788   2.971 -0.0351 -1.7701  0.7184
 1376TIP3   OH225618   2.476   4.824  16.514 -0.1420  0.4045 -0.6883
 1376TIP3    H125619   2.437   4.846  16.599  1.1732 -0.7073  0.2406
 1376TIP3    H225620   2.415   4.861  16.450 -1.9135  0.0353  0.7034
 1377TIP3   OH225621   0.527   4.479   4.869  0.2579 -0.3485 -0.2509
 1377TIP3    H125622   0.463   4.442   4.808  0.4154  0.4751 -0.9289
 1377TIP3    H225623   0.560   4.403   4.918  0.0621 -1.0097 -1.1185
 1378TIP3   OH225624   6.226   4.504  15.744 -0.2635  0.7123  0.4685
 1378TIP3    H125625   6.173   4.435  15.704  2.4458 -1.1163 -0.2479
 1378TIP3    H225626   6.269   4.548  15.671  0.3926  1.1129  1.0793
 1379TIP3   OH225627   6.335   5.810  13.299 -0.3361  0.2102  0.3329
 1379TIP3    H125628   6.359   5.730  13.345 -0.0730 -0.7661 -1.4407
 1379TIP3    H225629   6.372   5.880  13.353 -1.0731 -0.7851  2.2273
 1380TIP3   OH225630   1.238   3.253  12.076 -0.7233 -0.1223 -0.0616
 1380TIP3    H125631   1.260   3.342  12.049  0.9955 -0.3515  0.4716
 1380TIP3    H225632   1.209   3.211  11.995 -0.2091  0.5384 -0.6082
 1381TIP3   OH225633   0.216   1.247  15.443  0.4384  0.4040  0.2303
 1381TIP3    H125634   0.298   1.261  15.395 -0.6364 -0.4331 -1.9588
 1381TIP3    H225635   0.198   1.153  15.434 -1.2582  0.7393 -0.1772
 1382TIP3   OH225636   1.053   1.101  13.639  0.3920  0.6536 -0.5941
 1382TIP3    H125637   1.069   1.184  13.593  2.6152  1.7588  1.9166
 1382TIP3    H225638   1.136   1.081  13.682 -1.3510 -0.5189  2.5208
 1383TIP3   OH225639   5.078   0.758  15.153 -0.5536  0.1786 -0.1954
 1383TIP3    H125640   5.111   0.847  15.161 -0.0226 -0.1403  1.6634
 1383TIP3    H225641   4.984   0.765  15.171 -0.3644  0.2661  0.7948
 1384TIP3   OH225642   6.846   5.498  17.052 -0.5168 -0.5098  0.2284
 1384TIP3    H125643   6.919   5.508  16.991 -1.0212  0.8400 -0.1761
 1384TIP3    H225644   6.887   5.492  17.138  0.1273 -1.0519 -0.1046
 1385TIP3   OH225645   4.018   4.196   2.800  0.1622  0.0698 -0.2805
 1385TIP3    H125646   4.049   4.234   2.718  0.0998 -1.0687 -0.8521
 1385TIP3    H225647   4.098   4.174   2.848  0.1993  0.9467  0.0828
 1386TIP3   OH225648   2.505   6.193  12.967 -0.1439  0.3723 -0.1884
 1386TIP3    H125649   2.430   6.214  12.911  1.1197  0.7627 -1.7787
 1386TIP3    H225650   2.559   6.271  12.966  0.5413 -0.0790  0.5505
 1387TIP3   OH225651   3.039   6.853   5.596  0.6157 -0.4622 -0.3186
 1387TIP3    H125652   3.058   6.945   5.614  0.3807 -0.0649 -1.9381
 1387TIP3    H225653   2.982   6.826   5.668 -1.8804  1.5580 -1.3642
 1388TIP3   OH225654   3.739   4.727   3.065  0.2605 -0.1879 -0.0577
 1388TIP3    H125655   3.731   4.677   3.146 -2.5855 -0.4375 -0.3765
 1388TIP3    H225656   3.733   4.661   2.996 -0.3926  0.2725 -0.4596
 1389TIP3   OH225657   2.527   1.675   1.709  0.1184 -0.2191  0.2492
 1389TIP3    H125658   2.607   1.687   1.761 -0.9413 -0.4952  2.0055
 1389TIP3    H225659   2.501   1.584   1.725 -0.7743 -0.0109  0.0272
 1390TIP3   OH225660   5.848   3.312  13.362 -0.3270  0.4767  0.6155
 1390TIP3    H125661   5.774   3.372  13.373 -0.5795 -0.0457  1.9796
 1390TIP3    H225662   5.878   3.294  13.451  0.1774 -0.8807  0.2016
 1391TIP3   OH225663   3.885   1.454   0.952 -0.3592  0.7259  0.5145
 1391TIP3    H125664   3.882   1.464   1.047  0.9600  1.4549  0.4932
 1391TIP3    H225665   3.922   1.366   0.939 -1.2185  0.3273  0.6545
 1392TIP3   OH225666   3.653   2.020  15.562  0.0814 -0.2336  0.2200
 1392TIP3    H125667   3.598   1.975  15.625 -2.4108  0.9681 -0.9591
 1392TIP3    H225668   3.641   2.113  15.581  2.2747  0.0846  0.3300
 1393TIP3   OH225669   1.733   0.760   1.057  0.4807 -0.1027  0.1372
 1393TIP3    H125670   1.695   0.699   0.993 -0.0437 -0.2539  0.5851
 1393TIP3    H225671   1.711   0.847   1.024 -1.0644 -0.1921  0.8546
 1394TIP3   OH225672   5.272   0.163  12.937 -0.1499  0.6875 -0.7481
 1394TIP3    H125673   5.200   0.106  12.962 -0.1314  1.6199  1.6328
 1394TIP3    H225674   5.269   0.164  12.841 -2.8799  0.1971 -0.7466
 1395TIP3   OH225675   3.766   3.358   1.591  0.4679  0.3222  0.0214
 1395TIP3    H125676   3.703   3.328   1.656  1.1989 -0.5342  0.3560
 1395TIP3    H225677   3.783   3.450   1.615 -0.5253  0.5190  0.0082
 1396TIP3   OH225678   2.442   6.236   0.645  0.7511  0.2788 -0.9163
 1396TIP3    H125679   2.477   6.150   0.621  0.9981 -0.1492  0.8555
 1396TIP3    H225680   2.351   6.219   0.670  1.7210 -0.2322  2.9582
 1397TIP3   OH225681   2.775   3.261  11.325  0.6297 -0.7860 -0.0278
 1397TIP3    H125682   2.754   3.203  11.398 -0.4153  0.8220  1.0174
 1397TIP3    H225683   2.704   3.325  11.324  2.1301  0.9627 -0.6135
 1398TIP3   OH225684   5.329   0.343   5.087 -0.0942 -0.3779  0.2660
 1398TIP3    H125685   5.377   0.424   5.071 -0.7488  0.1990  1.1679
 1398TIP3    H225686   5.238   0.364   5.066 -0.1975 -1.0181  0.0502
 1399TIP3   OH225687   1.907   3.384  16.865 -0.3075  0.0029  0.5008
 1399TIP3    H125688   1.915   3.291  16.846  1.4916 -0.2346  2.1274
 1399TIP3    H225689   1.903   3.426  16.779 -0.2180 -1.4971 -0.2646
 1400TIP3   OH225690   4.019   3.559   6.818  0.2960  0.4776  0.0367
 1400TIP3    H125691   4.001   3.647   6.786  0.0108  0.2380 -0.4768
 1400TIP3    H225692   4.099   3.568   6.870  0.4309  0.9847 -0.2537
 1401TIP3   OH225693   1.759   1.570   4.222  0.2347  0.3749  0.1990
 1401TIP3    H125694   1.766   1.531   4.135  0.5845  0.0677  0.3590
 1401TIP3    H225695   1.847   1.563   4.258 -0.1799 -0.6937  1.0782
 1402TIP3   OH225696   1.279   3.254   5.052  0.3747  0.2646 -0.0805
 1402TIP3    H125697   1.211   3.240   4.987 -0.3033  2.6854  0.0190
 1402TIP3    H225698   1.275   3.177   5.108 -3.5395  1.0273  0.9706
 1403TIP3   OH225699   1.089   3.641  12.312 -0.4579  0.5073  0.2693
 1403TIP3    H125700   1.157   3.591  12.358 -0.8634  0.3723  0.7273
 1403TIP3    H225701   1.130   3.727  12.296  0.3029 -0.0178 -0.6884
 1404TIP3   OH225702   1.553   2.561   6.255 -0.4383  0.2410 -0.0495
 1404TIP3    H125703   1.559   2.536   6.348  0.8059 -0.7494 -0.3644
 1404TIP3    H225704   1.459   2.564   6.238 -0.7187 -2.0089  0.6528
 1405TIP3   OH225705   5.915   2.046   6.091 -0.2790  0.3949 -0.3689
 1405TIP3    H125706   5.868   2.021   6.012 -1.0311 -0.0246  0.1982
 1405TIP3    H225707   5.861   2.014   6.163  0.6290  0.3370  0.3145
 1406TIP3   OH225708   4.112   5.885   3.943 -0.2552  0.5780  0.0987
 1406TIP3    H125709   4.140   5.890   3.851  0.0414 -0.8082  0.0970
 1406TIP3    H225710   4.166   5.951   3.987  1.0704 -0.1344 -0.3892
 1407TIP3   OH225711   4.817   3.517  12.744  0.1407 -0.2959  0.3417
 1407TIP3    H125712   4.769   3.480  12.671  0.2852  1.7907 -0.8866
 1407TIP3    H225713   4.755   3.575  12.787  0.4929 -0.4058  1.0120
 1408TIP3   OH225714   1.241   6.588   4.746  0.1201  0.5754  0.2032
 1408TIP3    H125715   1.319   6.639   4.721  0.4808 -0.1968 -0.2805
 1408TIP3    H225716   1.275   6.519   4.802 -0.2769  0.4799  0.3277
 1409TIP3   OH225717   5.569   1.737   2.407  0.0032 -0.5107 -0.3234
 1409TIP3    H125718   5.580   1.722   2.501 -1.4216  0.9621  0.1106
 1409TIP3    H225719   5.654   1.713   2.370  0.2491 -2.2094  1.1646
 1410TIP3   OH225720   2.221   3.069   5.145 -0.2029 -0.4891 -0.7290
 1410TIP3    H125721   2.144   3.012   5.143 -0.5723 -0.0579  0.4967
 1410TIP3    H225722   2.289   3.018   5.102 -1.0258 -1.0966 -1.3510
 1411TIP3   OH225723   4.890   5.909   0.318  0.1411 -0.0215  0.0119
 1411TIP3    H125724   4.958   5.843   0.306  0.8068  0.2087  2.1321
 1411TIP3    H225725   4.834   5.900   0.241  1.0902 -1.9854 -0.5129
 1412TIP3   OH225726   0.895   2.139  16.959  0.0787 -0.0589 -0.7629
 1412TIP3    H125727   0.807   2.176  16.968 -0.0085 -0.0372 -1.6045
 1412TIP3    H225728   0.886   2.047  16.984 -0.0453  0.1056 -0.2075
 1413TIP3   OH225729   1.347   6.070   2.741  0.1308  0.3885 -0.1095
 1413TIP3    H125730   1.295   6.007   2.692  0.9043 -1.6720  1.5513
 1413TIP3    H225731   1.395   6.118   2.675 -0.0264 -1.2038 -1.4525
 1414TIP3   OH225732   3.069   5.745   4.334 -0.3896  0.0754  0.1809
 1414TIP3    H125733   2.978   5.742   4.362 -0.3735 -1.0811  0.1244
 1414TIP3    H225734   3.115   5.790   4.405 -0.9925  0.6538  0.2136
 1415TIP3   OH225735   4.226   5.850  16.739  0.4212  0.4637  0.3463
 1415TIP3    H125736   4.229   5.945  16.734 -0.2198  0.4649 -0.1554
 1415TIP3    H225737   4.290   5.827  16.807  2.0207  1.1299 -0.8633
 1416TIP3   OH225738   6.270   5.518   3.051  0.1542 -0.0859  0.3143
 1416TIP3    H125739   6.344   5.555   3.099  0.4907  0.4394 -0.5745
 1416TIP3    H225740   6.309   5.448   2.998  0.3775  1.3513 -1.5132
 1417TIP3   OH225741   2.483   1.805   2.363 -0.4154  0.0463  0.5599
 1417TIP3    H125742   2.408   1.793   2.421 -0.3820  2.2168  1.1184
 1417TIP3    H225743   2.453   1.868   2.298  0.3797 -0.4187 -0.2818
 1418TIP3   OH225744   0.548   4.440   1.547 -0.1947 -0.4747  0.2946
 1418TIP3    H125745   0.498   4.458   1.627  1.0058 -0.3410  1.0395
 1418TIP3    H225746   0.581   4.526   1.520  0.0708 -0.6381  0.1050
 1419TIP3   OH225747   2.711   0.624   5.933 -0.0797 -0.1760 -0.2530
 1419TIP3    H125748   2.780   0.651   5.872 -0.7989  0.5529 -0.7700
 1419TIP3    H225749   2.746   0.643   6.020  0.4160  0.0675 -0.5034
 1420TIP3   OH225750   3.806   0.688  15.359  0.0354 -0.1971  0.3967
 1420TIP3    H125751   3.852   0.626  15.302 -0.8883  0.3610 -1.0058
 1420TIP3    H225752   3.752   0.633  15.416 -0.0562 -0.7190 -0.1888
 1421TIP3   OH225753   1.036   4.787   2.921 -0.0390 -0.2915  0.1591
 1421TIP3    H125754   0.964   4.834   2.962 -0.5881 -1.2238  0.2920
 1421TIP3    H225755   1.098   4.770   2.991 -0.2281 -0.4863  0.2795
 1422TIP3   OH225756   0.323   2.986  13.718 -0.5697 -0.2659 -0.2934
 1422TIP3    H125757   0.413   3.019  13.726 -0.4865 -0.9019  2.9075
 1422TIP3    H225758   0.333   2.893  13.698 -0.3922 -0.6141  1.2457
 1423TIP3   OH225759   1.753   4.912  11.604  0.0500  0.2602  0.5670
 1423TIP3    H125760   1.819   4.861  11.558  0.4125  0.6787  0.6125
 1423TIP3    H225761   1.750   4.874  11.691 -1.1491 -1.0026  0.0096
 1424TIP3   OH225762   2.599   1.037  14.253  0.3752  0.0234 -0.1331
 1424TIP3    H125763   2.671   1.071  14.200  2.1042 -2.6431  0.3315
 1424TIP3    H225764   2.560   0.969  14.198 -0.8063  0.3562  0.2654
 1425TIP3   OH225765   1.681   5.102   3.026 -0.3178 -0.0742  0.8497
 1425TIP3    H125766   1.714   5.151   2.951 -1.5260 -1.3879 -0.6071
 1425TIP3    H225767   1.752   5.042   3.048 -0.8908 -1.5412 -1.0187
 1426TIP3   OH225768   4.730   0.634   1.187  0.0189 -0.3338 -0.4838
 1426TIP3    H125769   4.802   0.571   1.183  0.2193 -0.0722 -1.1724
 1426TIP3    H225770   4.683   0.611   1.267  0.2972 -1.1269 -0.5370
 1427TIP3   OH225771   1.367   6.671  14.878 -0.0547 -0.1068  0.1842
 1427TIP3    H125772   1.414   6.702  14.955 -1.2170 -5.2258  3.4534
 1427TIP3    H225773   1.283   6.717  14.879  1.2108  2.4050 -0.3050
 1428TIP3   OH225774   5.722   1.917   3.404 -0.5359  0.2239  0.4786
 1428TIP3    H125775   5.635   1.894   3.436 -1.9154  1.0969 -2.2906
 1428TIP3    H225776   5.743   2.000   3.447 -1.7405  0.7103  0.1607
 1429TIP3   OH225777   2.750   2.731   4.001  0.2231 -0.0852 -0.7406
 1429TIP3    H125778   2.842   2.734   3.975  0.9303 -0.1079  1.5675
 1429TIP3    H225779   2.723   2.641   3.984  1.5104 -0.9035  1.2030
 1430TIP3   OH225780   4.973   0.351   3.705 -0.1160  0.0488 -0.9216
 1430TIP3    H125781   4.929   0.267   3.722 -0.6213  0.3072 -0.9349
 1430TIP3    H225782   5.024   0.335   3.626  1.4045 -0.8435  0.1927
 1431TIP3   OH225783   3.480   2.404   0.337 -0.2415  0.5347 -0.0525
 1431TIP3    H125784   3.487   2.445   0.250  3.3477  1.1599  0.3459
 1431TIP3    H225785   3.451   2.475   0.394 -1.7395  0.3616 -0.5714
 1432TIP3   OH225786   6.385   2.480  10.958 -0.6616  0.0374  0.2815
 1432TIP3    H125787   6.413   2.492  11.048  1.0515 -0.6630 -0.1185
 1432TIP3    H225788   6.395   2.386  10.941 -1.0304  0.1402 -0.6212
 1433TIP3   OH225789   0.528   1.851  14.749 -0.0335  0.1181 -0.3071
 1433TIP3    H125790   0.623   1.844  14.741 -0.0110  0.0302  0.0324
 1433TIP3    H225791   0.496   1.846  14.659  0.1877 -1.2486 -0.3412
 1434TIP3   OH225792   2.475   3.975  15.422  0.0698 -0.3105  0.2039
 1434TIP3    H125793   2.383   3.956  15.441  0.0088 -0.5227 -0.3093
 1434TIP3    H225794   2.522   3.938  15.497 -0.1894 -1.0019  0.0367
 1435TIP3   OH225795   6.329   4.340   0.733  0.4172 -0.0089  0.1647
 1435TIP3    H125796   6.257   4.289   0.771 -0.6564  0.6640 -0.8958
 1435TIP3    H225797   6.403   4.279   0.731 -0.7739 -1.4950 -0.8893
 1436TIP3   OH225798   2.762   1.903  14.351  0.1176  0.3034 -0.4929
 1436TIP3    H125799   2.838   1.886  14.296  0.7265 -0.5421  0.5703
 1436TIP3    H225800   2.695   1.842  14.319 -0.2635  1.3179 -1.6826
 1437TIP3   OH225801   5.890   4.853   5.109  0.6565  0.2585  0.7963
 1437TIP3    H125802   5.913   4.796   5.183 -0.7134 -2.5280 -0.7550
 1437TIP3    H225803   5.802   4.884   5.129  0.2980 -0.4704  0.3837
 1438TIP3   OH225804   4.164   5.991  13.160  0.1314 -0.6769 -0.5065
 1438TIP3    H125805   4.247   5.962  13.121  0.6006  1.5592 -1.2871
 1438TIP3    H225806   4.187   6.018  13.249 -0.0051 -1.1329 -0.3269
 1439TIP3   OH225807   3.926   3.148   3.191  0.0610 -0.0403  0.0084
 1439TIP3    H125808   4.000   3.186   3.237  0.1639 -1.9717  1.5364
 1439TIP3    H225809   3.924   3.056   3.218 -0.5778 -1.0482 -2.9792
 1440TIP3   OH225810   4.795   6.752  16.877  0.0676  0.0240 -0.1752
 1440TIP3    H125811   4.836   6.833  16.908 -1.1872  1.3781 -1.8627
 1440TIP3    H225812   4.709   6.751  16.918 -0.2178 -0.0257 -0.7585
 1441TIP3   OH225813   4.986   2.515  10.912  0.1108 -0.2093 -0.1952
 1441TIP3    H125814   4.909   2.508  10.969  0.1464 -0.7048 -0.1990
 1441TIP3    H225815   4.953   2.495  10.825  0.7149 -3.3157  0.1640
 1442TIP3   OH225816   3.014   2.500  13.704 -0.1460  0.2970  0.0549
 1442TIP3    H125817   2.987   2.432  13.765 -1.4749  0.4198 -0.3599
 1442TIP3    H225818   2.959   2.576  13.727 -0.8338  0.2740 -1.3934
 1443TIP3   OH225819   0.169   0.226  16.223  0.4841 -0.5914 -1.0208
 1443TIP3    H125820   0.164   0.164  16.296  0.5179  0.9584  0.3511
 1443TIP3    H225821   0.110   0.190  16.156 -0.6423 -1.3359  0.3325
 1444TIP3   OH225822   2.500   5.214   0.724 -0.3015  0.1728 -0.1744
 1444TIP3    H125823   2.525   5.122   0.724 -0.3495  0.1456 -1.3929
 1444TIP3    H225824   2.500   5.239   0.817 -1.5255 -1.3750  0.2839
 1445TIP3   OH225825   6.213   2.971  11.718  0.0411 -0.0410  0.2128
 1445TIP3    H125826   6.212   2.878  11.695  0.1694 -0.2751  1.1322
 1445TIP3    H225827   6.122   2.990  11.743 -0.6211  0.7394 -2.4262
 1446TIP3   OH225828   1.880   3.666   4.149  0.2436  0.1515 -0.3689
 1446TIP3    H125829   1.923   3.620   4.077  2.1449  0.0247  0.7865
 1446TIP3    H225830   1.943   3.732   4.177  0.2967 -0.8579  2.2151
 1447TIP3   OH225831   2.430   6.741  15.951 -0.1509 -0.0278 -0.5526
 1447TIP3    H125832   2.507   6.722  15.897 -1.8620  0.0265 -3.2134
 1447TIP3    H225833   2.455   6.819  16.001  2.6807 -1.9757  1.3960
 1448TIP3   OH225834   1.199   1.315  12.521 -0.3960  0.2356  0.3795
 1448TIP3    H125835   1.277   1.361  12.492  0.5721 -0.8904  1.1020
 1448TIP3    H225836   1.231   1.230  12.552 -1.9338 -0.3561  0.4595
 1449TIP3   OH225837   1.934   2.327   4.070 -0.2411 -0.8054  0.2373
 1449TIP3    H125838   1.984   2.387   4.125  0.2942  0.9201 -1.9899
 1449TIP3    H225839   1.959   2.349   3.980 -4.8705  0.1441 -1.0787
 1450TIP3   OH225840   6.552   0.594  13.192  0.1999  0.4392 -0.1313
 1450TIP3    H125841   6.477   0.635  13.148  0.2777  1.0779  0.3260
 1450TIP3    H225842   6.567   0.648  13.269  0.2783 -0.4830  0.5116
 1451TIP3   OH225843   3.215   6.398  13.542  0.6229  0.6101 -0.2593
 1451TIP3    H125844   3.184   6.308  13.536 -0.4322  0.8230  1.3397
 1451TIP3    H225845   3.308   6.393  13.520  0.2802 -0.6299 -1.5680
 1452TIP3   OH225846   2.730   0.660   4.133  0.6907 -0.2550 -0.1637
 1452TIP3    H125847   2.755   0.570   4.114 -1.1764 -0.7734 -0.3835
 1452TIP3    H225848   2.719   0.663   4.228 -0.0773 -0.5251 -0.2321
 1453TIP3   OH225849   0.703   6.309   1.734 -0.3852 -0.5587 -0.3825
 1453TIP3    H125850   0.612   6.337   1.720 -0.9466 -1.4926  1.1537
 1453TIP3    H225851   0.727   6.264   1.653 -1.4976 -0.7950 -0.6044
 1454TIP3   OH225852   6.134   1.331  12.481 -0.1606  0.3442  0.6467
 1454TIP3    H125853   6.048   1.330  12.438 -0.0232 -0.6953  0.3665
 1454TIP3    H225854   6.190   1.380  12.422 -0.9658  2.7323  1.7184
 1455TIP3   OH225855   6.521   0.318  13.281  0.0412  0.4455 -0.1931
 1455TIP3    H125856   6.595   0.286  13.228  1.4118  1.8405  0.8109
 1455TIP3    H225857   6.521   0.412  13.268 -0.5591  0.6425  1.0788
 1456TIP3   OH225858   6.113   2.232  12.003 -0.1091 -1.0320 -0.2297
 1456TIP3    H125859   6.075   2.167  11.944 -0.5572 -1.7621  0.8331
 1456TIP3    H225860   6.150   2.181  12.075 -1.8996 -0.1112  1.4586
 1457TIP3   OH225861   5.776   2.164   5.011  0.2299 -0.0385 -0.1842
 1457TIP3    H125862   5.750   2.110   4.936 -0.7804 -0.0200  0.1345
 1457TIP3    H225863   5.753   2.253   4.986 -0.3894 -0.0690  0.2621
 1458TIP3   OH225864   6.721   5.352   0.447 -0.1384  0.1737 -0.6727
 1458TIP3    H125865   6.775   5.414   0.495 -0.5657  1.5962 -1.9319
 1458TIP3    H225866   6.636   5.395   0.439 -0.3851 -0.4691 -1.7641
 1459TIP3   OH225867   3.331   0.029   5.678 -0.0613  0.5232  0.2472
 1459TIP3    H125868   3.333   0.119   5.646 -0.4982  0.9860  1.4375
 1459TIP3    H225869   3.242  -0.000   5.659 -0.5479  1.0426  1.6041
 1460TIP3   OH225870   1.414   2.893   3.488  0.5127 -1.1252 -0.3320
 1460TIP3    H125871   1.392   2.819   3.431 -2.5870  0.0932 -0.9433
 1460TIP3    H225872   1.336   2.904   3.543  2.1348 -0.2251  1.9191
 1461TIP3   OH225873   2.732   5.838   2.052 -0.0371 -0.0835  0.3889
 1461TIP3    H125874   2.806   5.898   2.066 -0.2515  0.3797 -0.3566
 1461TIP3    H225875   2.772   5.759   2.014 -0.0474  0.7604 -1.5353
 1462TIP3   OH225876   4.822   1.857   0.128 -0.5862 -0.1742 -0.5887
 1462TIP3    H125877   4.876   1.906   0.067 -0.4918 -1.1225 -1.2857
 1462TIP3    H225878   4.734   1.859   0.090 -0.8871  0.6419  0.1094
 1463TIP3   OH225879   3.210   1.441   5.834 -0.3125 -0.0992 -0.2971
 1463TIP3    H125880   3.256   1.418   5.914 -0.1223 -0.6395 -0.5554
 1463TIP3    H225881   3.253   1.521   5.804 -0.2026 -0.0483 -0.0084
 1464TIP3   OH225882   2.705   2.693  14.791 -0.1365  0.4490  0.0016
 1464TIP3    H125883   2.679   2.777  14.829  0.8693  1.5586 -1.6493
 1464TIP3    H225884   2.724   2.712  14.700  0.3505 -1.5485 -0.3710
 1465TIP3   OH225885   5.225   3.144   4.612  0.4072 -0.8060  0.0412
 1465TIP3    H125886   5.316   3.114   4.614  0.1101 -2.0118 -1.7752
 1465TIP3    H225887   5.182   3.084   4.552 -1.1401  0.9684 -0.7260
 1466TIP3   OH225888   1.339   0.839   0.671 -0.1805  0.2641  0.9418
 1466TIP3    H125889   1.291   0.897   0.612 -0.7815  0.0489  1.2178
 1466TIP3    H225890   1.274   0.808   0.733 -0.1415 -1.6716  0.0693
 1467TIP3   OH225891   4.367   2.978  15.249  0.5908  0.2135  0.5173
 1467TIP3    H125892   4.427   2.932  15.308  1.7052  1.2096  0.1902
 1467TIP3    H225893   4.356   2.918  15.175  1.0463 -0.0464  0.6551
 1468TIP3   OH225894   6.351   0.444   1.246 -0.2178 -1.2451  0.0919
 1468TIP3    H125895   6.409   0.432   1.171 -1.0105 -2.2157 -0.3891
 1468TIP3    H225896   6.408   0.471   1.317  0.8437 -2.3133 -0.3323
 1469TIP3   OH225897   4.994   4.738   3.207  0.2321  0.0255  0.0059
 1469TIP3    H125898   5.014   4.829   3.187  0.5348 -0.1331 -0.3990
 1469TIP3    H225899   5.030   4.688   3.134  0.3837 -0.4506  0.4025
 1470TIP3   OH225900   5.364   4.535  15.078  0.1537 -0.4978 -0.0341
 1470TIP3    H125901   5.315   4.602  15.030  1.0683  0.7413  0.6950
 1470TIP3    H225902   5.455   4.552  15.056  0.6683  0.5376  2.5934
 1471TIP3   OH225903   4.551   1.834  15.533  0.3650  0.3577  0.0308
 1471TIP3    H125904   4.545   1.904  15.598 -0.8430  1.6026 -1.3407
 1471TIP3    H225905   4.485   1.857  15.467  2.1501 -0.3231 -2.1211
 1472TIP3   OH225906   1.107   4.645  12.893  0.4133  0.6931  0.2309
 1472TIP3    H125907   1.154   4.726  12.915  1.4177  0.0348  0.6144
 1472TIP3    H225908   1.114   4.592  12.972  0.8631 -0.2565 -0.4303
 1473TIP3   OH225909   0.412   1.187  14.501  0.2096 -0.4451  0.0072
 1473TIP3    H125910   0.502   1.201  14.471  0.1030 -2.0220 -1.1417
 1473TIP3    H225911   0.421   1.164  14.593  1.3812 -3.9952 -0.8389
 1474TIP3   OH225912   0.179   0.127   5.458 -0.2189 -0.4556  0.1536
 1474TIP3    H125913   0.163   0.176   5.538  0.3659 -2.1690  1.3581
 1474TIP3    H225914   0.094   0.087   5.437 -0.8072  1.2786 -1.0593
 1475TIP3   OH225915   5.284   4.839   4.815 -0.0795 -0.1453 -0.0130
 1475TIP3    H125916   5.352   4.883   4.763  0.3460  1.6577  1.9269
 1475TIP3    H225917   5.315   4.750   4.826  0.5245 -0.1554 -1.5716
 1476TIP3   OH225918   6.049   5.566  11.620 -1.1702 -0.0166  0.2584
 1476TIP3    H125919   6.033   5.525  11.535 -0.9309  0.4627 -0.0227
 1476TIP3    H225920   6.043   5.660  11.603 -0.4201  0.1082  0.6146
 1477TIP3   OH225921   0.143   6.811   1.052 -0.0643 -0.2084 -0.3639
 1477TIP3    H125922   0.064   6.833   1.003  0.4266 -0.4497 -1.2945
 1477TIP3    H225923   0.138   6.864   1.132 -1.3011 -0.4454 -0.2632
 1478TIP3   OH225924   2.562   0.120  12.620 -0.0593  0.4286  0.0564
 1478TIP3    H125925   2.645   0.167  12.627  0.7470 -0.9964  0.4427
 1478TIP3    H225926   2.587   0.029  12.604 -1.5239 -0.2022  1.1204
 1479TIP3   OH225927   5.502   1.311   2.565 -0.0924 -0.0054 -0.0645
 1479TIP3    H125928   5.518   1.292   2.472 -0.2450  0.1172 -0.1164
 1479TIP3    H225929   5.413   1.347   2.567 -0.0379  0.1182  0.1139
 1480TIP3   OH225930   6.455   3.021  11.497  0.8458  0.3501  0.0694
 1480TIP3    H125931   6.403   2.941  11.503  0.5870  0.5718  0.8512
 1480TIP3    H225932   6.546   2.991  11.497  0.7406  0.0230 -0.2906
 1481TIP3   OH225933   6.516   2.190  12.070 -0.6217  0.1455 -0.3441
 1481TIP3    H125934   6.571   2.193  11.992  1.2256 -1.1756  0.8213
 1481TIP3    H225935   6.483   2.100  12.073 -0.6279  0.1650  0.4048
 1482TIP3   OH225936   4.927   2.787   3.308 -0.4634  0.1753 -0.0863
 1482TIP3    H125937   4.970   2.869   3.336 -0.8900  0.1316  0.7460
 1482TIP3    H225938   4.834   2.804   3.320 -0.4907 -0.9752  1.7210
 1483TIP3   OH225939   3.196   3.282   3.053 -0.0258 -0.2489 -0.3669
 1483TIP3    H125940   3.203   3.204   2.998  2.4863  0.4708 -1.2197
 1483TIP3    H225941   3.285   3.318   3.055 -0.6956  1.5050  1.6332
 1484TIP3   OH225942   6.155   2.077   5.515  0.2024  0.1310 -0.2997
 1484TIP3    H125943   6.218   2.149   5.521  0.4526 -0.1051 -0.0372
 1484TIP3    H225944   6.203   2.007   5.469 -0.5734  0.7020 -2.0220
 1485TIP3   OH225945   5.665   4.442   5.008  0.9395  0.1441  0.3323
 1485TIP3    H125946   5.658   4.514   5.072  0.3593 -0.1604  0.6263
 1485TIP3    H225947   5.579   4.399   5.013  1.6018 -1.1631  0.8796
 1486TIP3   OH225948   1.399   0.704   4.532 -0.5168  0.6293 -0.6146
 1486TIP3    H125949   1.310   0.675   4.510 -0.5483 -0.8757  1.2281
 1486TIP3    H225950   1.389   0.755   4.612  0.3546 -0.3611  0.1491
 1487TIP3   OH225951   0.483   4.062  11.675 -0.6889  0.2529  0.3682
 1487TIP3    H125952   0.540   4.104  11.611  0.0631  0.5768  1.2342
 1487TIP3    H225953   0.396   4.068  11.636 -0.1903  0.0244 -0.8327
 1488TIP3   OH225954   2.081   1.531   5.084  0.0049  0.1195  0.1307
 1488TIP3    H125955   1.986   1.524   5.093 -0.0008 -2.9770 -1.1470
 1488TIP3    H225956   2.093   1.589   5.009 -0.8523  0.6125  0.3573
 1489TIP3   OH225957   1.183   4.871  16.022 -0.0517 -0.0794 -0.4289
 1489TIP3    H125958   1.168   4.966  16.017  1.2717  0.2018  0.4241
 1489TIP3    H225959   1.278   4.861  16.015 -0.1509 -1.3168 -0.1862
 1490TIP3   OH225960   4.174   0.333   4.125  0.0906 -0.4608 -0.3607
 1490TIP3    H125961   4.211   0.325   4.037  0.2007 -1.7838 -0.2131
 1490TIP3    H225962   4.250   0.341   4.182  0.0089  0.7176 -0.4049
 1491TIP3   OH225963   5.181   0.785   4.046  0.2747  0.0368  0.2154
 1491TIP3    H125964   5.191   0.733   3.966  0.8777  1.4646 -0.6973
 1491TIP3    H225965   5.256   0.845   4.044  0.4935 -0.1433  2.0586
 1492TIP3   OH225966   5.337   1.936  16.317 -0.3223 -0.0234  0.5143
 1492TIP3    H125967   5.373   1.910  16.232  2.2079  0.6712  1.2956
 1492TIP3    H225968   5.350   1.859  16.373 -1.6681 -0.3528  0.4292
 1493TIP3   OH225969   6.745   0.961  10.909 -0.4621 -0.5422 -0.5767
 1493TIP3    H125970   6.741   1.046  10.953 -1.1461  0.4037 -2.3706
 1493TIP3    H225971   6.765   0.982  10.818 -0.6543 -2.3188 -1.0674
 1494TIP3   OH225972   4.605   6.060  11.861  0.3570  0.4475  0.4439
 1494TIP3    H125973   4.580   6.146  11.828  1.2331  0.8684  0.8534
 1494TIP3    H225974   4.527   6.006  11.849 -0.2273  1.3180  0.2721
 1495TIP3   OH225975   4.522   3.940   1.405  0.2969 -0.1914 -0.1888
 1495TIP3    H125976   4.578   4.017   1.396 -0.7937  0.7047  0.3281
 1495TIP3    H225977   4.516   3.926   1.499 -1.2426  0.4580 -0.1571
 1496TIP3   OH225978   6.029   0.143   3.897  0.0880 -0.4336 -0.1235
 1496TIP3    H125979   6.072   0.218   3.937  1.2446 -1.0081 -0.2488
 1496TIP3    H225980   6.051   0.149   3.804 -2.1422  0.6030 -0.6653
 1497TIP3   OH225981   0.989   4.362   5.153  0.5881  0.2183  0.7076
 1497TIP3    H125982   0.966   4.439   5.102 -0.4507  0.6403  1.7868
 1497TIP3    H225983   0.908   4.311   5.159  1.4404 -1.4140 -0.6949
 1498TIP3   OH225984   0.019   2.273   2.334 -0.1129  0.0116 -0.5717
 1498TIP3    H125985   0.060   2.195   2.297 -1.3259 -1.1387  0.4038
 1498TIP3    H225986  -0.074   2.251   2.339 -0.1931  0.5429  1.9534
 1499TIP3   OH225987   3.263   4.013  11.652 -0.0491 -0.3387  0.4851
 1499TIP3    H125988   3.351   4.040  11.628 -0.3416  1.1562  0.9705
 1499TIP3    H225989   3.210   4.030  11.575 -0.2721  0.7352  0.8585
 1500TIP3   OH225990   2.564   5.398   5.010  0.1215  0.3949 -0.2026
 1500TIP3    H125991   2.538   5.312   4.975 -0.8091  0.5510  0.0755
 1500TIP3    H225992   2.565   5.387   5.105  0.4010  0.5864 -0.1813
 1501TIP3   OH225993   3.384   4.728   0.474 -0.5295 -0.1864  0.3244
 1501TIP3    H125994   3.454   4.725   0.539 -0.8581 -0.8823  0.6664
 1501TIP3    H225995   3.426   4.701   0.392 -0.5173 -1.2475  0.6612
 1502TIP3   OH225996   2.489   2.985  16.543 -0.2623  0.4463  0.1963
 1502TIP3    H125997   2.402   3.023  16.549  1.0778  3.9675 -0.6691
 1502TIP3    H225998   2.486   2.910  16.604 -3.4465  1.2098  1.1778
 1503TIP3   OH225999   6.380   0.539  12.205 -0.0479 -0.1070 -0.0672
 1503TIP3    H126000   6.430   0.589  12.270 -0.4770 -0.3435  0.4500
 1503TIP3    H226001   6.298   0.587  12.197 -2.1563 -2.7054  3.3214
 1504TIP3   OH226002   4.745   0.859  13.661 -0.3600  0.6260 -0.0165
 1504TIP3    H126003   4.674   0.912  13.697 -0.0077  2.0415 -1.3328
 1504TIP3    H226004   4.817   0.870  13.723 -0.8996  0.1088  0.7194
 1505TIP3   OH226005   1.246   2.167   2.548 -0.4353 -0.3039 -0.4275
 1505TIP3    H126006   1.164   2.192   2.591 -0.5339 -1.2527 -0.0598
 1505TIP3    H226007   1.297   2.123   2.615  0.3527  0.1908 -0.6816
 1506TIP3   OH226008   4.283   0.581  13.058 -0.2027  0.1453  0.4365
 1506TIP3    H126009   4.208   0.523  13.043 -0.4888  1.0300 -2.0787
 1506TIP3    H226010   4.244   0.661  13.095 -0.4760  0.4784 -0.5515
 1507TIP3   OH226011   4.938   4.886   4.409 -0.0621 -0.3465  0.7582
 1507TIP3    H126012   4.906   4.872   4.320  0.0223 -1.7612  0.9255
 1507TIP3    H226013   4.860   4.907   4.459 -0.2068 -0.2256  0.4862
 1508TIP3   OH226014   5.402   0.694  14.561 -0.5886  0.0872 -0.0961
 1508TIP3    H126015   5.461   0.743  14.504  0.7012 -0.9882  0.2728
 1508TIP3    H226016   5.447   0.691  14.645 -2.6630  2.0359  1.1877
 1509TIP3   OH226017   3.471   6.290  12.144  0.8102  0.0110  0.0270
 1509TIP3    H126018   3.469   6.265  12.052  0.4605  0.5892 -0.1287
 1509TIP3    H226019   3.532   6.363  12.148  1.4308 -0.5154  0.3924
 1510TIP3   OH226020   3.379   1.709  13.759  0.2427 -0.1625  0.4118
 1510TIP3    H126021   3.367   1.745  13.671 -1.0090  0.1470  0.6958
 1510TIP3    H226022   3.425   1.777  13.807 -1.0562  0.6010  0.6106
 1511TIP3   OH226023   1.377   2.838  12.045  0.4211  0.3561 -0.5517
 1511TIP3    H126024   1.435   2.896  12.096 -2.5774  2.5035  0.6809
 1511TIP3    H226025   1.308   2.895  12.012 -0.2561 -1.8086 -3.2937
 1512TIP3   OH226026   3.582   5.749  14.772 -0.2046  0.0635  0.1247
 1512TIP3    H126027   3.652   5.738  14.708 -0.4673 -0.3331 -0.0981
 1512TIP3    H226028   3.622   5.728  14.856 -0.3835 -1.4870 -0.1459
 1513TIP3   OH226029   6.771   2.072   0.605 -0.2664  0.1169  0.2993
 1513TIP3    H126030   6.686   2.035   0.585 -1.1356  1.9197  0.4860
 1513TIP3    H226031   6.794   2.124   0.528  0.8414 -0.6282  0.1058
 1514TIP3   OH226032   0.079   4.354  14.415  0.5708  0.0074  0.5963
 1514TIP3    H126033  -0.010   4.387  14.427  0.5720  0.1913  0.1129
 1514TIP3    H226034   0.071   4.286  14.349  0.6837 -0.4564  1.0582
 1515TIP3   OH226035   2.867   4.495  16.285  0.2669 -0.0997  0.3245
 1515TIP3    H126036   2.819   4.551  16.347 -2.9436 -0.8557 -1.2355
 1515TIP3    H226037   2.909   4.556  16.225 -5.1108  1.1852 -2.8388
 1516TIP3   OH226038   1.900   5.173  15.195 -0.8642  0.3264 -0.2313
 1516TIP3    H126039   1.943   5.243  15.145 -0.9860  0.1925 -0.5235
 1516TIP3    H226040   1.815   5.162  15.153 -1.1287  0.4857  0.2515
 1517TIP3   OH226041   5.013   1.446  11.853 -0.2687  0.1065 -0.3958
 1517TIP3    H126042   4.979   1.381  11.915 -2.4730  0.9873 -0.5986
 1517TIP3    H226043   5.074   1.498  11.905 -0.5944 -0.3904  0.5128
 1518TIP3   OH226044   4.812   2.139   1.781  0.0801 -0.0611  0.0453
 1518TIP3    H126045   4.821   2.234   1.778  1.6123 -0.1660  0.3686
 1518TIP3    H226046   4.850   2.109   1.699  2.1340 -0.5067  1.0876
 1519TIP3   OH226047   5.633   3.077  12.521  0.8230  0.6635  0.0799
 1519TIP3    H126048   5.680   3.152  12.485  0.5555  0.9916  0.4067
 1519TIP3    H226049   5.556   3.068  12.466  0.4980  1.0642  0.4584
 1520TIP3   OH226050   5.127   5.999  12.960 -0.1521 -0.5017 -0.0951
 1520TIP3    H126051   5.201   5.972  13.014  0.8768 -0.7546 -1.5757
 1520TIP3    H226052   5.161   6.068  12.904 -1.2850  0.0126 -0.1822
 1521TIP3   OH226053   2.251   4.528   1.269  0.1351 -0.2440  0.4008
 1521TIP3    H126054   2.247   4.569   1.183  0.1127  1.2345  1.0851
 1521TIP3    H226055   2.340   4.546   1.300  0.5446 -1.8106  0.2070
 1522TIP3   OH226056   0.468   4.493   2.725  0.2772  0.1255  0.9441
 1522TIP3    H126057   0.450   4.440   2.648 -1.0013 -0.1259  1.3938
 1522TIP3    H226058   0.469   4.430   2.798 -0.0250  0.5592  1.3280
 1523TIP3   OH226059   5.775   5.763  15.447 -0.6599 -0.2291  0.5309
 1523TIP3    H126060   5.704   5.817  15.482  0.0929  0.1723  1.4702
 1523TIP3    H226061   5.852   5.787  15.499  0.2990 -0.2502 -0.8356
 1524TIP3   OH226062   1.672   0.803   6.132  0.2010  0.3654 -0.3479
 1524TIP3    H126063   1.611   0.751   6.184  1.9404 -2.2165 -0.7161
 1524TIP3    H226064   1.738   0.833   6.195  0.5979 -0.1096 -0.5254
 1525TIP3   OH226065   0.043   3.258   3.850  0.0650  0.2959  0.0299
 1525TIP3    H126066  -0.011   3.251   3.772  0.0897  0.0746  0.0314
 1525TIP3    H226067   0.065   3.167   3.872 -1.0044  0.2712  1.0469
 1526TIP3   OH226068   3.844   1.738   0.312  1.0241  0.5145 -0.5000
 1526TIP3    H126069   3.845   1.743   0.407 -2.2272  2.1274 -0.3918
 1526TIP3    H226070   3.794   1.658   0.292  0.5695  0.8626 -0.7915
 1527TIP3   OH226071   5.494   5.420   4.136 -0.3037  0.2602 -0.1004
 1527TIP3    H126072   5.418   5.378   4.176 -0.1310  0.2517  0.2172
 1527TIP3    H226073   5.463   5.508   4.114 -0.1458  0.5751  0.8725
 1528TIP3   OH226074   0.625   4.456  12.157  0.0161  0.4859  0.5407
 1528TIP3    H126075   0.697   4.469  12.218 -0.4454 -0.6889  1.3637
 1528TIP3    H226076   0.549   4.438  12.212 -0.3189 -1.0578 -0.3594
 1529TIP3   OH226077   4.577   6.164  14.673  0.3517  0.2079  0.6310
 1529TIP3    H126078   4.498   6.111  14.661  1.2647 -0.9808 -0.3661
 1529TIP3    H226079   4.642   6.103  14.709  1.1942  0.8260  0.1893
 1530TIP3   OH226080   3.190   4.189  12.450  0.2269  0.4718  0.5682
 1530TIP3    H126081   3.180   4.112  12.393  2.7461 -0.9229  1.8730
 1530TIP3    H226082   3.277   4.222  12.431  0.9636  0.2534  3.2157
 1531TIP3   OH226083   5.889   5.642   3.688  0.2074  0.2662 -0.1375
 1531TIP3    H126084   5.938   5.603   3.615 -1.7216  1.0806 -1.9643
 1531TIP3    H226085   5.816   5.687   3.646 -1.1842  0.4846  2.3587
 1532TIP3   OH226086   6.843   6.719  15.777 -0.3118  0.3324  0.0816
 1532TIP3    H126087   6.866   6.646  15.719  0.6802 -1.7462  2.8739
 1532TIP3    H226088   6.927   6.759  15.799 -0.3334 -0.5196  1.9401
 1533TIP3   OH226089   4.486   0.626  10.562 -0.2097 -0.2167  0.2076
 1533TIP3    H126090   4.421   0.584  10.506  0.2308  0.1327 -0.5819
 1533TIP3    H226091   4.529   0.554  10.607  0.8510 -0.6973 -1.4756
 1534TIP3   OH226092   0.320   3.596  12.230  0.4037  0.3162  0.3211
 1534TIP3    H126093   0.388   3.651  12.190 -2.0613  2.0568 -1.8204
 1534TIP3    H226094   0.293   3.537  12.160 -0.7056  0.0820  0.9392
 1535TIP3   OH226095   3.425   1.258  15.239 -0.3416  0.7860 -0.1283
 1535TIP3    H126096   3.338   1.226  15.262 -0.9912  1.4491 -1.5860
 1535TIP3    H226097   3.447   1.211  15.159  0.6191  0.6891  0.1820
 1536TIP3   OH226098   3.917   2.180  16.274 -0.1625 -0.0404  0.4524
 1536TIP3    H126099   3.999   2.227  16.257  0.4301 -0.0613  2.8784
 1536TIP3    H226100   3.945   2.095  16.308 -1.2002 -0.3797  0.4797
 1537TIP3   OH226101   5.727   5.828  16.390  0.4676  0.6869 -0.5496
 1537TIP3    H126102   5.767   5.903  16.346  2.9428 -1.2585 -1.8638
 1537TIP3    H226103   5.676   5.785  16.321  1.1318 -0.2075 -0.4928
 1538TIP3   OH226104   1.046   1.850  16.774 -0.4026 -0.0610  0.0763
 1538TIP3    H126105   1.140   1.849  16.755 -0.6660  1.7135 -1.5772
 1538TIP3    H226106   1.040   1.877  16.866  0.6718  1.8657 -0.3774
 1539TIP3   OH226107   5.167   3.673   1.722 -0.3641  1.2878 -0.2714
 1539TIP3    H126108   5.227   3.714   1.659  0.0213 -1.0366 -1.5452
 1539TIP3    H226109   5.091   3.648   1.670  0.4693 -1.7742 -0.2369
 1540TIP3   OH226110   2.697   4.100   5.564  0.6260 -0.0661 -0.0050
 1540TIP3    H126111   2.751   4.071   5.637  0.8114 -0.5466 -0.3285
 1540TIP3    H226112   2.647   4.022   5.539  1.1015 -0.1094 -0.8604
 1541TIP3   OH226113   6.077   1.633  13.639 -0.1869 -0.2044 -0.2406
 1541TIP3    H126114   6.038   1.631  13.726 -1.1300 -0.2974 -0.6525
 1541TIP3    H226115   6.171   1.632  13.655 -0.3408 -1.2344  0.7650
 1542TIP3   OH226116   3.920   3.363   5.198 -0.0282  0.8718  0.9360
 1542TIP3    H126117   3.873   3.322   5.126  3.1470  0.6453 -1.2301
 1542TIP3    H226118   3.852   3.403   5.252 -2.8104 -1.6333 -0.3969
 1543TIP3   OH226119   2.441   0.770   5.200 -0.2488 -0.1069  0.4713
 1543TIP3    H126120   2.471   0.687   5.162 -0.8025 -0.3117  0.4678
 1543TIP3    H226121   2.458   0.835   5.132 -1.7072 -0.5505 -0.3581
 1544TIP3   OH226122   5.884   1.209   0.748  0.2307  0.7193 -0.2668
 1544TIP3    H126123   5.817   1.143   0.735  0.8471 -0.4795  2.0737
 1544TIP3    H226124   5.962   1.172   0.706  0.0996  0.9023 -0.6817
 1545TIP3   OH226125   6.254   2.958   3.766  0.3594  0.5133 -0.5008
 1545TIP3    H126126   6.277   2.886   3.707 -0.4295  0.8192 -1.1961
 1545TIP3    H226127   6.187   2.922   3.824  1.8619 -0.1083  0.9464
 1546TIP3   OH226128   6.741   2.706   0.319 -0.4536 -0.3659 -0.2394
 1546TIP3    H126129   6.761   2.739   0.407  0.1741  3.6807 -1.6911
 1546TIP3    H226130   6.652   2.672   0.325 -0.5188  0.0590  1.9067
 1547TIP3   OH226131   0.042   4.788  11.891 -0.4475  0.2713 -0.1128
 1547TIP3    H126132   0.050   4.694  11.877  1.1547  0.4772 -0.8757
 1547TIP3    H226133   0.113   4.826  11.839 -1.1116  1.9092  0.1069
 1548TIP3   OH226134   0.538   4.046  10.642 -0.1748 -0.3202  0.4832
 1548TIP3    H126135   0.606   3.993  10.682  1.9204 -0.5402 -3.0036
 1548TIP3    H226136   0.505   3.994  10.569 -2.0619  0.9838  0.3125
 1549TIP3   OH226137   1.385   0.595  13.543 -0.0166  0.1676 -0.3287
 1549TIP3    H126138   1.331   0.613  13.465  0.9303 -0.3229 -1.1124
 1549TIP3    H226139   1.422   0.680  13.566 -2.2126  0.8285  1.1030
 1550TIP3   OH226140   0.426   5.340  11.842 -0.8132  0.0714 -0.8004
 1550TIP3    H126141   0.436   5.387  11.759  0.7213  0.8389 -0.2137
 1550TIP3    H226142   0.363   5.393  11.891  1.3357  1.9374  0.0845
 1551TIP3   OH226143   0.468   5.384  14.831 -0.0771  0.3378 -0.1166
 1551TIP3    H126144   0.419   5.405  14.751 -0.6532 -2.1897 -0.5186
 1551TIP3    H226145   0.503   5.468  14.861 -3.5504  2.1374 -0.5481
 1552TIP3   OH226146   2.656   4.881   0.971  0.4388 -0.0423 -0.0447
 1552TIP3    H126147   2.719   4.946   1.003 -0.0198  0.3405  0.0931
 1552TIP3    H226148   2.689   4.857   0.884  0.2761  0.8510 -0.3649
 1553TIP3   OH226149   1.209   4.841   0.236  0.4791  0.4477 -0.2654
 1553TIP3    H126150   1.254   4.763   0.203  1.6840  1.0883 -0.2088
 1553TIP3    H226151   1.134   4.807   0.284  1.4155 -0.7283  0.4195
 1554TIP3   OH226152   3.907   6.508  14.364 -0.4038  0.0474 -0.2796
 1554TIP3    H126153   3.813   6.515  14.378 -0.3871  0.4611 -0.3609
 1554TIP3    H226154   3.940   6.470  14.445 -0.5452  0.6686  0.0813
 1555TIP3   OH226155   2.609   6.208   4.553 -0.2816 -0.5926 -0.0990
 1555TIP3    H126156   2.537   6.202   4.491 -1.0255  1.6870  0.4705
 1555TIP3    H226157   2.678   6.254   4.506  0.2281 -1.3652 -0.1265
 1556TIP3   OH226158   2.311   3.806  16.319 -0.3025 -0.0088  0.0988
 1556TIP3    H126159   2.398   3.804  16.359 -0.1383  0.0407 -0.2565
 1556TIP3    H226160   2.324   3.848  16.234 -0.4268 -1.3260 -0.5903
 1557TIP3   OH226161   2.338   0.228   1.583  0.0849 -0.4958  0.2670
 1557TIP3    H126162   2.263   0.172   1.560  0.6889 -1.3684  0.4021
 1557TIP3    H226163   2.409   0.167   1.601  1.3117  0.3386 -1.4607
 1558TIP3   OH226164   5.009   1.227   6.126  0.1285 -0.5083  0.6998
 1558TIP3    H126165   5.031   1.180   6.206  2.9654 -0.4581  0.0443
 1558TIP3    H226166   5.028   1.319   6.147 -0.9297 -0.2407  0.5287
 1559TIP3   OH226167   5.324   0.928   2.786 -0.6549  0.3053  0.1694
 1559TIP3    H126168   5.400   0.987   2.795 -1.0749  0.8947 -0.0851
 1559TIP3    H226169   5.313   0.890   2.873  0.0404  0.0814  0.1660
 1560TIP3   OH226170   6.225   6.023  16.089 -0.5379 -0.3241 -0.2439
 1560TIP3    H126171   6.174   5.988  16.162  0.8313 -0.6438  0.5962
 1560TIP3    H226172   6.178   6.102  16.063 -2.1431 -1.2453 -0.3519
 1561TIP3   OH226173   1.646   3.773  12.919  0.0271 -0.5504 -0.0454
 1561TIP3    H126174   1.679   3.834  12.985 -2.3954  0.4388  0.3755
 1561TIP3    H226175   1.571   3.731  12.962 -0.6368 -1.0628 -1.6338
 1562TIP3   OH226176   1.368   1.943  11.403  0.4747  0.2748 -0.2567
 1562TIP3    H126177   1.318   1.863  11.389  1.7658 -0.5981 -0.1075
 1562TIP3    H226178   1.375   1.984  11.317 -1.8381  1.2906 -0.0284
 1563TIP3   OH226179   1.999   6.745  12.067  0.4036  0.1655  0.5191
 1563TIP3    H126180   1.937   6.693  12.118 -0.8575 -0.2150 -1.3357
 1563TIP3    H226181   1.979   6.725  11.976  1.4605  2.0888 -0.1980
 1564TIP3   OH226182   4.595   4.194   1.200  0.4740  0.0645 -0.1814
 1564TIP3    H126183   4.571   4.168   1.110 -0.8939 -0.5562  0.3336
 1564TIP3    H226184   4.561   4.283   1.208 -2.5385 -1.0405  0.7664
 1565TIP3   OH226185   3.361   5.038  16.441  0.1964  0.6972 -0.2869
 1565TIP3    H126186   3.349   5.086  16.523 -1.2262  0.8093 -0.5279
 1565TIP3    H226187   3.449   5.060  16.412 -0.0713  2.3949  0.1117
 1566TIP3   OH226188   1.407   0.002  16.984 -0.4588  0.4080  0.4913
 1566TIP3    H126189   1.338  -0.063  16.998 -0.8889  1.0111  1.2962
 1566TIP3    H226190   1.387   0.071  17.047  0.3509  1.0278  0.0833
 1567TIP3   OH226191   1.654   2.121   4.927 -0.4555  0.0765 -0.3728
 1567TIP3    H126192   1.707   2.179   4.873 -0.1953 -0.0852 -0.2889
 1567TIP3    H226193   1.648   2.166   5.012  0.6073 -0.4999  0.0234
 1568TIP3   OH226194   5.548   5.681  13.289  0.3022 -0.3437 -0.2024
 1568TIP3    H126195   5.519   5.604  13.338 -2.1097  0.7198  0.1823
 1568TIP3    H226196   5.484   5.749  13.311  0.9954  1.1064 -2.3338
 1569TIP3   OH226197   4.952   6.411  11.797  0.2885  0.1317 -0.0541
 1569TIP3    H126198   4.935   6.465  11.719 -0.9092  0.3924  0.3658
 1569TIP3    H226199   4.932   6.469  11.871  0.7396 -0.3313  0.4378
 1570TIP3   OH226200   4.491   2.266   3.779  0.3306 -0.8712 -0.2780
 1570TIP3    H126201   4.414   2.316   3.808  0.1603  0.0740 -2.2095
 1570TIP3    H226202   4.531   2.235   3.860 -1.1928 -0.0476  0.8500
 1571TIP3   OH226203   2.848   1.962   4.002 -0.1239  0.3409 -0.2171
 1571TIP3    H126204   2.775   1.993   3.949 -0.1882  0.8716  0.1744
 1571TIP3    H226205   2.826   1.871   4.022  0.8606 -0.5337 -2.7563
 1572TIP3   OH226206   5.319   0.451   3.601  0.1975 -0.4276 -0.0096
 1572TIP3    H126207   5.348   0.505   3.675 -1.0827  0.1617  0.0798
 1572TIP3    H226208   5.400   0.430   3.555  0.7739  1.2923  0.1417
 1573TIP3   OH226209   3.400   1.087  15.844  0.0898 -0.1095  0.0445
 1573TIP3    H126210   3.470   1.112  15.904  0.1099 -0.3271  0.1147
 1573TIP3    H226211   3.417   1.137  15.764 -2.1998  3.3308  1.4783
 1574TIP3   OH226212   0.902   4.727  11.656  0.1531 -0.8534 -0.0138
 1574TIP3    H126213   0.850   4.692  11.729 -0.3410 -0.6101 -0.2420
 1574TIP3    H226214   0.840   4.731  11.583  0.3833 -0.1589 -0.1745
 1575TIP3   OH226215   6.477   1.094  16.676 -0.6686  0.4614 -0.0173
 1575TIP3    H126216   6.530   1.111  16.598 -0.2415  1.9167  0.5682
 1575TIP3    H226217   6.478   1.176  16.725 -0.5407 -0.5362  1.7672
 1576TIP3   OH226218   3.814   3.974   3.179 -0.0500  0.6857 -0.2451
 1576TIP3    H126219   3.785   4.005   3.093  0.3337  1.9285  0.0525
 1576TIP3    H226220   3.845   4.053   3.223 -0.6737  0.1347  1.2112
 1577TIP3   OH226221   4.569   2.439   2.972  0.0862  0.1717 -0.5353
 1577TIP3    H126222   4.491   2.383   2.964 -1.2296  1.9449 -0.8984
 1577TIP3    H226223   4.599   2.426   3.062 -0.8952 -0.2467 -0.2525
 1578TIP3   OH226224   1.608   4.965   6.232 -0.5082  0.0954 -0.6158
 1578TIP3    H126225   1.685   4.931   6.277 -0.3436 -0.6969 -1.4765
 1578TIP3    H226226   1.542   4.972   6.301  0.5044  1.4472  0.2778
 1579TIP3   OH226227   5.992   5.629   4.882 -0.7721 -1.1873  0.0284
 1579TIP3    H126228   5.907   5.649   4.921 -0.6017 -1.3385  0.4932
 1579TIP3    H226229   5.989   5.668   4.795 -0.2713  1.3467  1.0645
 1580TIP3   OH226230   3.093   1.526   3.057  0.0503  0.1510  0.0990
 1580TIP3    H126231   3.132   1.609   3.082  2.1136 -1.1209  1.3646
 1580TIP3    H226232   3.000   1.535   3.080  0.1502  2.2106 -0.1679
 1581TIP3   OH226233   1.791   4.873   0.530  0.1045 -0.2850 -0.0474
 1581TIP3    H126234   1.741   4.837   0.456  0.3716  1.2644 -1.0319
 1581TIP3    H226235   1.794   4.967   0.513  0.5982  0.0452  1.7091
 1582TIP3   OH226236   0.218   2.051  13.597 -0.2069  0.1859  0.3304
 1582TIP3    H126237   0.131   2.041  13.635  0.0370 -1.6122  0.4985
 1582TIP3    H226238   0.240   2.143  13.610 -2.7025  1.0753 -1.1178
 1583TIP3   OH226239   0.446   3.017   1.453  0.3983 -0.3996  0.5311
 1583TIP3    H126240   0.447   3.086   1.520  0.8390 -1.1341  1.2948
 1583TIP3    H226241   0.518   2.959   1.477 -0.8194 -1.9007  0.7286
 1584TIP3   OH226242   3.718   0.797  11.591 -0.2821 -0.0384 -0.0605
 1584TIP3    H126243   3.767   0.822  11.513 -0.5438 -1.1473 -0.5968
 1584TIP3    H226244   3.733   0.703  11.601 -0.0553  0.1182  1.3783
 1585TIP3   OH226245   3.671   6.456  14.214 -0.0704 -0.2663 -0.3099
 1585TIP3    H126246   3.623   6.476  14.295  0.5380 -0.2577  0.0600
 1585TIP3    H226247   3.738   6.524  14.209  1.0615 -1.3136  0.1538
 1586TIP3   OH226248   1.330   6.842   1.272  0.4031 -0.0694 -0.3674
 1586TIP3    H126249   1.362   6.803   1.190 -0.3192 -1.8439  0.1571
 1586TIP3    H226250   1.269   6.910   1.244 -0.6244 -1.3400 -1.3448
 1587TIP3   OH226251   3.854   0.157   4.947 -0.3152 -0.2601 -0.2832
 1587TIP3    H126252   3.800   0.128   4.874 -2.5006 -1.9794  1.8566
 1587TIP3    H226253   3.849   0.253   4.944 -3.4075 -0.3196 -0.3584
 1588TIP3   OH226254   0.448   0.389  13.514  0.3168 -0.4616  0.3967
 1588TIP3    H126255   0.404   0.305  13.511  0.2573 -0.3999 -0.7998
 1588TIP3    H226256   0.536   0.372  13.481 -0.0496  0.1438 -0.9525
 1589TIP3   OH226257   1.530   6.572   6.247 -0.1413  0.6046 -0.1431
 1589TIP3    H126258   1.563   6.519   6.175  0.1076  0.1283  0.3195
 1589TIP3    H226259   1.608   6.612   6.285 -0.2685  0.8221 -0.1065
 1590TIP3   OH226260   6.155   3.596  16.766  0.2756 -0.4714 -0.1807
 1590TIP3    H126261   6.229   3.586  16.826 -0.9985  1.6033  1.9247
 1590TIP3    H226262   6.182   3.666  16.706  0.2752 -0.0996  0.2422
 1591TIP3   OH226263   1.617   3.994  14.986  0.3272 -0.4602 -0.0490
 1591TIP3    H126264   1.643   4.086  14.976  1.3793 -0.3951  2.6605
 1591TIP3    H226265   1.534   3.998  15.032  1.2832 -0.8421  1.7831
 1592TIP3   OH226266   1.913   0.859  11.021 -0.3378  0.1918  0.6155
 1592TIP3    H126267   1.984   0.851  10.958  0.9218  1.1041  1.8605
 1592TIP3    H226268   1.835   0.832  10.973  0.8473 -0.9446 -0.7594
 1593TIP3   OH226269   4.015   1.000   0.297  0.8056  0.6861  0.3271
 1593TIP3    H126270   3.953   0.957   0.238 -0.0366  1.6575  0.4771
 1593TIP3    H226271   4.098   0.955   0.281  0.0508 -0.7392  0.2127
 1594TIP3   OH226272   5.046   2.971   0.267 -0.3965  0.2534  0.1813
 1594TIP3    H126273   5.111   2.909   0.234  0.2462  0.4752  0.9933
 1594TIP3    H226274   4.979   2.917   0.309 -1.7211 -0.1072 -2.1928
 1595TIP3   OH226275   5.696   0.387   3.406  0.1698 -0.3520  0.3167
 1595TIP3    H126276   5.728   0.436   3.331 -0.6934 -0.4650 -0.1384
 1595TIP3    H226277   5.694   0.296   3.376 -0.0431 -0.4147  0.5174
 1596TIP3   OH226278   2.725   4.890  11.572 -0.4919  0.3316 -0.1685
 1596TIP3    H126279   2.785   4.963  11.589 -2.4963  2.0069  0.1334
 1596TIP3    H226280   2.646   4.913  11.621 -1.5842 -1.5240 -0.9713
 1597TIP3   OH226281   1.143   3.526   0.729 -0.4488  0.1242  0.3745
 1597TIP3    H126282   1.106   3.502   0.814 -0.5321  1.6435  0.8001
 1597TIP3    H226283   1.083   3.594   0.696 -0.0465  0.0177 -0.5937
 1598TIP3   OH226284   1.637   2.556   3.073 -0.0334  0.0217 -0.7439
 1598TIP3    H126285   1.721   2.589   3.040  0.0878  0.3100 -0.1590
 1598TIP3    H226286   1.632   2.466   3.039  1.4593 -0.7263  0.8245
 1599TIP3   OH226287   3.621   6.536   0.422  0.1042  0.1049  0.0837
 1599TIP3    H126288   3.645   6.452   0.383  2.2196  0.9757 -0.6215
 1599TIP3    H226289   3.622   6.519   0.517  0.5990 -0.6331 -0.0411
 1600TIP3   OH226290   0.320   3.735   3.915 -0.5585  0.0842 -0.5475
 1600TIP3    H126291   0.409   3.713   3.888 -0.4057  0.1310 -0.0899
 1600TIP3    H226292   0.267   3.660   3.885 -0.0532 -0.9062  0.9358
 1601TIP3   OH226293   5.164   3.863  13.190 -0.1821 -0.1056 -0.5744
 1601TIP3    H126294   5.226   3.889  13.258 -0.3986 -0.6808 -0.1440
 1601TIP3    H226295   5.219   3.846  13.113  0.2412 -0.9050 -0.1153
 1602TIP3   OH226296   5.237   1.026   1.306 -0.5231  0.5415  0.4243
 1602TIP3    H126297   5.265   0.982   1.387 -0.9161 -0.0619  0.2405
 1602TIP3    H226298   5.142   1.018   1.306 -0.4637 -0.3539 -0.5916
 1603TIP3   OH226299   5.517   0.078  14.270 -0.3184  0.3969  0.0475
 1603TIP3    H126300   5.600   0.076  14.223 -1.1481 -2.2818 -1.5184
 1603TIP3    H226301   5.540   0.062  14.361  0.9190 -0.2589 -0.3590
 1604TIP3   OH226302   1.894   0.344  16.655 -0.0922  0.0002 -0.3061
 1604TIP3    H126303   1.825   0.316  16.715 -1.6699  0.4670 -1.7875
 1604TIP3    H226304   1.960   0.386  16.710 -0.4489 -1.4522  1.2837
 1605TIP3   OH226305   3.993   0.943   2.049 -0.0081 -0.4729  0.2889
 1605TIP3    H126306   4.062   1.008   2.033 -0.1979 -0.0965  0.9261
 1605TIP3    H226307   3.952   0.929   1.964 -0.3934  0.7568  0.2509
 1606TIP3   OH226308   1.161   1.609   3.916  0.3614 -0.4564 -0.0671
 1606TIP3    H126309   1.117   1.537   3.871  0.4537  0.2951 -1.4192
 1606TIP3    H226310   1.207   1.568   3.989 -0.1588 -1.6585 -0.3955
 1607TIP3   OH226311   1.360   0.666  12.767 -0.6812 -0.0857 -0.4825
 1607TIP3    H126312   1.386   0.574  12.775  0.3926  0.3784  3.4277
 1607TIP3    H226313   1.443   0.712  12.752 -0.5091  0.5165  1.9080
 1608TIP3   OH226314   4.470   1.373  11.271  0.1484  0.3425  0.0609
 1608TIP3    H126315   4.452   1.295  11.323 -0.7930  0.2580 -0.3838
 1608TIP3    H226316   4.446   1.446  11.329  0.5297  0.2981  0.2822
 1609TIP3   OH226317   2.599   5.828  11.859 -0.3497  0.4491  0.6156
 1609TIP3    H126318   2.507   5.849  11.878  0.3865  1.8826  3.0213
 1609TIP3    H226319   2.630   5.900  11.805 -0.4555  0.3247  0.3883
 1610TIP3   OH226320   5.025   1.394  15.956  0.3349  0.5919  0.7244
 1610TIP3    H126321   5.091   1.324  15.956  1.1558  1.3320 -0.5086
 1610TIP3    H226322   4.996   1.400  15.865 -3.0097 -1.0937  1.5138
 1611TIP3   OH226323   2.221   5.050  16.614 -0.3106  0.4489 -0.2590
 1611TIP3    H126324   2.278   5.034  16.688 -0.0477  0.5534 -0.4386
 1611TIP3    H226325   2.265   5.119  16.564 -0.7151  0.7099 -0.2610
 1612TIP3   OH226326   4.877   0.009  12.626 -0.2184  0.3572  0.8064
 1612TIP3    H126327   4.802   0.069  12.630 -2.2939 -1.6683 -2.5017
 1612TIP3    H226328   4.952   0.062  12.651 -2.3640  3.3402  1.4346
 1613TIP3   OH226329   2.903   6.008   1.082 -0.3927  0.8356  0.2253
 1613TIP3    H126330   2.914   5.992   0.988 -0.5927  0.4532  0.2617
 1613TIP3    H226331   2.992   6.013   1.116 -0.2902 -0.8012  0.2916
 1614TIP3   OH226332   0.681   2.312   1.899 -0.1689 -0.2581 -0.2687
 1614TIP3    H126333   0.773   2.289   1.883 -0.7599 -2.3441 -0.9106
 1614TIP3    H226334   0.677   2.327   1.994  1.3081  2.4358 -0.5240
 1615TIP3   OH226335   5.542   3.843  16.194 -0.1064 -0.0314  0.9059
 1615TIP3    H126336   5.561   3.777  16.127  1.0877 -0.0368  1.2104
 1615TIP3    H226337   5.622   3.896  16.198  0.4102 -0.8477  3.2391
 1616TIP3   OH226338   5.609   0.934  15.845  0.2942  0.0551  0.0594
 1616TIP3    H126339   5.651   0.888  15.772 -0.1765  1.2706 -1.0170
 1616TIP3    H226340   5.671   1.002  15.870 -0.0305  0.3631  0.0316
 1617TIP3   OH226341   4.885   2.323  15.646 -0.3515  0.5301 -0.1170
 1617TIP3    H126342   4.927   2.316  15.560  1.0295 -2.7316  0.6324
 1617TIP3    H226343   4.840   2.239  15.657  0.0162  0.5970  2.5487
 1618TIP3   OH226344   3.977   6.037   3.441  0.2558  0.1156  0.1566
 1618TIP3    H126345   4.017   5.953   3.419 -1.7361 -0.4789 -1.5448
 1618TIP3    H226346   3.946   6.027   3.530  1.1322 -0.4822  0.4099
 1619TIP3   OH226347   6.648   0.906  15.951 -0.1216  0.1576  1.4839
 1619TIP3    H126348   6.622   0.997  15.965 -2.0898 -0.3944  1.7808
 1619TIP3    H226349   6.565   0.859  15.938  0.8936 -1.4622  0.4825
 1620TIP3   OH226350   6.235   1.765  11.438 -0.1266 -0.0445 -0.1319
 1620TIP3    H126351   6.286   1.735  11.363 -0.7746  0.7623 -0.9076
 1620TIP3    H226352   6.156   1.711  11.437 -0.9240  1.0925 -1.0599
 1621TIP3   OH226353   6.334   4.571  16.888 -0.2958  0.2983  0.3749
 1621TIP3    H126354   6.341   4.511  16.815 -0.6865 -0.4852  0.9651
 1621TIP3    H226355   6.343   4.658  16.849  2.8855 -0.1539 -0.1898
 1622TIP3   OH226356   0.528   5.301   0.355 -0.1554  0.5268 -0.8762
 1622TIP3    H126357   0.590   5.274   0.287  0.3871  2.2265 -1.1080
 1622TIP3    H226358   0.458   5.236   0.351  0.8551 -0.5669 -1.6569
 1623TIP3   OH226359   0.026   2.284   0.181  0.1409 -0.2029 -1.2969
 1623TIP3    H126360  -0.030   2.237   0.119 -1.1238  0.9595 -1.1100
 1623TIP3    H226361  -0.024   2.283   0.263 -0.1591  1.7717 -1.4010
 1624TIP3   OH226362   6.680   2.491  14.259  0.6116 -0.2595  0.1861
 1624TIP3    H126363   6.762   2.514  14.216 -0.4678 -0.3184 -2.0149
 1624TIP3    H226364   6.706   2.468  14.349  2.9133  0.1716 -0.3107
 1625TIP3   OH226365   3.211   6.292   4.723  0.5042 -0.1885  0.8838
 1625TIP3    H126366   3.116   6.296   4.714  0.6559  2.3883 -0.5597
 1625TIP3    H226367   3.236   6.210   4.681 -1.0012 -0.5010  0.5395
 1626TIP3   OH226368   5.167   5.164   1.185 -0.9448  0.1159  0.1078
 1626TIP3    H126369   5.255   5.153   1.221 -0.5507  1.9037 -0.1975
 1626TIP3    H226370   5.120   5.084   1.209  0.5998 -0.6304  0.7363
 1627TIP3   OH226371   6.307   6.649  15.938 -0.5856 -0.0940  0.1709
 1627TIP3    H126372   6.302   6.567  15.987 -0.4273 -0.2543 -0.0813
 1627TIP3    H226373   6.385   6.640  15.884 -0.4663  0.2974  0.2748
 1628TIP3   OH226374   3.790   2.038  15.272  0.1381 -0.0437  0.4742
 1628TIP3    H126375   3.730   2.031  15.346 -0.2547 -0.0136  0.1590
 1628TIP3    H226376   3.845   1.960  15.279 -0.7429 -0.7209  0.0570
 1629TIP3   OH226377   3.898   2.580   2.041 -0.6105 -0.0898  0.3505
 1629TIP3    H126378   3.872   2.627   2.120 -0.0959 -1.0822  1.1252
 1629TIP3    H226379   3.834   2.509   2.033 -0.0322 -0.6351  0.4877
 1630TIP3   OH226380   0.871   4.029   3.288  0.1123 -0.0612 -0.2152
 1630TIP3    H126381   0.939   4.049   3.353  0.4948 -1.1502 -0.2604
 1630TIP3    H226382   0.909   4.056   3.205 -0.0463  0.5715 -0.0828
 1631TIP3   OH226383   0.784   4.270  12.598 -0.2549 -0.2743  0.6780
 1631TIP3    H126384   0.771   4.238  12.509  0.3415 -1.8461  1.1327
 1631TIP3    H226385   0.774   4.193  12.653 -1.3528  0.8008  2.0613
 1632TIP3   OH226386   0.245   3.619   4.181  0.0209  0.5554 -0.0708
 1632TIP3    H126387   0.310   3.633   4.112  0.5515  2.8696  0.8061
 1632TIP3    H226388   0.200   3.703   4.188 -2.6846 -0.8071 -0.2043
 1633TIP3   OH226389   3.323   2.060  15.970 -0.2433 -0.0495 -0.3321
 1633TIP3    H126390   3.381   2.099  15.905  1.1667 -2.0691 -0.3805
 1633TIP3    H226391   3.245   2.116  15.970  1.2999  2.2059 -0.9426
 1634TIP3   OH226392   3.174   4.771   2.641 -0.0491 -0.4754 -0.0498
 1634TIP3    H126393   3.237   4.785   2.570 -1.2605 -4.0323 -2.0620
 1634TIP3    H226394   3.092   4.809   2.609 -0.2830 -0.8912  0.0541
 1635TIP3   OH226395   0.185   4.425  11.083 -0.6971  0.1527 -0.4669
 1635TIP3    H126396   0.227   4.361  11.141 -0.0219 -0.0122 -1.1153
 1635TIP3    H226397   0.235   4.419  11.001 -1.6001  0.4149 -1.0477
 1636TIP3   OH226398   1.002   5.754   1.060  0.2077  0.0298 -0.0968
 1636TIP3    H126399   0.987   5.777   1.151  2.8313  1.5023  0.0589
 1636TIP3    H226400   1.033   5.663   1.063  0.7107  0.2149  0.5336
 1637TIP3   OH226401   4.149   5.748   3.501 -0.3133 -0.0440  0.0758
 1637TIP3    H126402   4.097   5.757   3.581  1.3089 -0.7825  1.2775
 1637TIP3    H226403   4.234   5.786   3.523  0.2158 -0.4133 -1.2383
 1638TIP3   OH226404   6.077   6.264  15.753 -0.4776 -0.6824  0.0200
 1638TIP3    H126405   6.058   6.205  15.681 -1.9567 -0.8939  0.5270
 1638TIP3    H226406   6.105   6.346  15.712  1.1554 -1.5605 -0.6963
 1639TIP3   OH226407   6.309   1.990   2.428 -0.3908  0.2879 -0.2962
 1639TIP3    H126408   6.319   1.918   2.490 -0.2322  0.8957  0.4102
 1639TIP3    H226409   6.238   2.043   2.465  1.6330  2.2803  1.0460
 1640TIP3   OH226410   3.652   6.504   0.912  0.0008 -0.3553 -0.4013
 1640TIP3    H126411   3.647   6.463   0.826 -0.2460  0.4402 -0.7808
 1640TIP3    H226412   3.636   6.597   0.895 -0.0600 -0.1890  0.5058
 1641TIP3   OH226413   2.338   6.456  15.524  0.3167  1.2310  0.2023
 1641TIP3    H126414   2.432   6.471  15.535  0.4531  1.9823 -1.6811
 1641TIP3    H226415   2.309   6.424  15.610  2.3576  0.5411  0.6928
 1642TIP3   OH226416   0.302   0.337  12.985  0.1200 -0.1618 -0.4301
 1642TIP3    H126417   0.287   0.399  12.914  1.9803  1.4213  0.4691
 1642TIP3    H226418   0.372   0.280  12.953 -1.3558 -1.6870 -1.1227
 1643TIP3   OH226419   4.127   0.570  11.109  0.3993  0.3463 -0.1756
 1643TIP3    H126420   4.058   0.504  11.118  0.6424  0.2153  0.8052
 1643TIP3    H226421   4.084   0.642  11.062  0.6644 -1.2412 -3.0567
 1644TIP3   OH226422   1.745   2.366  11.584 -0.0309  0.0138  0.4297
 1644TIP3    H126423   1.674   2.429  11.570  1.2982  1.7357  1.0312
 1644TIP3    H226424   1.771   2.339  11.496 -0.9028 -0.0527  0.1777
 1645TIP3   OH226425   3.185   3.445   3.901 -0.0183 -0.3094  0.2648
 1645TIP3    H126426   3.122   3.512   3.930 -0.8973 -0.7398 -0.5872
 1645TIP3    H226427   3.236   3.425   3.979 -2.3087 -1.4464  1.5812
 1646TIP3   OH226428   4.483   3.754   5.353  0.0024 -0.3417  0.2137
 1646TIP3    H126429   4.464   3.679   5.296  0.1494  0.0954 -0.4177
 1646TIP3    H226430   4.552   3.722   5.411  0.9806 -0.3248 -0.8813
 1647TIP3   OH226431   6.107   2.244  12.663  0.1553  0.6165  0.3890
 1647TIP3    H126432   6.193   2.275  12.693  0.9619  0.6836 -1.7903
 1647TIP3    H226433   6.082   2.307  12.595 -1.8100  0.7840  1.2093
 1648TIP3   OH226434   3.483   3.425  10.457 -0.0595 -0.1576  0.3744
 1648TIP3    H126435   3.464   3.427  10.551 -0.2140 -0.4783  0.3541
 1648TIP3    H226436   3.456   3.337  10.430 -1.8305  0.5460 -0.3476
 1649TIP3   OH226437   0.969   2.986  17.037 -0.3791  0.0554 -0.2921
 1649TIP3    H126438   1.022   3.038  16.976 -1.8377  1.1926 -0.6425
 1649TIP3    H226439   0.993   3.019  17.123  1.2563 -1.1529 -0.2320
 1650TIP3   OH226440   2.249   4.400   1.549  0.1066  0.4913 -0.2624
 1650TIP3    H126441   2.208   4.400   1.463  0.3228  1.2380 -0.3722
 1650TIP3    H226442   2.234   4.312   1.583  1.5980 -0.4529 -1.8322
 1651TIP3   OH226443   0.075   1.147   3.507  0.1926 -0.3582  0.7381
 1651TIP3    H126444   0.059   1.190   3.423  1.6147  0.3675  0.8083
 1651TIP3    H226445   0.093   1.056   3.483  0.8972 -0.0928  0.2154
 1652TIP3   OH226446   5.102   6.506  11.381  0.5850  0.2305 -0.3403
 1652TIP3    H126447   5.109   6.524  11.287 -1.1092  0.2947 -0.4823
 1652TIP3    H226448   5.188   6.529  11.416  1.3349 -0.0391 -1.9087
 1653TIP3   OH226449   5.773   1.686   2.215  0.2618 -0.7587  0.1139
 1653TIP3    H126450   5.827   1.738   2.156 -0.6909  0.1934  0.0399
 1653TIP3    H226451   5.683   1.710   2.193 -0.1674 -1.6015  0.8587
 1654TIP3   OH226452   2.692   6.472  11.417 -0.2057 -0.2961 -0.0289
 1654TIP3    H126453   2.640   6.413  11.362  0.8950 -0.2974 -1.1129
 1654TIP3    H226454   2.627   6.516  11.472 -1.2511 -1.0123 -0.6343
 1655TIP3   OH226455   0.075   0.721   4.308  0.0559 -0.2037  0.0737
 1655TIP3    H126456   0.159   0.766   4.299 -0.2635  0.4067  0.0274
 1655TIP3    H226457   0.042   0.749   4.393 -0.2266 -0.2124 -0.0300
 1656TIP3   OH226458   3.989   5.007  16.893  0.1154  0.0849 -0.0618
 1656TIP3    H126459   4.081   5.027  16.874  0.4131 -1.1079  0.0713
 1656TIP3    H226460   3.991   4.919  16.929 -1.1154 -0.0457 -0.2973
 1657TIP3   OH226461   4.914   4.010   0.572 -0.8191 -0.7732  0.4947
 1657TIP3    H126462   4.833   3.995   0.621 -1.8661  0.3575 -0.8110
 1657TIP3    H226463   4.919   3.937   0.511 -0.9943 -0.7196  0.4149
 1658TIP3   OH226464   1.784   5.494   3.565 -0.4390 -0.0076 -0.6339
 1658TIP3    H126465   1.870   5.463   3.594 -1.0825 -0.8404  0.4467
 1658TIP3    H226466   1.791   5.496   3.470  0.3558 -1.4108 -0.6457
 1659TIP3   OH226467   6.206   1.108   1.798 -0.2791  0.2917  1.2478
 1659TIP3    H126468   6.112   1.091   1.790 -0.3075  0.9930 -0.1363
 1659TIP3    H226469   6.245   1.060   1.724  0.4000  0.4305  1.5130
 1660TIP3   OH226470   0.334   3.550  16.297 -0.2730  0.3048  0.1880
 1660TIP3    H126471   0.251   3.551  16.249 -0.4897  0.6783  0.5728
 1660TIP3    H226472   0.401   3.556  16.228 -0.5687  0.3349 -0.1020
 1661TIP3   OH226473   0.068   3.646  16.209  0.1808 -0.2638 -0.7249
 1661TIP3    H126474   0.102   3.724  16.166 -0.4284  1.0655  1.0515
 1661TIP3    H226475  -0.027   3.652  16.197 -0.1994  1.0819  2.0743
 1662TIP3   OH226476   5.694   5.562  16.247  0.0498  0.1840 -0.1674
 1662TIP3    H126477   5.765   5.571  16.310  0.9467  0.0531 -1.1401
 1662TIP3    H226478   5.645   5.485  16.276  0.3556  0.2162  0.4491
 1663TIP3   OH226479   6.411   6.617   0.636 -0.5146 -0.1181  0.4110
 1663TIP3    H126480   6.375   6.667   0.710 -1.6766  0.0116 -0.2112
 1663TIP3    H226481   6.505   6.636   0.638 -0.7809  1.3496  0.7669
 1664TIP3   OH226482   2.228   6.400  12.485 -0.0930 -0.2470 -0.1033
 1664TIP3    H126483   2.165   6.334  12.513  0.4726 -0.1190  1.5701
 1664TIP3    H226484   2.189   6.483  12.510 -1.1997  0.2192 -2.9731
 1665TIP3   OH226485   3.118   6.746  15.415 -0.3292  0.3343 -0.1299
 1665TIP3    H126486   3.094   6.832  15.450 -2.2764 -0.9031  1.8707
 1665TIP3    H226487   3.166   6.703  15.485  0.8287 -0.1650 -1.1857
 1666TIP3   OH226488   6.400   4.785  16.748  0.4475  0.1360  0.1667
 1666TIP3    H126489   6.479   4.839  16.747  0.3562  0.2845  0.5533
 1666TIP3    H226490   6.383   4.765  16.656  0.3821  0.9220 -0.0019
 1667TIP3   OH226491   5.355   5.140  16.021  0.2141 -0.0892  0.1686
 1667TIP3    H126492   5.416   5.116  16.091 -0.7940 -1.2971  0.6699
 1667TIP3    H226493   5.271   5.152  16.065 -0.4656 -0.9612 -0.8271
 1668TIP3   OH226494   0.938   0.894  11.389 -0.0479  0.3990  0.1629
 1668TIP3    H126495   0.910   0.921  11.477 -0.3837 -0.3483  0.2905
 1668TIP3    H226496   0.867   0.925  11.332 -0.0380  0.5041  0.2068
 1669TIP3   OH226497   2.524   2.801  10.872  0.4663  0.6471 -0.2141
 1669TIP3    H126498   2.504   2.840  10.958  0.8180 -2.6604  1.5403
 1669TIP3    H226499   2.599   2.744  10.889 -0.7886 -1.7688 -2.1721
 1670TIP3   OH226500   1.902   3.960   3.500  0.0445  0.4871  0.1163
 1670TIP3    H126501   1.976   4.008   3.462  0.7885 -0.6525  0.0895
 1670TIP3    H226502   1.829   4.021   3.493  1.1910  2.0595  1.1159
 1671TIP3   OH226503   1.063   1.084  11.732  0.2775  0.1150  0.3582
 1671TIP3    H126504   1.040   1.000  11.693 -0.4816 -0.8267  2.6615
 1671TIP3    H226505   1.050   1.148  11.662 -3.4903 -1.1400 -0.3153
 1672TIP3   OH226506   0.195   2.082  14.544 -0.0793 -0.2529  0.2460
 1672TIP3    H126507   0.128   2.150  14.533  0.9363  0.6013 -0.7824
 1672TIP3    H226508   0.223   2.060  14.456  1.4180 -0.1792  0.6792
 1673TIP3   OH226509   2.534   6.226   5.279  0.3789  0.4193 -0.5623
 1673TIP3    H126510   2.562   6.289   5.345  2.2461  0.3034 -1.1879
 1673TIP3    H226511   2.564   6.263   5.196  3.0334 -1.9713 -0.8308
 1674TIP3   OH226512   0.078   2.217   2.970  0.1014 -0.0306 -0.1623
 1674TIP3    H126513   0.085   2.211   2.875 -0.2393  0.0243 -0.1929
 1674TIP3    H226514   0.167   2.206   3.002 -0.0477 -2.1410 -0.3727
 1675TIP3   OH226515   5.799   5.226  14.205  0.0775  0.2623  0.0448
 1675TIP3    H126516   5.884   5.216  14.249 -0.1160  0.7113  0.5411
 1675TIP3    H226517   5.820   5.266  14.121  0.4111 -0.1699 -0.0788
 1676TIP3   OH226518   2.731   3.742   2.350 -0.8784  0.2853 -0.3570
 1676TIP3    H126519   2.762   3.664   2.304 -2.1957  0.4769 -1.6516
 1676TIP3    H226520   2.763   3.732   2.440  0.6048 -0.7802 -0.9677
 1677TIP3   OH226521   5.033   6.260   4.201 -0.1155  0.3187  0.2995
 1677TIP3    H126522   5.011   6.290   4.289  1.6915  0.1570  0.8550
 1677TIP3    H226523   4.949   6.240   4.160 -1.0809  1.8403  1.4478
 1678TIP3   OH226524   1.695   2.216   2.591  0.9028  0.6916  0.1258
 1678TIP3    H126525   1.614   2.229   2.542  0.7182  0.6156  0.4057
 1678TIP3    H226526   1.763   2.254   2.535  0.7368  0.3487 -0.3118
 1679TIP3   OH226527   1.950   3.516   2.063 -0.8941  0.0415 -0.3788
 1679TIP3    H126528   1.919   3.559   1.984 -1.4484  1.2644  0.4873
 1679TIP3    H226529   1.938   3.422   2.046 -1.8878  0.3375 -1.3707
 1680TIP3   OH226530   6.825   5.175   2.823  0.2846 -0.2229 -0.2055
 1680TIP3    H126531   6.738   5.138   2.834 -0.0976  0.7648  0.2676
 1680TIP3    H226532   6.884   5.115   2.869 -0.3763  0.0174  0.9877
 1681TIP3   OH226533   3.679   3.944   6.372  0.2427 -0.2513 -0.1597
 1681TIP3    H126534   3.626   3.930   6.451 -1.2915 -0.1271 -1.1314
 1681TIP3    H226535   3.689   3.856   6.334  0.5376 -0.2427 -0.1018
 1682TIP3   OH226536   0.096   6.189   5.837 -0.1010  0.3808 -0.2155
 1682TIP3    H126537   0.044   6.198   5.917  1.8559  0.9710  1.0514
 1682TIP3    H226538   0.133   6.101   5.841 -1.2885 -0.2015 -1.3318
 1683TIP3   OH226539   1.372   1.130  16.552  0.0128  0.1099  0.2970
 1683TIP3    H126540   1.328   1.131  16.466  1.3410 -0.3889 -0.4133
 1683TIP3    H226541   1.362   1.040  16.583 -0.9382  0.4202  0.9459
 1684TIP3   OH226542   0.109   4.802  13.669  0.1228 -0.0106  0.7534
 1684TIP3    H126543   0.031   4.821  13.721 -0.6837 -1.7875  0.2929
 1684TIP3    H226544   0.111   4.706  13.664  1.6044  0.0451 -0.3518
 1685TIP3   OH226545   3.070   6.371   3.596  0.0820  0.1226 -0.1114
 1685TIP3    H126546   2.980   6.401   3.595 -0.3246 -1.0392 -0.4054
 1685TIP3    H226547   3.123   6.451   3.602 -0.9751  0.7537  0.9625
 1686TIP3   OH226548   1.688   0.838   4.217  0.3180  0.2082 -0.1957
 1686TIP3    H126549   1.646   0.854   4.302 -0.3580 -0.8401 -0.3159
 1686TIP3    H226550   1.670   0.917   4.166  0.4505  0.7127  0.5257
 1687TIP3   OH226551   3.250   1.281  14.226  0.5953  0.1036  0.2011
 1687TIP3    H126552   3.164   1.300  14.264  0.2541 -0.8930 -0.0556
 1687TIP3    H226553   3.231   1.262  14.134  1.1726  0.5064 -0.0056
 1688TIP3   OH226554   1.819   4.506  13.827  0.0767  0.7215  0.1788
 1688TIP3    H126555   1.743   4.552  13.861  0.5389  1.4554  0.2488
 1688TIP3    H226556   1.855   4.460  13.903  0.0914  0.9292  0.2992
 1689TIP3   OH226557   3.042   5.160  15.525  0.1633  0.4959 -0.0303
 1689TIP3    H126558   3.058   5.207  15.442 -0.1080  0.8897  0.1354
 1689TIP3    H226559   3.117   5.101  15.534 -1.0792 -1.5153 -1.8994
 1690TIP3   OH226560   2.161   2.893  16.498 -0.0448 -0.4413 -1.0863
 1690TIP3    H126561   2.195   2.979  16.524 -0.9952 -0.1828 -0.6344
 1690TIP3    H226562   2.071   2.893  16.529  0.0304 -1.7271 -0.8173
 1691TIP3   OH226563   3.502   6.323  13.494 -0.1778  0.2904 -0.2469
 1691TIP3    H126564   3.570   6.379  13.458  1.4557 -1.9082 -0.7802
 1691TIP3    H226565   3.541   6.283  13.571 -1.2254 -0.2602  0.0244
 1692TIP3   OH226566   2.693   3.900   4.797 -0.3705  0.8315 -0.2543
 1692TIP3    H126567   2.618   3.877   4.852 -0.5158  1.4393 -0.1940
 1692TIP3    H226568   2.671   3.986   4.761  0.2333  0.9463 -0.3531
 1693TIP3   OH226569   0.828   6.707  11.336 -0.0239  0.3033 -0.0654
 1693TIP3    H126570   0.811   6.634  11.277 -1.5644  0.3665  0.2596
 1693TIP3    H226571   0.807   6.785  11.285  2.6356  0.6776 -0.7824
 1694TIP3   OH226572   2.083   6.593   5.924 -0.0230 -0.6442 -0.2828
 1694TIP3    H126573   2.020   6.659   5.898  0.1523 -0.6407 -0.7061
 1694TIP3    H226574   2.095   6.607   6.018 -0.9958 -0.9473 -0.1019
 1695TIP3   OH226575   0.147   6.091  11.211 -0.1718  0.6206  0.1992
 1695TIP3    H126576   0.233   6.135  11.214  0.0376  0.1915  0.7557
 1695TIP3    H226577   0.127   6.072  11.303 -0.7034  0.4028  0.0431
 1696TIP3   OH226578   6.846   3.727   2.809 -0.8494  0.1566  0.1336
 1696TIP3    H126579   6.798   3.784   2.868 -2.0095 -1.1407  0.5053
 1696TIP3    H226580   6.796   3.645   2.808 -0.3762 -0.1754 -1.9536
 1697TIP3   OH226581   4.228   5.686   2.262  0.0008  0.9408 -0.4700
 1697TIP3    H126582   4.199   5.600   2.231 -0.8677  1.5057 -1.2656
 1697TIP3    H226583   4.259   5.731   2.183  0.3594  1.4026 -0.0745
 1698TIP3   OH226584   3.561   2.574   2.784 -0.4382  0.7579  0.8749
 1698TIP3    H126585   3.655   2.566   2.766 -0.6119 -1.4018  0.5549
 1698TIP3    H226586   3.556   2.590   2.878  0.2864 -2.1200  1.5232
 1699TIP3   OH226587   0.333   0.554  14.986 -0.2123  0.1481  0.8152
 1699TIP3    H126588   0.420   0.570  15.022 -1.1644  0.5302  3.1391
 1699TIP3    H226589   0.288   0.503  15.054 -1.7764 -0.1160 -0.3560
 1700TIP3   OH226590   6.348   0.160  13.685 -0.0255  0.1026  0.4828
 1700TIP3    H126591   6.306   0.246  13.677 -0.9780 -0.4079 -0.1290
 1700TIP3    H226592   6.378   0.140  13.597 -0.5290 -0.5462  0.4545
 1701TIP3   OH226593   0.373   0.716   5.112 -0.0487 -0.6309 -0.9161
 1701TIP3    H126594   0.393   0.809   5.122 -1.2615 -0.3700 -0.8468
 1701TIP3    H226595   0.439   0.684   5.050  0.0418  0.3953 -1.3673
 1702TIP3   OH226596   2.310   6.313  12.115  0.3963 -0.2773  0.0254
 1702TIP3    H126597   2.317   6.334  12.208  1.9170 -0.0217 -0.1176
 1702TIP3    H226598   2.368   6.238  12.103 -0.1065 -0.5660 -0.6454
 1703TIP3   OH226599   1.796   1.266  16.803 -0.1377  0.1694  0.1468
 1703TIP3    H126600   1.719   1.210  16.792  1.1525 -2.0317  1.5904
 1703TIP3    H226601   1.797   1.288  16.896  1.3178 -0.3770  0.2725
 1704TIP3   OH226602   3.973   4.158  14.248  0.0227  0.3465  0.3494
 1704TIP3    H126603   3.953   4.181  14.157 -0.0380 -0.5416  0.1299
 1704TIP3    H226604   4.069   4.163  14.254  0.2265 -1.7312 -0.3864
 1705TIP3   OH226605   6.236   3.459  15.613  0.2998 -0.5410 -0.0486
 1705TIP3    H126606   6.159   3.411  15.581 -0.2177 -1.2325  2.0115
 1705TIP3    H226607   6.310   3.402  15.594  0.0514 -0.7704 -0.3294
 1706TIP3   OH226608   1.115   3.779   2.330 -0.2483 -0.0028 -0.2493
 1706TIP3    H126609   1.072   3.701   2.297  1.3132 -0.6761 -0.7886
 1706TIP3    H226610   1.113   3.841   2.257 -0.8807  0.2166 -0.0493
 1707TIP3   OH226611   5.672   5.513   4.753 -0.2289 -0.8172  0.3024
 1707TIP3    H126612   5.626   5.593   4.729  0.9747 -0.7757 -2.0976
 1707TIP3    H226613   5.719   5.536   4.833 -1.5839  0.1723  0.8619
 1708TIP3   OH226614   4.799   4.359   0.605 -0.1706 -0.0777 -0.3680
 1708TIP3    H126615   4.729   4.361   0.671 -0.1833  2.2266 -0.3737
 1708TIP3    H226616   4.854   4.434   0.627  0.9060 -0.4080 -1.8454
 1709TIP3   OH226617   6.037   3.284  16.344  0.5906  0.0346  0.1868
 1709TIP3    H126618   6.011   3.226  16.416 -1.6657  0.0096 -0.5643
 1709TIP3    H226619   6.074   3.361  16.387  0.6732 -0.5990  1.2957
 1710TIP3   OH226620   4.009   1.480  16.806 -0.1356  0.0657 -0.7188
 1710TIP3    H126621   3.980   1.410  16.747 -1.5350  1.7544 -2.1975
 1710TIP3    H226622   3.967   1.559  16.771 -0.4119  1.3190  2.1439
 1711TIP3   OH226623   5.216   5.911   1.172 -0.8837  0.2493 -0.2782
 1711TIP3    H126624   5.198   5.906   1.078 -0.4641  0.7933 -0.3989
 1711TIP3    H226625   5.311   5.899   1.178 -1.1794 -2.4285  0.3229
 1712TIP3   OH226626   5.984   4.584   3.414 -0.4381  0.2866  0.3222
 1712TIP3    H126627   6.052   4.635   3.370 -1.0565 -0.6017 -1.8008
 1712TIP3    H226628   6.029   4.541   3.487  1.2733 -0.1288 -0.9014
 1713TIP3   OH226629   0.975   5.661   0.260  0.1911  0.3376 -0.4902
 1713TIP3    H126630   1.033   5.589   0.288  1.4179  1.3338 -0.3886
 1713TIP3    H226631   1.001   5.679   0.170  0.4880  1.2078 -0.2409
 1714TIP3   OH226632   4.495   3.111   1.167 -0.2041 -0.2096 -0.2466
 1714TIP3    H126633   4.407   3.148   1.158 -0.1066  0.1584  0.2798
 1714TIP3    H226634   4.486   3.022   1.133 -1.1158 -0.6339  1.0101
 1715TIP3   OH226635   0.308   0.186   6.034 -0.1387  0.2170 -0.0684
 1715TIP3    H126636   0.322   0.130   5.958 -0.6105  1.2808 -0.9643
 1715TIP3    H226637   0.288   0.126   6.105 -1.3111 -0.7244 -1.1518
 1716TIP3   OH226638   0.993   4.897  12.358 -0.1876  0.2692 -0.1698
 1716TIP3    H126639   1.084   4.892  12.331 -0.3219 -2.1882 -0.4449
 1716TIP3    H226640   0.947   4.835  12.300 -2.2735  2.2849 -0.8289
 1717TIP3   OH226641   6.768   3.991   1.433 -0.5712 -1.0016  0.0709
 1717TIP3    H126642   6.845   3.969   1.485  0.7336 -0.8733 -1.7126
 1717TIP3    H226643   6.777   4.085   1.414 -0.3332 -1.2922 -1.3919
 1718TIP3   OH226644   1.795   2.435   5.014  0.3671  0.2790  0.1944
 1718TIP3    H126645   1.708   2.402   4.995 -0.1774  0.5586  2.0615
 1718TIP3    H226646   1.831   2.458   4.928 -2.4304  2.7549 -0.4606
 1719TIP3   OH226647   6.240   3.297  12.667  0.1581 -0.6977  0.2635
 1719TIP3    H126648   6.193   3.300  12.751  0.7004  1.8352  0.5379
 1719TIP3    H226649   6.247   3.388  12.639 -0.6151 -1.5087 -2.9382
 1720TIP3   OH226650   3.432   0.692   5.066  0.0406  0.0348  0.5661
 1720TIP3    H126651   3.410   0.746   5.143 -1.0863 -0.8352  0.8818
 1720TIP3    H226652   3.353   0.694   5.013  0.7502  0.4623 -0.4911
 1721TIP3   OH226653   0.355   4.574  13.226  0.1934  0.3412 -0.6462
 1721TIP3    H126654   0.424   4.537  13.171  0.6625 -0.0681  0.2128
 1721TIP3    H226655   0.398   4.594  13.309 -0.2422  2.0202 -0.7908
 1722TIP3   OH226656   4.298   3.669  15.173 -0.2488  0.3142 -0.2707
 1722TIP3    H126657   4.206   3.647  15.188 -0.0596  0.3668  1.0509
 1722TIP3    H226658   4.303   3.688  15.079 -0.8917 -2.9317 -1.0930
 1723TIP3   OH226659   0.054   0.914  11.197 -0.0829  0.8029 -0.4674
 1723TIP3    H126660  -0.016   0.960  11.151 -0.3448  1.0831  0.1987
 1723TIP3    H226661   0.045   0.942  11.288 -1.2039 -1.7200  0.2801
 1724TIP3   OH226662   0.081   4.177   3.253 -0.0747  0.0958 -0.4713
 1724TIP3    H126663   0.075   4.264   3.292  1.2867  0.8997 -1.9419
 1724TIP3    H226664  -0.004   4.136   3.271 -0.3657  1.3323  1.1226
 1725TIP3   OH226665   4.431   4.167   3.156  0.0709  0.1266 -0.1094
 1725TIP3    H126666   4.348   4.151   3.201  1.0011 -2.5798  0.8708
 1725TIP3    H226667   4.474   4.236   3.207 -0.3692 -0.4850  1.1183
 1726TIP3   OH226668   2.507   0.931  11.881  0.0994 -0.0789  0.3548
 1726TIP3    H126669   2.456   0.889  11.951  0.7066 -0.5173  0.5451
 1726TIP3    H226670   2.579   0.870  11.865  2.3713  1.8905  2.2376
 1727TIP3   OH226671   3.523   5.585  15.474 -0.0165 -0.5996 -0.1235
 1727TIP3    H126672   3.579   5.520  15.515 -0.8054 -0.1897  1.6873
 1727TIP3    H226673   3.508   5.552  15.385  0.3618 -2.3843  0.4440
 1728TIP3   OH226674   3.127   2.210  13.302 -0.3687  0.0369  0.2846
 1728TIP3    H126675   3.102   2.255  13.222 -1.7700 -1.7121 -0.3251
 1728TIP3    H226676   3.128   2.279  13.369  0.3265  1.4284 -1.0962
 1729TIP3   OH226677   2.559   3.998  14.250  0.4913 -0.1646  0.3054
 1729TIP3    H126678   2.611   3.947  14.188  2.2215  0.2551  1.3274
 1729TIP3    H226679   2.612   4.075  14.268 -0.6900  0.4921  1.1130
 1730TIP3   OH226680   5.255   6.518   1.595 -0.3391  0.8376 -0.4474
 1730TIP3    H126681   5.211   6.528   1.511 -0.7826  1.2735 -0.1649
 1730TIP3    H226682   5.333   6.574   1.588  1.3468 -1.4934 -1.7157
 1731TIP3   OH226683   6.713   2.178   6.554 -0.1735 -0.6921  0.0521
 1731TIP3    H126684   6.661   2.187   6.634  0.2547  1.4704  0.1504
 1731TIP3    H226685   6.716   2.084   6.538 -2.2988 -1.0335  1.2223
 1732TIP3   OH226686   1.270   2.618   6.219  0.8127 -0.2276 -0.0218
 1732TIP3    H126687   1.266   2.527   6.190 -1.7280 -0.2618  0.2103
 1732TIP3    H226688   1.182   2.637   6.252  1.3807  2.2048  0.3126
 1733TIP3   OH226689   0.876   2.157   3.302 -0.1265  0.6095  0.2196
 1733TIP3    H126690   0.802   2.209   3.271 -0.4885  0.9543  1.5879
 1733TIP3    H226691   0.836   2.083   3.347  0.3379  0.8417  1.0368
 1734TIP3   OH226692   6.369   0.578   3.792  0.3216  0.0348  0.1811
 1734TIP3    H126693   6.451   0.545   3.830 -0.6961 -2.5247  0.3089
 1734TIP3    H226694   6.355   0.525   3.714 -0.6703  1.1920 -0.4543
 1735TIP3   OH226695   4.704   4.594   4.575  0.1959  0.4499  0.2860
 1735TIP3    H126696   4.612   4.609   4.597 -0.6451 -2.5252 -0.7164
 1735TIP3    H226697   4.736   4.679   4.546 -2.5715  1.3571 -0.4142
 1736TIP3   OH226698   6.693   1.391   0.822  0.5540 -0.0024 -0.2619
 1736TIP3    H126699   6.624   1.452   0.845  0.8759  0.7705 -1.2728
 1736TIP3    H226700   6.711   1.343   0.903 -0.8756  0.0583  0.1132
 1737TIP3   OH226701   5.010   2.521  16.211  0.4627  0.2929  0.2278
 1737TIP3    H126702   5.067   2.570  16.271  0.2241 -0.0545  0.7493
 1737TIP3    H226703   5.008   2.574  16.131  0.9524  0.6614  0.4532
 1738TIP3   OH226704   5.138   6.506   1.324  0.4922 -0.0245  0.4949
 1738TIP3    H126705   5.101   6.498   1.236 -3.0998 -0.1963  1.8538
 1738TIP3    H226706   5.172   6.596   1.327  0.9417 -0.1105 -1.1225
 1739TIP3   OH226707   6.103   3.141   5.846  0.2091  0.3932  0.4306
 1739TIP3    H126708   6.188   3.103   5.822 -0.8943 -0.6150 -2.1773
 1739TIP3    H226709   6.093   3.120   5.939  2.4898 -0.0599  0.6310
 1740TIP3   OH226710   5.194   0.563   0.667 -0.1643  0.3479 -0.0246
 1740TIP3    H126711   5.242   0.587   0.588  1.5087 -0.6740  0.6325
 1740TIP3    H226712   5.217   0.630   0.731  1.3614 -0.7292  0.6234
 1741TIP3   OH226713   2.908   5.376   0.902  0.2793 -0.4770  0.0549
 1741TIP3    H126714   2.937   5.309   0.840  1.0940  0.9369 -1.1701
 1741TIP3    H226715   2.985   5.392   0.958  0.9277  1.0700 -1.1963
 1742TIP3   OH226716   0.577   2.435  16.115  0.1682  0.4526  0.3698
 1742TIP3    H126717   0.523   2.510  16.089  0.0760  0.1631 -0.2878
 1742TIP3    H226718   0.525   2.390  16.181  1.5108  2.6888  3.1907
 1743TIP3   OH226719   3.096   3.149  11.198 -0.4174  0.2402 -0.6401
 1743TIP3    H126720   3.134   3.221  11.148 -1.5202  0.5194 -1.1061
 1743TIP3    H226721   3.020   3.121  11.147 -0.3261 -0.8979 -0.1889
 1744TIP3   OH226722   2.819   6.708   0.630  0.3249 -0.0559  0.1562
 1744TIP3    H126723   2.907   6.705   0.668  1.1259 -0.2110 -1.6084
 1744TIP3    H226724   2.774   6.633   0.668  1.3740 -0.7170  0.1603
 1745TIP3   OH226725   5.884   0.091  13.666 -0.4182  0.0019  0.4612
 1745TIP3    H126726   5.936   0.088  13.746 -0.3164 -0.5775  0.3774
 1745TIP3    H226727   5.941   0.132  13.601  0.0237 -0.8256  0.3123
 1746TIP3   OH226728   6.160   3.679  11.741  0.4975  0.2669  0.1431
 1746TIP3    H126729   6.222   3.732  11.691  0.0909  0.5257 -0.0957
 1746TIP3    H226730   6.088   3.738  11.760 -0.6521 -0.5575 -1.3900
 1747TIP3   OH226731   3.302   1.991   0.941 -0.2455 -0.0827  0.3948
 1747TIP3    H126732   3.326   2.010   1.032 -0.4235 -0.6190  0.5588
 1747TIP3    H226733   3.363   1.923   0.914 -0.6869 -0.4800  0.3707
 1748TIP3   OH226734   2.671   5.346  12.740 -0.9809 -0.2675  0.2736
 1748TIP3    H126735   2.602   5.308  12.794 -1.6235 -0.5759 -0.7207
 1748TIP3    H226736   2.623   5.394  12.672 -0.2442 -1.0776 -0.8515
 1749TIP3   OH226737   2.525   1.427   5.196 -0.4159  0.5564  0.0445
 1749TIP3    H126738   2.490   1.515   5.204 -0.3892  0.5820 -0.1243
 1749TIP3    H226739   2.457   1.370   5.233 -3.0109  0.0411 -4.6556
 1750TIP3   OH226740   3.510   6.541  12.996 -0.3033 -0.4640 -0.2889
 1750TIP3    H126741   3.551   6.455  12.987 -0.0886 -0.5868  1.4832
 1750TIP3    H226742   3.530   6.586  12.915  0.5342 -1.6927 -0.7938
 1751TIP3   OH226743   4.793   1.118  16.194 -0.2376  0.9379  0.7371
 1751TIP3    H126744   4.732   1.124  16.267  0.1301 -2.2228  1.4760
 1751TIP3    H226745   4.877   1.149  16.229  0.2735 -1.8439  2.2418
 1752TIP3   OH226746   3.871   3.402   4.103  0.3540  0.6360  0.4344
 1752TIP3    H126747   3.942   3.378   4.163 -1.5266  1.9992  3.4855
 1752TIP3    H226748   3.818   3.322   4.095  0.9628  0.2635 -0.0077
 1753TIP3   OH226749   2.364   4.113  14.580 -0.0119  0.0144  0.4713
 1753TIP3    H126750   2.406   4.107  14.494 -0.8251 -1.1356  0.1298
 1753TIP3    H226751   2.430   4.082  14.641 -0.5033 -2.4175 -0.1307
 1754TIP3   OH226752   2.876   6.838  12.257  0.4029  0.2568 -0.2150
 1754TIP3    H126753   2.948   6.899  12.275  0.9792 -0.4077 -0.1919
 1754TIP3    H226754   2.914   6.773  12.197 -0.0868 -0.2760  0.0389
 1755TIP3   OH226755   1.644   0.848  12.481 -0.1696 -0.5346  0.1406
 1755TIP3    H126756   1.731   0.809  12.473  0.2258  0.4022 -0.1768
 1755TIP3    H226757   1.593   0.806  12.411  0.3738 -0.1828 -0.4796
 1756TIP3   OH226758   0.738   4.614   1.717  0.1355  0.5774  0.5175
 1756TIP3    H126759   0.818   4.621   1.665 -0.5661 -1.0211 -0.8510
 1756TIP3    H226760   0.746   4.531   1.763 -1.6923 -0.7588 -1.4231
 1757TIP3   OH226761   1.044   5.227   1.041  0.3496  0.0345 -0.0041
 1757TIP3    H126762   0.995   5.167   1.097  0.6157 -1.8709 -1.6880
 1757TIP3    H226763   0.998   5.310   1.048 -0.4200 -0.5138  1.9209
 1758TIP3   OH226764   1.141   4.683   2.022 -0.6223  0.3965 -0.1804
 1758TIP3    H126765   1.077   4.612   2.031  1.0370 -0.9993  1.4234
 1758TIP3    H226766   1.226   4.639   2.029  0.5558  2.1773 -2.3030
 1759TIP3   OH226767   4.003   6.334  16.482 -0.5809  0.0137  0.1477
 1759TIP3    H126768   4.020   6.296  16.569 -2.5356  0.0895  0.5951
 1759TIP3    H226769   4.059   6.284  16.423 -1.6547 -2.3234  0.9932
 1760TIP3   OH226770   4.048   4.047   6.256 -0.2607 -0.1300  0.1131
 1760TIP3    H126771   4.136   4.078   6.235 -0.8392  1.1576 -0.5595
 1760TIP3    H226772   4.002   4.047   6.172 -0.7971 -1.1603  0.3977
 1761TIP3   OH226773   4.293   0.848   3.678 -0.0038  0.0487 -0.2294
 1761TIP3    H126774   4.313   0.777   3.739  0.0719  0.3611  0.1063
 1761TIP3    H226775   4.204   0.828   3.647 -1.0730  1.2201  1.8694
 1762TIP3   OH226776   1.630   5.562  14.764 -0.4050  0.4000  0.2125
 1762TIP3    H126777   1.655   5.528  14.849  3.0732  1.2651 -0.2839
 1762TIP3    H226778   1.652   5.656  14.768 -2.0559  0.9000 -1.0225
 1763TIP3   OH226779   2.072   6.332  16.961 -0.8926 -0.1726 -0.3428
 1763TIP3    H126780   2.077   6.272  17.036 -1.2205  0.8196  0.4986
 1763TIP3    H226781   2.163   6.341  16.932 -0.5695  0.4106  0.7550
 1764TIP3   OH226782   1.615   2.021   0.580 -0.1418 -0.1725 -0.2354
 1764TIP3    H126783   1.640   2.008   0.488 -1.4513  0.9646 -0.7900
 1764TIP3    H226784   1.660   1.951   0.627  1.7349  0.0928 -1.5251
 1765TIP3   OH226785   0.983   6.269  14.811  0.1154  0.7242 -0.2978
 1765TIP3    H126786   1.044   6.316  14.868 -1.0575  2.8594 -0.6766
 1765TIP3    H226787   1.028   6.266  14.726  1.1860 -1.0236  0.2862
 1766TIP3   OH226788   0.401   3.169   3.449 -0.4041 -0.4426  0.2615
 1766TIP3    H126789   0.463   3.145   3.380 -0.0447 -1.5041  0.9297
 1766TIP3    H226790   0.322   3.120   3.429 -0.3009 -0.7477  0.6044
 1767TIP3   OH226791   3.350   2.210  14.623  0.7504 -0.2882  0.2439
 1767TIP3    H126792   3.347   2.213  14.528 -0.4384  0.7549  0.2848
 1767TIP3    H226793   3.290   2.140  14.647  2.2923 -1.6843  0.2185
 1768TIP3   OH226794   4.595   3.760   4.047 -0.2606 -0.1735 -0.7465
 1768TIP3    H126795   4.521   3.699   4.044 -1.1123  0.7497  0.4113
 1768TIP3    H226796   4.635   3.753   3.960 -0.5307 -2.1018 -0.7640
 1769TIP3   OH226797   0.057   3.000   5.505 -0.2367 -0.2326 -0.4403
 1769TIP3    H126798   0.042   3.093   5.488  1.4176  0.0850 -0.3630
 1769TIP3    H226799   0.028   2.956   5.425 -2.7904  0.1058  0.2039
 1770TIP3   OH226800   2.696   0.391  16.459 -0.5620  0.3877  0.1508
 1770TIP3    H126801   2.692   0.482  16.429  0.6822  0.8843  1.3687
 1770TIP3    H226802   2.605   0.362  16.461 -0.9041  1.2373 -1.2855
 1771TIP3   OH226803   1.405   1.337   3.826  0.3399  1.0023 -0.7004
 1771TIP3    H126804   1.500   1.345   3.837  0.5897 -2.1544  0.4469
 1771TIP3    H226805   1.393   1.261   3.770 -1.5150  0.2848  0.5497
 1772TIP3   OH226806   1.612   3.809   1.017 -0.1962 -0.2447 -0.8234
 1772TIP3    H126807   1.672   3.754   0.966  0.1485 -0.3566 -0.3022
 1772TIP3    H226808   1.542   3.749   1.044  0.2327 -0.4639 -0.1674
 1773TIP3   OH226809   5.217   1.779   0.458  0.3777  0.0889 -0.5120
 1773TIP3    H126810   5.160   1.702   0.453 -0.6637  0.9139 -1.8740
 1773TIP3    H226811   5.223   1.811   0.368  3.5501 -0.3285 -0.5666
 1774TIP3   OH226812   3.579   1.899   3.333  0.2414 -0.1325  0.1855
 1774TIP3    H126813   3.577   1.822   3.389 -0.9625  0.8542  1.5519
 1774TIP3    H226814   3.655   1.885   3.276 -0.2811 -2.5674 -0.0034
 1775TIP3   OH226815   5.952   2.147   1.790  0.1489  0.3846  0.1018
 1775TIP3    H126816   5.991   2.228   1.755  2.0640 -0.6116 -0.1963
 1775TIP3    H226817   5.881   2.127   1.729 -0.4299  1.8695  0.2369
 1776TIP3   OH226818   3.919   5.845   5.991  0.1131 -0.1107  0.0617
 1776TIP3    H126819   3.927   5.923   6.045  0.0747  0.4519 -0.7295
 1776TIP3    H226820   3.969   5.778   6.038  0.9041  0.6263  0.3045
 1777TIP3   OH226821   0.888   5.481   2.862  0.1942 -0.2693  0.0572
 1777TIP3    H126822   0.909   5.421   2.790 -1.1226  0.0323 -0.6144
 1777TIP3    H226823   0.852   5.424   2.930  2.6602 -0.7444  1.0818
 1778TIP3   OH226824   4.107   6.733   5.270  0.9982 -0.2222  0.1346
 1778TIP3    H126825   4.096   6.688   5.186  1.3059  0.3166 -0.1937
 1778TIP3    H226826   4.187   6.696   5.306  1.3944  0.2508 -0.2567
 1779TIP3   OH226827   0.982   1.013  14.367  0.3543 -0.1929 -0.2364
 1779TIP3    H126828   1.044   1.050  14.305  1.5753 -0.1189  0.9630
 1779TIP3    H226829   1.032   1.006  14.449 -1.1659 -0.3197  0.7250
 1780TIP3   OH226830   5.253   2.917  12.580 -0.5111  0.7249 -0.3332
 1780TIP3    H126831   5.256   2.881  12.668 -2.9232 -3.0590 -1.5557
 1780TIP3    H226832   5.344   2.933  12.557  0.3378 -0.2701  2.0418
 1781TIP3   OH226833   4.005   3.283  12.440  0.0800 -0.2296 -0.0445
 1781TIP3    H126834   3.965   3.368  12.418  0.2521 -0.2592 -0.4680
 1781TIP3    H226835   3.934   3.220  12.429 -1.4165  0.2683  4.4080
 1782TIP3   OH226836   4.227   0.230  10.928 -1.1369  0.5248  0.1766
 1782TIP3    H126837   4.203   0.316  10.894 -1.3399  0.3478 -0.1263
 1782TIP3    H226838   4.194   0.168  10.863 -0.3893  0.2473  0.0446
 1783TIP3   OH226839   4.283   5.052  12.310 -0.1251 -0.1085 -0.5963
 1783TIP3    H126840   4.376   5.043  12.327 -0.2487 -0.6130 -0.1313
 1783TIP3    H226841   4.262   5.143  12.334  0.2279 -0.0225 -0.6158
 1784TIP3   OH226842   4.680   5.776  15.545 -0.1387  0.0899  0.2697
 1784TIP3    H126843   4.717   5.775  15.457 -0.7715  2.6490 -0.0903
 1784TIP3    H226844   4.743   5.825  15.598 -0.8165  0.4882  0.7234
 1785TIP3   OH226845   5.571   2.445   0.788  0.6140  0.1059  0.3476
 1785TIP3    H126846   5.488   2.402   0.807 -0.7352  1.8844 -1.1247
 1785TIP3    H226847   5.589   2.422   0.697  0.2624  1.9071 -0.2196
 1786TIP3   OH226848   3.336   2.429   1.067  0.1284  0.7431  0.1630
 1786TIP3    H126849   3.420   2.469   1.090 -0.0505  1.3531 -0.2323
 1786TIP3    H226850   3.343   2.413   0.973  0.8206 -1.6414  0.5350
 1787TIP3   OH226851   4.491   1.316  16.569  0.5945  0.1445  0.2852
 1787TIP3    H126852   4.430   1.389  16.582  1.0478  0.4655  0.6458
 1787TIP3    H226853   4.466   1.252  16.635  2.0256  1.2008  1.9486
 1788TIP3   OH226854   2.850   2.881  15.913  0.0336  0.3060  0.0096
 1788TIP3    H126855   2.817   2.793  15.931 -2.2943  1.3837  1.4353
 1788TIP3    H226856   2.790   2.918  15.849  0.5239  1.1355  0.0038
 1789TIP3   OH226857   0.563   2.279   5.120 -0.2419  0.0936  0.7064
 1789TIP3    H126858   0.484   2.332   5.108 -0.9364 -1.3439 -1.5520
 1789TIP3    H226859   0.632   2.343   5.137 -1.2312  1.6630 -0.8799
 1790TIP3   OH226860   3.860   2.639   2.738 -0.2618  0.3356  0.4702
 1790TIP3    H126861   3.895   2.706   2.795 -0.9306  1.2737 -0.1819
 1790TIP3    H226862   3.824   2.687   2.663  0.4776 -0.8372 -0.6906
 1791TIP3   OH226863   5.266   1.900  17.046  1.0935  0.1341 -0.7170
 1791TIP3    H126864   5.309   1.948  16.976  0.5923  0.4446 -0.8157
 1791TIP3    H226865   5.230   1.967  17.103  0.1919 -0.1169 -0.9773
 1792TIP3   OH226866   6.759   3.508   2.217 -0.5852 -0.4119 -0.0585
 1792TIP3    H126867   6.676   3.544   2.186 -1.6424 -1.0912  1.8323
 1792TIP3    H226868   6.785   3.565   2.289  0.2370 -0.6282 -0.1703
 1793TIP3   OH226869   2.776   0.602   0.356 -0.1378 -0.5206  0.2723
 1793TIP3    H126870   2.821   0.535   0.305  1.1114 -0.3989  1.1619
 1793TIP3    H226871   2.818   0.684   0.331 -0.6535 -0.2475  0.2787
 1794TIP3   OH226872   3.624   0.057   2.199  0.0472  0.0977 -0.2192
 1794TIP3    H126873   3.704   0.059   2.146 -0.6693  0.9104 -1.3203
 1794TIP3    H226874   3.559   0.019   2.141 -0.2000 -1.2856  0.9373
 1795TIP3   OH226875   0.193   0.861   4.859 -0.4946 -0.4801 -0.1807
 1795TIP3    H126876   0.172   0.788   4.918  1.4965 -1.6746 -0.8699
 1795TIP3    H226877   0.108   0.887   4.824 -1.6645 -0.2634  2.5389
 1796TIP3   OH226878   4.409   6.145  12.888  0.2833 -0.2849 -0.6820
 1796TIP3    H126879   4.466   6.220  12.872 -1.2133  0.7194 -1.5536
 1796TIP3    H226880   4.364   6.131  12.804 -1.0995 -0.7453  0.1096
 1797TIP3   OH226881   0.483   1.218  11.651 -0.0836  0.2170  0.2034
 1797TIP3    H126882   0.445   1.154  11.591  0.6545 -1.8747  1.8226
 1797TIP3    H226883   0.544   1.268  11.597  1.4083 -2.3328 -0.6807
 1798TIP3   OH226884   2.977   2.951  15.649  0.1605  0.0889 -0.0674
 1798TIP3    H126885   2.909   3.018  15.642 -0.1373 -0.2453 -0.4158
 1798TIP3    H226886   2.944   2.877  15.597 -0.2307 -0.9037  1.5067
 1799TIP3   OH226887   4.276   6.270   1.981 -0.2984 -0.3261  0.1803
 1799TIP3    H126888   4.317   6.243   1.899 -1.1298 -0.4124 -0.2217
 1799TIP3    H226889   4.244   6.359   1.965 -1.2535 -0.6696  0.0969
 1800TIP3   OH226890   4.476   4.756   5.907  0.4226  0.1177  0.1542
 1800TIP3    H126891   4.393   4.802   5.921  0.1502  0.2083 -1.5149
 1800TIP3    H226892   4.477   4.688   5.974 -2.1881 -1.4579 -1.2168
 1801TIP3   OH226893   3.728   1.623   3.266  0.0740  0.1095 -0.3185
 1801TIP3    H126894   3.792   1.669   3.212  0.3053 -0.6443 -0.6995
 1801TIP3    H226895   3.645   1.631   3.218 -0.1223  1.0553  0.1574
 1802TIP3   OH226896   6.635   0.258  10.409  0.3081 -0.0575 -0.5899
 1802TIP3    H126897   6.721   0.254  10.450 -0.4221 -0.7283  0.9546
 1802TIP3    H226898   6.639   0.334  10.351  1.1208  1.5099  1.4086
 1803TIP3   OH226899   2.828   2.302  11.509 -0.5849 -0.2544 -0.1358
 1803TIP3    H126900   2.900   2.262  11.558  0.6134  1.0014 -0.7778
 1803TIP3    H226901   2.784   2.358  11.572 -0.8158 -0.7897  0.1849
 1804TIP3   OH226902   2.156   5.982  15.754  0.6659 -0.4543  0.6018
 1804TIP3    H126903   2.163   6.054  15.817  1.0554  0.0529 -0.0152
 1804TIP3    H226904   2.244   5.971  15.720 -0.1628  2.1558 -2.9916
 1805TIP3   OH226905   1.035   3.010   6.737  0.2389  0.1551  0.4904
 1805TIP3    H126906   1.046   2.918   6.762  1.5767 -0.0762 -0.8171
 1805TIP3    H226907   1.119   3.051   6.760 -0.5133  1.1987  1.5186
 1806TIP3   OH226908   4.618   1.461  16.807 -0.2337 -1.0655  0.8313
 1806TIP3    H126909   4.603   1.367  16.804  2.1712 -1.4840 -0.4437
 1806TIP3    H226910   4.650   1.477  16.896 -2.4760 -1.0546  1.7033
 1807TIP3   OH226911   4.293   3.177  14.574  0.3319 -0.0197 -0.2086
 1807TIP3    H126912   4.379   3.144  14.601 -0.1994 -0.6940  0.7096
 1807TIP3    H226913   4.299   3.182  14.478  0.9540 -1.3324 -0.2638
 1808TIP3   OH226914   4.168   0.033  10.735 -0.2405 -0.5585 -0.2493
 1808TIP3    H126915   4.080   0.005  10.763 -0.0966 -2.7422 -1.7315
 1808TIP3    H226916   4.227  -0.030  10.776  0.7138  1.0326  0.9237
 1809TIP3   OH226917   1.529   1.452   0.919 -0.1701 -0.1131  0.1719
 1809TIP3    H126918   1.544   1.410   0.835 -0.6487 -0.4806  0.2704
 1809TIP3    H226919   1.435   1.466   0.923  0.0479  1.6319 -0.1726
 1810TIP3   OH226920   1.761   1.329   0.259 -0.1503  0.0791  0.0202
 1810TIP3    H126921   1.676   1.291   0.236  0.2193 -1.5320  1.1527
 1810TIP3    H226922   1.825   1.265   0.230  0.6583  0.9642 -0.2004
 1811TIP3   OH226923   1.487   2.771   5.914 -0.2096  0.3755 -0.3882
 1811TIP3    H126924   1.552   2.713   5.951  1.0349 -0.0052 -2.9745
 1811TIP3    H226925   1.449   2.722   5.841 -1.3418  1.6513 -0.7085
 1812TIP3   OH226926   4.172   4.158   1.976  0.1891 -0.1512 -0.0492
 1812TIP3    H126927   4.124   4.175   2.057  0.4318  0.4746 -0.0341
 1812TIP3    H226928   4.263   4.151   2.003  0.3094  0.3667 -0.3004
 1813TIP3   OH226929   6.543   6.701  12.625  0.4469 -0.1959  0.1961
 1813TIP3    H126930   6.556   6.756  12.702 -0.3221 -0.7857  0.7663
 1813TIP3    H226931   6.567   6.613  12.655 -0.2179 -0.4920 -0.1192
 1814TIP3   OH226932   1.626   3.149  15.913  0.0209 -0.2417  0.4141
 1814TIP3    H126933   1.600   3.089  15.844 -0.3105  0.1989  0.1489
 1814TIP3    H226934   1.563   3.221  15.908  0.1056 -0.1114  1.0490
 1815TIP3   OH226935   1.744   5.241   0.961  0.1986 -0.0543 -0.1145
 1815TIP3    H126936   1.804   5.300   1.007  0.6962 -0.3973 -0.3111
 1815TIP3    H226937   1.793   5.213   0.884 -0.1207 -0.5487 -0.1390
 1816TIP3   OH226938   2.976   5.120   4.551  0.0627  0.3012  0.3178
 1816TIP3    H126939   3.032   5.136   4.628  0.4357 -0.6726  0.2602
 1816TIP3    H226940   2.887   5.129   4.584  0.2244  0.2375  0.7832
 1817TIP3   OH226941   3.571   5.430   0.543 -0.0433  0.1743  0.2826
 1817TIP3    H126942   3.658   5.415   0.580 -0.3215  0.2071  0.9602
 1817TIP3    H226943   3.585   5.499   0.477  0.7821 -1.2024 -1.0402
 1818TIP3   OH226944   5.573   1.327   5.380  0.0381 -0.7285  0.4879
 1818TIP3    H126945   5.580   1.292   5.292  1.9459 -0.8147  0.6446
 1818TIP3    H226946   5.644   1.286   5.429 -0.9059 -0.5942  2.0548
 1819TIP3   OH226947   4.074   6.564   5.067  0.6174  0.1752 -0.2874
 1819TIP3    H126948   4.152   6.509   5.076  1.2617  1.0549 -0.2968
 1819TIP3    H226949   4.071   6.587   4.974  1.8445  2.1980  0.1000
 1820TIP3   OH226950   2.360   5.966  13.112  0.5933  0.6387 -0.0745
 1820TIP3    H126951   2.354   5.902  13.042 -0.9401  0.1908  0.4223
 1820TIP3    H226952   2.427   6.028  13.083  0.2611  0.2506 -1.7503
 1821TIP3   OH226953   2.848   0.791   2.381  0.0695  0.3772  0.1091
 1821TIP3    H126954   2.798   0.720   2.421  1.2192 -1.5412 -1.6598
 1821TIP3    H226955   2.877   0.756   2.297  0.0674  3.2322 -1.2120
 1822TIP3   OH226956   1.824   6.472  10.880 -0.2119  0.5130  0.6208
 1822TIP3    H126957   1.853   6.394  10.833 -0.4310  0.7541  0.0869
 1822TIP3    H226958   1.773   6.437  10.954 -0.1301  0.1460  0.5069
 1823TIP3   OH226959   0.531   2.834  11.669  0.3188  0.3701 -0.2639
 1823TIP3    H126960   0.544   2.775  11.743 -0.5394  0.6907  0.1442
 1823TIP3    H226961   0.617   2.837  11.627  0.6753 -0.2486  0.3872
 1824TIP3   OH226962   0.685   1.218   4.898  0.8540  0.4919 -0.1571
 1824TIP3    H126963   0.723   1.151   4.840 -1.7644 -1.7133  0.4960
 1824TIP3    H226964   0.743   1.218   4.975  1.6268 -0.0580 -0.7187
 1825TIP3   OH226965   1.039   0.926   2.179 -0.2761  0.0106  0.7951
 1825TIP3    H126966   0.956   0.955   2.141 -1.0359 -1.6246  1.1136
 1825TIP3    H226967   1.054   0.984   2.253 -0.6127  0.9464  0.1426
 1826TIP3   OH226968   0.756   0.126  11.641 -0.3448 -0.2562  0.0804
 1826TIP3    H126969   0.741   0.037  11.608 -0.4004 -0.8957  1.7456
 1826TIP3    H226970   0.819   0.164  11.579  2.2180 -2.5631  1.0580
 1827TIP3   OH226971   1.302   4.691   4.352 -0.1898  0.7000  0.4136
 1827TIP3    H126972   1.384   4.642   4.357 -1.6845 -1.8995  1.1838
 1827TIP3    H226973   1.279   4.708   4.443 -0.4048  1.6305  0.1962
 1828TIP3   OH226974   2.772   4.914  12.461 -0.1603  0.4396  0.1859
 1828TIP3    H126975   2.795   4.974  12.390 -2.1707  0.6219 -0.3884
 1828TIP3    H226976   2.727   4.969  12.526 -0.8622 -0.1889  0.2582
 1829TIP3   OH226977   1.592   2.355  17.095 -0.2045 -1.2288 -0.0423
 1829TIP3    H126978   1.585   2.394  17.008  0.2673 -1.2801 -0.1076
 1829TIP3    H226979   1.579   2.262  17.081  2.7904 -1.6891 -0.5380
 1830TIP3   OH226980   2.159   4.492  12.031  0.0070  0.2522 -0.3414
 1830TIP3    H126981   2.250   4.465  12.049  0.6067  2.2414 -0.1075
 1830TIP3    H226982   2.109   4.454  12.103  1.3850  2.6371  2.1017
 1831TIP3   OH226983   2.213   0.888  11.233 -0.3077 -0.0633  0.2474
 1831TIP3    H126984   2.280   0.853  11.292 -0.8608  0.0002  0.9330
 1831TIP3    H226985   2.138   0.830  11.247  0.0478 -1.0336 -1.5927
 1832TIP3   OH226986   6.557   1.766  10.565 -0.3728 -0.0461  0.0142
 1832TIP3    H126987   6.563   1.809  10.480 -0.0458  0.7708  0.4394
 1832TIP3    H226988   6.545   1.673  10.544  0.2335  0.0739 -0.9121
 1833TIP3   OH226989   6.608   2.654   3.795  0.7199  0.6410  0.1179
 1833TIP3    H126990   6.703   2.648   3.791  0.7745 -0.9936  1.9432
 1833TIP3    H226991   6.588   2.657   3.889 -1.0200  1.1838 -0.2256
 1834TIP3   OH226992   2.525   0.341  15.618 -0.0383  0.2201 -0.1295
 1834TIP3    H126993   2.562   0.325  15.705 -0.4682 -0.8913 -0.1393
 1834TIP3    H226994   2.544   0.262  15.568 -0.0461  0.7350 -0.9716
 1835TIP3   OH226995   3.031   1.935   0.015 -0.1628  0.3311  0.0109
 1835TIP3    H126996   3.116   1.951  -0.027 -0.0116 -2.0759 -0.7519
 1835TIP3    H226997   2.972   1.999  -0.026  0.9344  0.9585 -0.6423
 1836TIP3   OH226998   1.478   3.873   0.212 -0.3577  0.3926 -0.3177
 1836TIP3    H126999   1.447   3.827   0.134 -0.2425 -0.3401  0.0562
 1836TIP3    H227000   1.436   3.959   0.208 -0.2845  0.3963 -1.2249
 1837TIP3   OH227001   2.971   3.160   2.784 -0.4394  0.7338 -0.2804
 1837TIP3    H127002   2.881   3.162   2.814  0.0318 -1.4663  1.5520
 1837TIP3    H227003   3.020   3.118   2.855  2.1070  2.0927 -1.0772
 1838TIP3   OH227004   0.165   3.776   5.684 -0.4761  0.1776 -0.4246
 1838TIP3    H127005   0.143   3.785   5.777  1.4371 -1.0927  0.1897
 1838TIP3    H227006   0.128   3.692   5.659 -0.9073  0.4778 -0.8203
 1839TIP3   OH227007   0.220   5.119  12.400  0.3015  0.5623  0.1603
 1839TIP3    H127008   0.212   5.033  12.439 -1.6028  0.2280 -0.8713
 1839TIP3    H227009   0.234   5.102  12.306  2.7458  1.3712  0.2957
 1840TIP3   OH227010   4.855   5.363  14.533 -0.5045 -0.2833  0.3604
 1840TIP3    H127011   4.782   5.343  14.475 -1.3372  0.3427  1.1712
 1840TIP3    H227012   4.830   5.444  14.577 -0.5865 -1.4653  2.6519
 1841TIP3   OH227013   2.585   6.698  12.600  0.2727  0.6959 -0.6491
 1841TIP3    H127014   2.505   6.651  12.622 -0.9197  2.6896 -0.4882
 1841TIP3    H227015   2.602   6.675  12.508  0.8524 -1.5167 -0.0414
 1842TIP3   OH227016   3.578   1.084   2.982  0.0429  0.2397  0.7380
 1842TIP3    H127017   3.507   1.052   3.038  0.4463 -1.8904  0.1339
 1842TIP3    H227018   3.536   1.145   2.921 -1.2104 -0.6770  0.6465
 1843TIP3   OH227019   5.627   0.407  12.586 -0.0436  0.5402  0.0713
 1843TIP3    H127020   5.548   0.458  12.569 -0.2220  1.2137  2.4860
 1843TIP3    H227021   5.690   0.437  12.521 -1.8583 -0.3303 -2.1925
 1844TIP3   OH227022   0.174   2.410  16.630  0.3355  0.0576  0.3817
 1844TIP3    H127023   0.109   2.463  16.584  0.8008 -0.1647 -0.5633
 1844TIP3    H227024   0.254   2.420  16.578  0.1802 -2.3861 -0.4826
 1845TIP3   OH227025   0.598   4.724  13.999  0.0870 -0.0486  0.7435
 1845TIP3    H127026   0.601   4.628  14.009 -0.0142 -0.0094  1.2061
 1845TIP3    H227027   0.638   4.757  14.079  3.5082  0.2821 -0.9566
 1846TIP3   OH227028   2.042   3.325   3.966 -0.3098  0.2640 -0.3011
 1846TIP3    H127029   2.023   3.327   3.872  0.2637 -0.2096 -0.4355
 1846TIP3    H227030   2.101   3.400   3.979 -0.7767  0.6210 -0.2262
 1847TIP3   OH227031   6.460   3.768   1.924  0.0225  0.3077 -0.0576
 1847TIP3    H127032   6.380   3.819   1.931  0.5785  1.2737 -0.6063
 1847TIP3    H227033   6.529   3.825   1.957  0.6057 -0.2258 -0.3198
 1848TIP3   OH227034   1.078   1.659   1.767 -0.8793  0.4324 -0.3540
 1848TIP3    H127035   1.161   1.612   1.769 -0.7731  0.5574 -1.2455
 1848TIP3    H227036   1.102   1.751   1.779 -1.1147  0.2662  1.7081
 1849TIP3   OH227037   1.400   0.159  16.211 -0.5932  0.3889 -0.2062
 1849TIP3    H127038   1.358   0.208  16.141 -0.1522 -0.2261 -0.9126
 1849TIP3    H227039   1.327   0.127  16.264 -0.9197  1.0277 -0.2548
 1850TIP3   OH227040   4.479   0.041  16.170  1.0013 -0.3650  0.4496
 1850TIP3    H127041   4.487   0.097  16.248 -0.8156 -0.2286  0.5928
 1850TIP3    H227042   4.406  -0.018  16.191 -0.2892  0.4199 -1.5412
 1851TIP3   OH227043   6.101   2.283   1.507  0.2276 -0.3608  0.4836
 1851TIP3    H127044   6.033   2.309   1.445  1.5872 -1.3965 -1.5755
 1851TIP3    H227045   6.084   2.335   1.585 -1.7771  0.7794 -0.6350
 1852TIP3   OH227046   2.664   4.772   4.653 -0.5583  0.0102 -0.0372
 1852TIP3    H127047   2.715   4.826   4.592 -0.8759  0.7979  0.3819
 1852TIP3    H227048   2.634   4.698   4.601  0.2379  0.0227 -0.5196
 1853TIP3   OH227049   2.637   4.675  14.479  0.1847 -0.1580  0.4103
 1853TIP3    H127050   2.601   4.759  14.507  2.6451  1.1708 -0.0549
 1853TIP3    H227051   2.603   4.611  14.542 -2.9405  0.8507 -0.0878
 1854TIP3   OH227052   2.268   1.285  15.393 -0.6534 -0.6273  0.0411
 1854TIP3    H127053   2.261   1.219  15.461  0.4587 -0.8476 -0.0240
 1854TIP3    H227054   2.339   1.253  15.337  0.2379  0.8328  0.2775
 1855TIP3   OH227055   0.006   5.941   1.699  0.5672 -0.2987 -0.0177
 1855TIP3    H127056   0.075   5.876   1.713  0.8876 -0.1141 -0.6633
 1855TIP3    H227057  -0.055   5.899   1.639 -0.1145 -0.6152  0.8739
 1856TIP3   OH227058   0.107   3.233   1.292  0.1701 -0.0187 -0.3559
 1856TIP3    H127059   0.137   3.257   1.205  0.5489  2.6616  0.4161
 1856TIP3    H227060   0.160   3.286   1.351 -0.1283 -1.6990  1.5421
 1857TIP3   OH227061   0.831   2.846  13.906 -0.1480 -0.2024 -0.2966
 1857TIP3    H127062   0.794   2.772  13.954 -0.3570  0.0584 -0.0515
 1857TIP3    H227063   0.806   2.923  13.957  0.1521  0.0322 -0.4948
 1858TIP3   OH227064   3.176   4.221  11.368 -0.0583  0.1629 -0.3200
 1858TIP3    H127065   3.124   4.158  11.419  0.7899  0.2840  0.7347
 1858TIP3    H227066   3.249   4.169  11.334 -0.1717  0.2586 -0.7045
 1859TIP3   OH227067   3.769   3.130   0.825 -0.4339  0.6062  0.0309
 1859TIP3    H127068   3.807   3.059   0.876  2.7776  2.3843  0.4537
 1859TIP3    H227069   3.712   3.176   0.886 -1.7038 -0.9291  0.0505
 1860TIP3   OH227070   1.680   5.131  17.057 -0.0778  0.9293 -0.1729
 1860TIP3    H127071   1.637   5.065  17.002  0.0333 -0.2078  1.0386
 1860TIP3    H227072   1.616   5.150  17.126  0.2474  1.4228 -0.0020
 1861TIP3   OH227073   2.194   2.404   0.784 -0.1261  0.2948  0.3639
 1861TIP3    H127074   2.129   2.474   0.776 -0.5543 -0.0993  0.3312
 1861TIP3    H227075   2.233   2.398   0.696 -0.1915  0.3929  0.3276
 1862TIP3   OH227076   3.425   1.646   4.113  0.2404 -0.1244 -0.3737
 1862TIP3    H127077   3.482   1.627   4.038  1.1179 -0.7449  0.4277
 1862TIP3    H227078   3.350   1.587   4.100 -0.1960  0.6230 -1.3791
 1863TIP3   OH227079   0.182   5.395  13.815 -0.1262  0.1466 -0.3809
 1863TIP3    H127080   0.267   5.382  13.856  0.3297 -2.9634 -2.0244
 1863TIP3    H227081   0.186   5.482  13.777  0.8151  1.6195  2.7577
 1864TIP3   OH227082   5.731   1.165  10.161 -0.5007 -0.5131 -0.4806
 1864TIP3    H127083   5.799   1.194  10.222 -0.2576  2.7557 -2.0776
 1864TIP3    H227084   5.657   1.141  10.216  1.2153 -2.3206  1.2102
 1865TIP3   OH227085   2.625   0.164  13.200  0.0567 -0.5602  0.1012
 1865TIP3    H127086   2.605   0.073  13.179 -0.9384 -0.9434  2.4282
 1865TIP3    H227087   2.647   0.163  13.294  1.0037  1.4581 -0.0340
 1866TIP3   OH227088   0.194   0.965   1.303  0.1300 -0.1745  0.8255
 1866TIP3    H127089   0.231   0.879   1.285  0.3396 -0.2473  1.5893
 1866TIP3    H227090   0.181   1.004   1.216  3.9549  0.7076  0.4957
 1867TIP3   OH227091   2.009   1.531   0.260  0.1367  0.0376 -0.0787
 1867TIP3    H127092   1.982   1.440   0.244  2.9551 -0.7828 -0.7315
 1867TIP3    H227093   1.928   1.576   0.285 -1.3655 -2.6215  0.2285
 1868TIP3   OH227094   1.879   5.512   3.296 -0.0390 -0.0523 -0.2835
 1868TIP3    H127095   1.890   5.607   3.298 -0.5231 -0.0003  0.0530
 1868TIP3    H227096   1.967   5.478   3.279  0.1817  0.4430 -0.1527
 1869TIP3   OH227097   0.053   6.585   1.220  0.0352 -0.2821 -0.1876
 1869TIP3    H127098   0.094   6.536   1.149  1.7849 -0.6809  1.0209
 1869TIP3    H227099   0.112   6.659   1.235 -0.4972 -0.0080  0.6064
 1870TIP3   OH227100   1.600   2.361   6.732  0.1212 -0.0394 -0.0728
 1870TIP3    H127101   1.644   2.436   6.771  2.3437 -1.0664 -0.3940
 1870TIP3    H227102   1.609   2.291   6.798 -0.1406 -0.5424 -0.5594
 1871TIP3   OH227103   4.404   4.784   3.671 -0.2632  0.0096  0.0189
 1871TIP3    H127104   4.369   4.796   3.582  0.1589  3.0726  0.1557
 1871TIP3    H227105   4.497   4.801   3.662 -0.1534 -0.0416  0.9919
 1872TIP3   OH227106   4.040   0.964  11.783  0.4013 -0.3683 -0.0121
 1872TIP3    H127107   4.005   0.998  11.700  0.0661  1.4084  0.8154
 1872TIP3    H227108   3.971   0.905  11.814  0.3597 -0.7594 -0.7988
 1873TIP3   OH227109   5.720   4.327   5.268 -0.4798 -0.4811  0.7067
 1873TIP3    H127110   5.663   4.391   5.311 -3.0356 -1.5932 -0.7378
 1873TIP3    H227111   5.806   4.369   5.264 -1.0934  1.2399  3.2031
 1874TIP3   OH227112   0.321   0.710   5.734  0.3498 -0.5597 -0.3594
 1874TIP3    H127113   0.266   0.784   5.761  1.5909  1.2980 -2.5826
 1874TIP3    H227114   0.394   0.711   5.796 -0.8354 -1.5465  1.1304
 1875TIP3   OH227115   2.536   6.720   5.431  0.1290 -0.2717  0.6205
 1875TIP3    H127116   2.579   6.799   5.465 -0.6688 -0.4973  2.2522
 1875TIP3    H227117   2.592   6.648   5.458 -0.2820 -0.4209  1.0884
 1876TIP3   OH227118   2.762   2.578   1.009  0.0433  0.0282 -0.0585
 1876TIP3    H127119   2.781   2.490   1.042  1.1367 -0.4124 -1.6941
 1876TIP3    H227120   2.708   2.563   0.931  1.7116  0.6402 -1.3991
 1877TIP3   OH227121   2.003   4.857  14.483  0.0987 -0.4249 -0.0077
 1877TIP3    H127122   1.953   4.897  14.555 -1.6012 -1.1724 -0.6960
 1877TIP3    H227123   2.087   4.835  14.522 -0.1692  0.6728  1.2996
 1878TIP3   OH227124   1.947   0.021   1.386 -0.2198 -0.0845 -0.1669
 1878TIP3    H127125   2.007  -0.021   1.325 -1.8212 -2.5359 -0.1900
 1878TIP3    H227126   1.902   0.087   1.334  2.1439  1.6457 -0.2061
 1879TIP3   OH227127   6.791   3.154   3.622 -1.2579 -0.2739  0.5448
 1879TIP3    H127128   6.737   3.160   3.543 -0.3765  1.4059  0.0354
 1879TIP3    H227129   6.880   3.171   3.592 -1.1626  2.6969  2.1798
 1880TIP3   OH227130   3.956   5.045  13.158  0.1563  0.2403  0.0735
 1880TIP3    H127131   4.043   5.030  13.195 -0.4737 -0.5830  1.2754
 1880TIP3    H227132   3.896   5.001  13.218 -0.9503 -0.8285 -1.7166
 1881TIP3   OH227133   2.463   4.541   3.880  0.4331 -0.3939  0.0723
 1881TIP3    H127134   2.416   4.458   3.887 -0.8511  0.3599  0.6755
 1881TIP3    H227135   2.556   4.517   3.886  0.0295 -1.5899  2.2578
 1882TIP3   OH227136   6.175   4.343  14.488 -0.0560  0.4595 -0.2703
 1882TIP3    H127137   6.095   4.372  14.532 -0.4617 -1.2884  0.2326
 1882TIP3    H227138   6.233   4.315  14.559  1.2019  2.0791 -0.6011
 1883TIP3   OH227139   4.586   3.262   0.325 -0.0974  0.0995  0.5996
 1883TIP3    H127140   4.679   3.285   0.325  0.1566 -0.8533 -0.0371
 1883TIP3    H227141   4.570   3.229   0.414 -0.4203  2.4004  1.4578
 1884TIP3   OH227142   4.149   3.002  10.694 -0.9865  0.7165  0.4767
 1884TIP3    H127143   4.111   3.085  10.664 -0.6602  1.2739  1.5747
 1884TIP3    H227144   4.075   2.940  10.692 -0.8121  0.4629 -2.2996
 1885TIP3   OH227145   0.214   0.361   6.607  0.0755  0.5710  0.8414
 1885TIP3    H127146   0.245   0.422   6.540  1.6819  2.4945  3.2113
 1885TIP3    H227147   0.138   0.404   6.646 -0.6541 -0.4001  0.5554
 1886TIP3   OH227148   4.795   6.497  15.408 -0.2057 -0.2644  0.2691
 1886TIP3    H127149   4.854   6.500  15.483 -0.9287 -0.7575  0.8721
 1886TIP3    H227150   4.750   6.581  15.410 -0.3426 -0.3425  0.4849
 1887TIP3   OH227151   0.665   6.624  16.254  0.5533 -0.8314  0.4381
 1887TIP3    H127152   0.601   6.569  16.209  0.1942 -1.8214  2.0634
 1887TIP3    H227153   0.685   6.577  16.335 -0.3491  1.7345  2.3127
 1888TIP3   OH227154   6.120   4.849  14.121 -0.7409  0.0957  0.0712
 1888TIP3    H127155   6.099   4.803  14.040 -1.4147  0.5277 -0.0097
 1888TIP3    H227156   6.166   4.928  14.092  0.0723 -0.3283  0.1861
 1889TIP3   OH227157   4.738   1.345  14.255  0.0528  0.0126 -0.7648
 1889TIP3    H127158   4.829   1.327  14.231 -0.3306 -1.5902 -1.1256
 1889TIP3    H227159   4.728   1.307  14.342 -0.6388 -1.0746 -1.3080
 1890TIP3   OH227160   5.637   2.723   1.149 -0.2847  0.3616 -0.0750
 1890TIP3    H127161   5.616   2.699   1.058 -1.6114 -0.0845  0.3149
 1890TIP3    H227162   5.587   2.803   1.164 -2.1725 -0.9410  1.0088
 1891TIP3   OH227163   4.978   6.295  15.686 -0.5257  0.3177  0.8775
 1891TIP3    H127164   4.976   6.390  15.685 -0.9373  0.3422  2.3211
 1891TIP3    H227165   5.048   6.272  15.624 -1.8310  1.4519 -1.1135
 1892TIP3   OH227166   3.136   0.890   0.310 -0.0189 -0.3666 -0.0759
 1892TIP3    H127167   3.083   0.834   0.253 -0.3691 -1.1637  1.0098
 1892TIP3    H227168   3.114   0.862   0.398  1.5684 -0.1088  0.4313
 1893TIP3   OH227169   5.435   6.290  14.375  0.0138  0.1378 -0.0624
 1893TIP3    H127170   5.512   6.297  14.320 -0.2188  0.4767 -0.3497
 1893TIP3    H227171   5.398   6.204  14.355  0.8396 -0.4269  0.7769
 1894TIP3   OH227172   5.448   5.689   0.992  0.0890 -0.2473 -0.6539
 1894TIP3    H127173   5.477   5.619   0.934 -1.5147 -0.8559 -0.7614
 1894TIP3    H227174   5.376   5.731   0.945 -2.1450 -1.5868  1.3384
 1895TIP3   OH227175   2.402   2.132  12.976 -0.1071  0.8162  0.4039
 1895TIP3    H127176   2.376   2.190  12.904 -2.0227  0.0711  0.4130
 1895TIP3    H227177   2.361   2.170  13.054 -1.6779 -0.6204  0.3593
 1896TIP3   OH227178   6.023   0.720   2.795 -0.0185 -0.4183 -0.1749
 1896TIP3    H127179   5.951   0.668   2.761 -1.6672  1.0914  0.8332
 1896TIP3    H227180   6.042   0.783   2.725 -0.9721  0.3689  0.2471
 1897TIP3   OH227181   0.646   6.513  11.439 -0.3686 -0.0535  0.6042
 1897TIP3    H127182   0.652   6.601  11.477  0.7612  0.1592 -0.0435
 1897TIP3    H227183   0.639   6.528  11.345 -0.1020 -0.6649  0.4835
 1898TIP3   OH227184   2.115   0.243  14.368  0.4233 -0.0122  0.5003
 1898TIP3    H127185   2.191   0.196  14.402  0.0653 -2.5358 -1.8180
 1898TIP3    H227186   2.040   0.194  14.401 -0.0500  0.2097 -0.2036
 1899TIP3   OH227187   6.688   5.598   5.635 -0.0040  0.2574  0.3964
 1899TIP3    H127188   6.608   5.604   5.582 -0.0566 -0.9257  0.3255
 1899TIP3    H227189   6.706   5.688   5.661 -1.0875  0.6003  0.0042
 1900TIP3   OH227190   3.194   1.111   0.113  0.9038 -0.4479 -0.0411
 1900TIP3    H127191   3.284   1.116   0.080  0.5507 -0.0992 -0.9475
 1900TIP3    H227192   3.200   1.048   0.185  2.1934  0.7816  0.9967
 1901TIP3   OH227193   3.464   3.831  12.290  0.0038  0.6398 -0.1469
 1901TIP3    H127194   3.519   3.759  12.259 -0.2595  0.5256 -0.3492
 1901TIP3    H227195   3.421   3.796  12.368  2.0439  1.5102  1.4718
 1902TIP3   OH227196   5.402   1.821   1.029 -0.0517 -0.1297  0.0786
 1902TIP3    H127197   5.465   1.771   0.978 -1.1385 -0.3896 -1.0653
 1902TIP3    H227198   5.436   1.820   1.119  0.3367 -2.2766 -0.0506
 1903TIP3   OH227199   2.315   5.116  13.952  0.0100 -0.5406  0.0812
 1903TIP3    H127200   2.268   5.033  13.945 -1.4984  0.2899 -0.2477
 1903TIP3    H227201   2.284   5.154  14.035 -0.7257  0.4660 -0.6138
 1904TIP3   OH227202   0.318   5.081  11.828  0.5398  0.2592 -0.3995
 1904TIP3    H127203   0.370   5.147  11.782 -0.0283  0.6775 -0.4572
 1904TIP3    H227204   0.310   5.008  11.766 -0.0950  0.7562 -0.9164
 1905TIP3   OH227205   2.684   5.915  13.277 -0.1143 -0.4116  0.3570
 1905TIP3    H127206   2.636   5.949  13.354  0.0313 -0.2535  0.3789
 1905TIP3    H227207   2.653   5.969  13.205  0.5790  0.1901  0.4968
 1906TIP3   OH227208   4.831   0.189   1.699  0.2951 -0.1330 -0.1621
 1906TIP3    H127209   4.849   0.279   1.726  0.1510  0.2353 -1.2705
 1906TIP3    H227210   4.812   0.195   1.606 -1.1441 -1.1117  0.0331
 1907TIP3   OH227211   4.093   5.437  14.050 -0.3825 -0.3322 -0.4517
 1907TIP3    H127212   4.088   5.488  13.969  0.1419 -1.1654 -1.0163
 1907TIP3    H227213   4.027   5.368  14.039 -0.7255 -0.0988  0.0901
 1908TIP3   OH227214   2.162   6.453   5.619 -0.3963  0.1046 -0.3266
 1908TIP3    H127215   2.084   6.509   5.622  1.1697  2.4896 -0.9932
 1908TIP3    H227216   2.200   6.460   5.706 -0.8566 -1.0167 -0.0178
 1909TIP3   OH227217   2.640   0.320   2.454 -0.0221 -0.3374 -0.2025
 1909TIP3    H127218   2.597   0.308   2.370 -1.4094  1.5852  0.1697
 1909TIP3    H227219   2.569   0.320   2.518  0.9607 -1.2565  0.9252
 1910TIP3   OH227220   3.015   2.939   6.105 -0.8920 -0.3392 -0.1896
 1910TIP3    H127221   3.074   2.866   6.124  0.0263  0.2465 -0.7107
 1910TIP3    H227222   2.932   2.914   6.146 -0.1721 -0.9913  0.9468
 1911TIP3   OH227223   3.648   5.389   3.985  0.7046  0.1337  0.1959
 1911TIP3    H127224   3.601   5.445   4.047 -1.4191 -1.0286 -0.2650
 1911TIP3    H227225   3.697   5.328   4.040  2.5355  1.9388  0.6934
 1912TIP3   OH227226   0.718   2.608  17.084  0.5320  0.1531 -0.8514
 1912TIP3    H127227   0.790   2.573  17.136 -0.6802 -1.4536 -0.1881
 1912TIP3    H227228   0.761   2.647  17.008  2.0901 -1.0304 -0.6377
 1913TIP3   OH227229   6.445   0.412  16.357 -0.2789 -0.0929 -0.3715
 1913TIP3    H127230   6.466   0.399  16.264  0.6904 -1.8442  0.0480
 1913TIP3    H227231   6.529   0.405  16.402 -0.7513  0.6252  0.6657
 1914TIP3   OH227232   1.928   4.053  16.259  0.1894  0.1022 -0.4126
 1914TIP3    H127233   1.940   4.146  16.275  1.8135  0.1473 -1.6721
 1914TIP3    H227234   2.009   4.012  16.291  0.0131 -0.7206 -0.9904
 1915TIP3   OH227235   4.373   1.879  11.207 -0.8895  0.1173 -0.1090
 1915TIP3    H127236   4.444   1.867  11.144 -2.4340  0.1335 -1.9252
 1915TIP3    H227237   4.344   1.969  11.193 -1.5161 -0.0070  0.3529
 1916TIP3   OH227238   3.043   3.217   6.156  0.2745 -0.0485  0.2753
 1916TIP3    H127239   3.058   3.231   6.062  1.5524  1.9037  0.6994
 1916TIP3    H227240   3.053   3.123   6.168  0.5963 -0.2752 -1.4698
 1917TIP3   OH227241   0.119   5.183   0.024  0.2766 -0.6953 -0.0556
 1917TIP3    H127242   0.127   5.264   0.074  2.5442 -0.5771 -0.5283
 1917TIP3    H227243   0.031   5.152   0.044 -1.3098  2.6721 -1.0613
 1918TIP3   OH227244   5.882   3.777   2.156  0.5827 -0.0937  0.4346
 1918TIP3    H127245   5.882   3.684   2.179  0.7255 -0.4034 -0.7555
 1918TIP3    H227246   5.968   3.792   2.117 -0.2597 -0.0364 -1.5224
 1919TIP3   OH227247   0.436   0.115   0.921 -0.8216 -0.1470  0.2174
 1919TIP3    H127248   0.400   0.154   0.842 -0.3838  2.6299  1.2633
 1919TIP3    H227249   0.413   0.177   0.991  1.9428 -0.5382  1.6353
 1920TIP3   OH227250   6.031   3.566  13.424  0.7430  0.3654  0.2588
 1920TIP3    H127251   5.953   3.530  13.468  0.4592 -0.9041 -1.1878
 1920TIP3    H227252   6.105   3.531  13.475  0.3996  0.0408  0.5404
 1921TIP3   OH227253   3.472   1.243   4.891 -0.5979  0.6355  0.3072
 1921TIP3    H127254   3.535   1.178   4.919  1.5024  2.4579  0.0527
 1921TIP3    H227255   3.390   1.194   4.880  0.6142 -1.7080  1.1237
 1922TIP3   OH227256   4.167   1.202  11.655  0.2332  0.0959 -0.3583
 1922TIP3    H127257   4.187   1.288  11.690  0.0084 -0.2903  0.7872
 1922TIP3    H227258   4.095   1.170  11.710  0.5615 -0.9707 -0.5156
 1923TIP3   OH227259   0.700   0.533  16.182  0.0125 -0.0163  0.5392
 1923TIP3    H127260   0.698   0.622  16.147  1.0039 -0.3980 -0.5462
 1923TIP3    H227261   0.633   0.486  16.133  1.3279 -0.5238 -0.8368
 1924TIP3   OH227262   6.847   2.643   5.873  0.6333  0.2602  0.1868
 1924TIP3    H127263   6.917   2.605   5.926  2.0892  2.6947  0.1659
 1924TIP3    H227264   6.777   2.579   5.876  2.7086 -2.1681  0.5153
 1925TIP3   OH227265   0.599   3.667   3.547  0.7055 -0.5689 -0.3807
 1925TIP3    H127266   0.621   3.705   3.461  0.8117 -0.8406 -0.4757
 1925TIP3    H227267   0.535   3.598   3.527  1.6781 -1.4923 -0.3894
 1926TIP3   OH227268   4.996   2.404   1.084 -0.6320  0.6559  0.3434
 1926TIP3    H127269   5.085   2.383   1.054 -1.3033 -1.2504 -0.4719
 1926TIP3    H227270   4.974   2.334   1.145 -1.7004  0.9079  0.2638
 1927TIP3   OH227271   3.764   3.860   1.799 -0.0432  0.0718 -0.2812
 1927TIP3    H127272   3.851   3.876   1.835  0.7073  1.0210 -2.3702
 1927TIP3    H227273   3.770   3.889   1.708 -2.7982  0.9661 -0.2543
 1928TIP3   OH227274   5.791   2.383   3.709 -0.5428  0.1085 -0.2123
 1928TIP3    H127275   5.722   2.391   3.643 -1.4140 -0.6165  0.5961
 1928TIP3    H227276   5.758   2.431   3.785  0.8220  1.6678 -0.5385
 1929TIP3   OH227277   0.984   3.733   4.086 -0.0254 -0.2295  0.3128
 1929TIP3    H127278   0.908   3.716   4.141  0.3693 -2.2519  0.3297
 1929TIP3    H227279   1.052   3.763   4.148 -0.4124  0.3139  0.4822
 1930TIP3   OH227280   5.531   5.002  14.149 -0.0499  0.3294 -0.0301
 1930TIP3    H127281   5.440   4.975  14.147  0.4895 -1.7419  0.4596
 1930TIP3    H227282   5.569   4.952  14.222  1.8903 -0.3653 -1.4265
 1931TIP3   OH227283   1.610   0.722   0.628 -0.4202 -0.4028  0.5378
 1931TIP3    H127284   1.524   0.764   0.623 -0.8080 -1.0218  1.7050
 1931TIP3    H227285   1.672   0.794   0.613 -1.1204 -0.0387 -0.8291
 1932TIP3   OH227286   3.630   1.746  11.924  0.4948  0.3871  0.2819
 1932TIP3    H127287   3.631   1.839  11.901  1.3414  0.2743 -0.1803
 1932TIP3    H227288   3.667   1.702  11.847  0.2257 -0.3209  0.5489
 1933TIP3   OH227289   1.984   5.694  11.303  0.4708 -0.3402  0.3298
 1933TIP3    H127290   1.896   5.716  11.335  0.8674  1.9909 -0.0135
 1933TIP3    H227291   1.968   5.644  11.223 -0.5058 -1.3917  1.1387
 1934TIP3   OH227292   1.755   6.721  15.869 -0.1306 -0.8753  0.1046
 1934TIP3    H127293   1.724   6.632  15.886  0.5540 -0.7922  2.0076
 1934TIP3    H227294   1.676   6.775  15.876 -0.0344 -0.9232  2.8392
 1935TIP3   OH227295   3.924   4.606  12.327 -0.5268  0.2172  0.5437
 1935TIP3    H127296   4.013   4.575  12.311 -0.6798  0.0186  0.0583
 1935TIP3    H227297   3.936   4.693  12.366 -0.1213  0.1916  0.4891
 1936TIP3   OH227298   6.482   0.776  16.461 -0.4099 -0.1805  0.1551
 1936TIP3    H127299   6.540   0.827  16.518 -1.0738 -1.0347  1.6386
 1936TIP3    H227300   6.415   0.740  16.520 -0.9890 -1.2897 -1.1248
 1937TIP3   OH227301   3.034   6.016  12.106  0.2487 -0.1337  0.4044
 1937TIP3    H127302   3.113   6.039  12.155  0.7364 -2.1285  0.6148
 1937TIP3    H227303   3.053   5.931  12.067 -1.0245  0.3168 -1.3154
 1938TIP3   OH227304   2.930   1.074  14.436  0.2247  0.0362  0.2279
 1938TIP3    H127305   2.897   1.049  14.349  1.4336 -1.4575  0.1420
 1938TIP3    H227306   2.962   1.163  14.425  0.6759 -0.2577 -0.9630
 1939TIP3   OH227307   5.627   2.418   3.495  0.1894  0.1656  0.0380
 1939TIP3    H127308   5.622   2.485   3.427  0.5692  1.1844  0.9849
 1939TIP3    H227309   5.581   2.343   3.458  0.4545  0.6612 -1.3681
 1940TIP3   OH227310   1.859   3.391  12.652  0.7075  0.4453 -0.2881
 1940TIP3    H127311   1.920   3.464  12.667  0.7346  0.4781 -0.5452
 1940TIP3    H227312   1.911   3.326  12.605  1.0988 -0.3671  1.2020
 1941TIP3   OH227313   2.816   6.527  16.886  0.1992 -0.4121  0.3437
 1941TIP3    H127314   2.752   6.457  16.893 -0.1629 -0.2689 -1.1567
 1941TIP3    H227315   2.892   6.487  16.844  0.1236  0.0020 -0.1970
 1942TIP3   OH227316   2.947   6.191  10.562  0.2588 -0.4261  0.4778
 1942TIP3    H127317   2.983   6.126  10.623  2.6549 -0.2495 -0.6439
 1942TIP3    H227318   2.917   6.139  10.487  0.6500 -0.3762  0.2848
 1943TIP3   OH227319   2.650   3.061  15.358 -0.4343 -0.3911 -0.1019
 1943TIP3    H127320   2.587   3.124  15.322 -1.1265 -1.5840 -1.0837
 1943TIP3    H227321   2.620   2.976  15.324  1.2889 -1.0784  0.0249
 1944TIP3   OH227322   6.492   6.128  10.335  0.0101 -0.2921 -0.1182
 1944TIP3    H127323   6.468   6.210  10.378 -1.5503 -1.1499  0.7115
 1944TIP3    H227324   6.518   6.154  10.246  0.8837  1.2307  0.5473
 1945TIP3   OH227325   1.252   4.356   1.599  0.2282  0.1215 -0.5040
 1945TIP3    H127326   1.318   4.290   1.622 -0.0562  0.0177  0.0258
 1945TIP3    H227327   1.303   4.435   1.581  0.5156 -0.0217 -0.3279
 1946TIP3   OH227328   6.832   4.129  14.263  0.1411  0.1862  0.4890
 1946TIP3    H127329   6.805   4.162  14.177  0.7753  1.8065  0.8756
 1946TIP3    H227330   6.755   4.082  14.296 -0.2734 -0.0319 -0.7373
 1947TIP3   OH227331   0.992   6.290  13.900  0.5697 -0.4184 -0.2662
 1947TIP3    H127332   1.000   6.204  13.859 -0.2699 -1.4348  1.5785
 1947TIP3    H227333   1.081   6.312  13.929  1.1324  0.2238 -2.3410
 1948TIP3   OH227334   0.044   6.518  14.136 -0.1404 -0.3938  0.6294
 1948TIP3    H127335   0.095   6.519  14.055  3.5340  0.3605  2.7364
 1948TIP3    H227336   0.063   6.602  14.178 -1.6864 -0.8798  2.4656
 1949TIP3   OH227337   3.154   2.524   2.917  0.3180 -0.3568  0.4616
 1949TIP3    H127338   3.222   2.483   2.971  0.1652 -0.7772  0.3424
 1949TIP3    H227339   3.099   2.571   2.980  1.0062  0.4045  0.5008
 1950TIP3   OH227340   1.059   4.794  12.053  0.3258  0.2092 -0.0909
 1950TIP3    H127341   1.024   4.879  12.027 -0.3970 -0.4121 -1.2019
 1950TIP3    H227342   0.982   4.738  12.061  0.7744 -0.2859  0.9045
 1951TIP3   OH227343   0.416   1.624  15.574  0.4220  0.6682  0.1289
 1951TIP3    H127344   0.328   1.663  15.572 -0.0265 -0.1658  1.8236
 1951TIP3    H227345   0.429   1.598  15.665  1.0986 -2.2277 -0.6817
 1952TIP3   OH227346   5.530   1.959   5.667 -0.0681  0.2973  0.5100
 1952TIP3    H127347   5.588   1.939   5.593 -0.4540  1.7971 -0.2219
 1952TIP3    H227348   5.450   1.910   5.648  0.8538 -1.7213  1.4852
 1953TIP3   OH227349   0.612   4.504   2.405 -0.0785 -0.2365 -0.8201
 1953TIP3    H127350   0.679   4.505   2.474  1.8846 -2.8584 -2.5167
 1953TIP3    H227351   0.624   4.588   2.360 -0.3921  0.8590  1.0359
 1954TIP3   OH227352   4.911   5.770  12.716 -0.3233 -0.4166 -0.3677
 1954TIP3    H127353   4.946   5.854  12.687 -2.0023  0.2439 -0.5938
 1954TIP3    H227354   4.844   5.748  12.651  0.6537 -2.3797 -0.7952
 1955TIP3   OH227355   5.991   1.655  11.454 -0.2423 -0.6502 -0.4336
 1955TIP3    H127356   5.918   1.675  11.396 -1.2778  1.2758  1.4246
 1955TIP3    H227357   5.958   1.672  11.542  2.4825  0.5668  0.4670
 1956TIP3   OH227358   5.615   2.694   0.889 -0.1713  0.0578  0.2618
 1956TIP3    H127359   5.560   2.740   0.826 -0.0083 -0.1473 -0.0325
 1956TIP3    H227360   5.624   2.606   0.853  1.0604  0.3330 -0.1407
 1957TIP3   OH227361   6.089   0.555  13.273 -0.6825  0.2161  0.3340
 1957TIP3    H127362   6.044   0.531  13.192  0.1977 -1.5138  0.3272
 1957TIP3    H227363   6.133   0.475  13.302 -0.9038  0.8133  2.5011
 1958TIP3   OH227364   4.211   2.385  13.697  0.3671  0.1730  0.3218
 1958TIP3    H127365   4.249   2.384  13.609  0.0242 -0.7078  0.1738
 1958TIP3    H227366   4.118   2.368  13.683  0.5816 -1.7347  0.9615
 1959TIP3   OH227367   3.127   2.574  12.034  0.0828  0.2136 -0.4862
 1959TIP3    H127368   3.141   2.658  12.077  0.9404 -0.9814  1.7016
 1959TIP3    H227369   3.215   2.544  12.009 -0.0397 -0.7121  0.1447
 1960TIP3   OH227370   6.796   5.303  12.818 -0.0670 -0.1893 -0.2652
 1960TIP3    H127371   6.867   5.332  12.876 -1.5410 -1.8652  2.6066
 1960TIP3    H227372   6.728   5.370  12.829  0.7560  1.1562 -2.6382
 1961TIP3   OH227373   4.691   6.039  16.464  0.0529 -0.0850 -0.4422
 1961TIP3    H127374   4.757   6.108  16.456 -0.4368  0.2958 -1.3618
 1961TIP3    H227375   4.618   6.070  16.411  0.2106 -1.7838 -1.7229
 1962TIP3   OH227376   0.114   1.044  16.482  0.0001 -0.2151 -0.5885
 1962TIP3    H127377   0.026   1.067  16.452 -0.5293 -1.3024  0.0890
 1962TIP3    H227378   0.100   0.991  16.560  1.1925 -1.7723 -1.3693
 1963TIP3   OH227379   2.703   4.822  11.898  0.1165  0.5444  0.5664
 1963TIP3    H127380   2.677   4.730  11.902 -1.5786  1.0147  1.0982
 1963TIP3    H227381   2.778   4.829  11.957  0.2416 -0.4706  0.5372
 1964TIP3   OH227382   2.327   4.838   4.973  0.0328  0.7023 -0.3425
 1964TIP3    H127383   2.250   4.850   5.029  0.8924  1.9480  0.6290
 1964TIP3    H227384   2.358   4.750   4.992  0.7854  1.3842  1.8069
 1965TIP3   OH227385   1.100   1.230  10.970 -0.2639  0.0494  0.3303
 1965TIP3    H127386   1.173   1.274  10.928 -0.3555  0.1822  0.3112
 1965TIP3    H227387   1.022   1.274  10.937 -0.3907 -0.5286 -0.1672
 1966TIP3   OH227388   3.081   5.446   2.471 -0.4064  1.0139  0.3590
 1966TIP3    H127389   3.079   5.358   2.509  0.2264  0.8051 -0.0839
 1966TIP3    H227390   3.012   5.445   2.404 -0.6318  0.9721  0.5879
 1967TIP3   OH227391   3.715   6.442   5.456  0.2658 -0.4191  0.1436
 1967TIP3    H127392   3.808   6.456   5.441  0.4913 -1.1006  0.8166
 1967TIP3    H227393   3.695   6.361   5.409  0.1109 -0.4898  0.3277
 1968TIP3   OH227394   0.034   1.535  14.096 -0.1735 -0.3987  0.1200
 1968TIP3    H127395   0.023   1.443  14.121  1.2345 -0.2498  1.4692
 1968TIP3    H227396   0.029   1.582  14.179  1.7440  0.4613 -0.2160
 1969TIP3   OH227397   1.569   3.839  13.474 -0.5626 -0.8556  0.2206
 1969TIP3    H127398   1.643   3.830  13.534 -1.6450  1.7751  2.1273
 1969TIP3    H227399   1.609   3.844  13.387  1.4856  0.1441  1.1571
 1970TIP3   OH227400   4.791   3.581  11.880 -0.8744 -0.1792  0.4999
 1970TIP3    H127401   4.784   3.666  11.835 -0.9358  0.5625  1.8713
 1970TIP3    H227402   4.865   3.592  11.939 -3.4329  0.4665  3.8472
 1971TIP3   OH227403   2.836   1.897  10.992  0.3062 -0.3075  0.4594
 1971TIP3    H127404   2.787   1.817  10.972  0.0608 -0.4104  1.4142
 1971TIP3    H227405   2.897   1.907  10.919 -1.3046 -0.0424 -0.9047
 1972TIP3   OH227406   6.473   4.076  12.649 -0.0226  1.1333 -0.0873
 1972TIP3    H127407   6.427   3.992  12.641  0.5865  0.9158 -1.7179
 1972TIP3    H227408   6.545   4.059  12.709  0.7937  0.1400 -1.3029
 1973TIP3   OH227409   6.572   0.178  16.747 -0.2797 -0.2033  0.2133
 1973TIP3    H127410   6.600   0.212  16.831 -1.1524  1.1900 -0.0325
 1973TIP3    H227411   6.648   0.187  16.690  0.2847 -1.0656  0.8084
 1974TIP3   OH227412   1.278   0.231  11.614 -0.2077 -0.1172 -0.2458
 1974TIP3    H127413   1.330   0.282  11.551 -1.3304  0.8402 -0.4493
 1974TIP3    H227414   1.332   0.227  11.692  0.6123 -0.0624 -0.7925
 1975TIP3   OH227415   1.859   1.902   2.526  0.3724  0.0797  0.5696
 1975TIP3    H127416   1.841   1.881   2.618  2.6676  0.0345  1.0833
 1975TIP3    H227417   1.911   1.827   2.494  1.3804  1.0335 -0.1169
 1976TIP3   OH227418   0.162   1.646   1.972 -0.0729  0.1181 -1.0872
 1976TIP3    H127419   0.099   1.716   1.989  1.0662  0.9461 -0.0685
 1976TIP3    H227420   0.136   1.610   1.887 -3.0493 -0.8781  0.1032
 1977TIP3   OH227421   2.838   1.770  12.816 -0.3512  0.1432 -0.0158
 1977TIP3    H127422   2.774   1.699  12.826 -1.9652  1.4060 -1.0386
 1977TIP3    H227423   2.920   1.732  12.850 -0.8750 -2.5829 -1.4746
 1978TIP3   OH227424   3.220   5.809  14.191 -0.1787 -0.2223  0.0794
 1978TIP3    H127425   3.152   5.765  14.242  0.2952 -0.7879  0.2403
 1978TIP3    H227426   3.220   5.763  14.107 -0.2000 -0.0203 -0.0322
 1979TIP3   OH227427   1.495   3.285  17.118  0.0170 -0.2063  0.0126
 1979TIP3    H127428   1.450   3.302  17.035 -0.1997  1.0399  0.3718
 1979TIP3    H227429   1.515   3.372  17.153 -0.0605 -0.7081  1.3652
 1980TIP3   OH227430   1.126   1.771   2.837  0.2832 -0.4407 -1.0091
 1980TIP3    H127431   1.211   1.811   2.820  0.1916 -0.0642 -0.5780
 1980TIP3    H227432   1.063   1.842   2.826  0.0286 -0.7060 -1.2742
 1981TIP3   OH227433   6.172   3.988  15.040  0.1705  0.4946 -0.3935
 1981TIP3    H127434   6.090   4.004  15.088  0.3313  0.9055 -0.2504
 1981TIP3    H227435   6.160   3.902  15.000  0.3059 -0.1759  0.9569
 1982TIP3   OH227436   5.444   3.403  12.064  0.0831  0.3565  0.1437
 1982TIP3    H127437   5.533   3.369  12.075  0.6148  0.8652 -2.0317
 1982TIP3    H227438   5.401   3.388  12.148  1.5118 -2.0068  0.5344
 1983TIP3   OH227439   0.907   0.827  13.474 -0.1315  0.6840  0.1797
 1983TIP3    H127440   0.980   0.774  13.442 -0.5563  0.1587  0.0614
 1983TIP3    H227441   0.901   0.806  13.567 -0.7436 -0.0266 -0.0095
 1984TIP3   OH227442   2.890   3.705   2.584 -0.1797 -0.1201 -0.5642
 1984TIP3    H127443   2.834   3.735   2.655 -0.0936 -1.4812  0.1251
 1984TIP3    H227444   2.964   3.663   2.628  0.2019 -0.4235 -1.4577
 1985TIP3   OH227445   5.410   2.795  14.938  0.0701  0.1337 -0.0775
 1985TIP3    H127446   5.495   2.810  14.978 -0.3506 -0.9580  1.3215
 1985TIP3    H227447   5.361   2.876  14.952  1.2834  1.2961 -2.1225
 1986TIP3   OH227448   4.970   2.999   4.028 -0.1797 -0.4523 -0.1104
 1986TIP3    H127449   5.052   2.964   3.994  0.9836  0.1387  1.9138
 1986TIP3    H227450   4.959   2.956   4.113 -1.0231  0.8017  0.4435
 1987TIP3   OH227451   3.328   3.131   2.671 -0.1599 -0.1908  0.2335
 1987TIP3    H127452   3.390   3.122   2.743  1.1922  0.7048 -0.7680
 1987TIP3    H227453   3.380   3.117   2.592 -1.5384 -0.8267 -0.5951
 1988TIP3   OH227454   4.854   2.559  12.157 -0.0668  0.7150 -0.2791
 1988TIP3    H127455   4.901   2.500  12.217 -0.8046  1.2806  0.8873
 1988TIP3    H227456   4.924   2.602  12.108  0.4858 -1.6431 -1.7291
 1989TIP3   OH227457   0.024   4.909   2.760 -0.2563  0.1314 -0.0409
 1989TIP3    H127458   0.001   4.830   2.809  0.2036  0.2977  0.4617
 1989TIP3    H227459   0.015   4.884   2.668  1.9028 -1.1730  0.0412
 1990TIP3   OH227460   4.033   3.392   2.917 -0.4886 -0.0025 -0.9149
 1990TIP3    H127461   4.012   3.406   3.009 -0.6395 -0.0750 -0.9378
 1990TIP3    H227462   4.075   3.473   2.889 -2.3200  0.8452 -1.3338
 1991TIP3   OH227463   3.906   0.196  16.774  0.2927  0.1189 -0.1684
 1991TIP3    H127464   3.812   0.201  16.757  0.5131 -0.1859 -1.6137
 1991TIP3    H227465   3.946   0.248  16.704  1.2538 -0.6261 -0.2008
 1992TIP3   OH227466   0.970   1.776  14.124 -0.1036 -0.1644  0.8995
 1992TIP3    H127467   1.022   1.781  14.204  0.1876  1.0986  0.6490
 1992TIP3    H227468   1.015   1.712  14.069 -0.2767 -1.0001  1.7103
 1993TIP3   OH227469   1.348   2.766  13.282 -0.2582  0.7937 -0.2517
 1993TIP3    H127470   1.341   2.770  13.378 -2.1326 -0.4583 -0.2804
 1993TIP3    H227471   1.281   2.826  13.250 -1.0793 -0.3587 -0.7458
 1994TIP3   OH227472   4.368   0.018   2.252 -0.0965  0.0797 -0.2404
 1994TIP3    H127473   4.364   0.092   2.313 -0.6643  0.1086 -0.3110
 1994TIP3    H227474   4.394   0.057   2.169  2.1237 -0.1539  0.2917
 1995TIP3   OH227475   3.483   4.553   1.071 -0.2688 -0.0205  0.3831
 1995TIP3    H127476   3.495   4.576   0.979  1.9548 -0.3780  0.5388
 1995TIP3    H227477   3.392   4.577   1.090 -0.8968 -0.2909 -1.9854
 1996TIP3   OH227478   5.049   3.880  16.168  0.0606  0.5379 -0.6774
 1996TIP3    H127479   5.013   3.917  16.088 -1.3522 -0.1310 -0.4024
 1996TIP3    H227480   5.067   3.956  16.224  0.1169  0.9567 -1.2587
 1997TIP3   OH227481   0.225   1.847   5.850  0.2374  0.4498 -0.6846
 1997TIP3    H127482   0.132   1.856   5.874 -0.0721  0.4741 -1.8220
 1997TIP3    H227483   0.239   1.914   5.783  0.2560 -1.5032 -2.7516
 1998TIP3   OH227484   4.656   3.367  10.614 -0.2949  0.1815 -0.3881
 1998TIP3    H127485   4.613   3.435  10.562 -0.4316  0.5672  0.2240
 1998TIP3    H227486   4.738   3.350  10.568 -1.4371 -1.1671 -2.0652
 1999TIP3   OH227487   4.219   3.884  16.318 -0.3067 -0.9203 -0.4287
 1999TIP3    H127488   4.270   3.807  16.293 -1.8135 -2.4572  0.9660
 1999TIP3    H227489   4.204   3.931  16.236  2.4857 -0.8796 -1.0046
 2000TIP3   OH227490   1.532   1.080   1.805  0.2957 -0.1596 -0.6371
 2000TIP3    H127491   1.556   0.989   1.825 -2.2095 -0.9387 -0.8700
 2000TIP3    H227492   1.454   1.096   1.859  0.8757  1.9891 -0.3565
 2001TIP3   OH227493   6.031   1.394   5.162 -0.4709  0.2286 -0.2182
 2001TIP3    H127494   5.990   1.477   5.139 -1.4696 -0.7243 -2.1251
 2001TIP3    H227495   6.016   1.338   5.086 -1.4234 -2.2814  1.7005
 2002TIP3   OH227496   0.873   6.023   1.734  0.3969  0.1241  0.0608
 2002TIP3    H127497   0.808   6.028   1.664 -0.0221  1.0439  0.5077
 2002TIP3    H227498   0.943   6.082   1.705  1.8925 -2.1489 -1.2565
 2003TIP3   OH227499   5.313   0.848   1.081  0.3915  0.5781  0.1918
 2003TIP3    H127500   5.297   0.924   1.136 -0.5132  0.2340  0.4139
 2003TIP3    H227501   5.384   0.800   1.125 -2.1168 -1.1753  2.6462
 2004TIP3   OH227502   5.263   2.016  13.452 -0.0891 -0.8518 -0.1515
 2004TIP3    H127503   5.312   1.956  13.395  0.4940 -1.3029  0.8006
 2004TIP3    H227504   5.231   2.084  13.393  2.2107 -0.1886 -0.7449
 2005TIP3   OH227505   0.730   3.287   0.868  0.2445 -0.4577  0.3186
 2005TIP3    H127506   0.719   3.330   0.783 -1.0709 -2.0848 -0.3982
 2005TIP3    H227507   0.696   3.349   0.932 -1.1836 -0.2243 -0.6272
 2006TIP3   OH227508   6.333   3.951   2.213 -0.0185 -0.1381 -0.1683
 2006TIP3    H127509   6.300   3.950   2.123  1.2921  0.3140 -0.6853
 2006TIP3    H227510   6.282   4.020   2.256 -1.4578 -1.1243 -0.2085
 2007TIP3   OH227511   4.336   5.866  12.329 -0.3108 -0.2945 -0.3309
 2007TIP3    H127512   4.276   5.912  12.388 -0.6083 -1.2995  0.1720
 2007TIP3    H227513   4.413   5.923  12.325 -0.4131 -0.0448  0.7838
 2008TIP3   OH227514   6.228   2.310  16.450 -0.0086  0.0299  0.1141
 2008TIP3    H127515   6.287   2.352  16.387  0.9611 -1.1809  0.1740
 2008TIP3    H227516   6.249   2.352  16.534 -0.3227  0.6743 -0.1264
 2009TIP3   OH227517   0.892   5.329   1.973  0.8156  0.2812  0.2533
 2009TIP3    H127518   0.971   5.368   1.935  0.3240 -0.0642 -1.2044
 2009TIP3    H227519   0.821   5.386   1.942  0.5123  0.9130  2.0027
 2010TIP3   OH227520   4.757   2.949  11.261 -0.2615 -0.0177  0.2309
 2010TIP3    H127521   4.663   2.967  11.251  0.2174  1.9202 -1.4002
 2010TIP3    H227522   4.776   2.972  11.352 -1.0583  1.2913  0.0957
 2011TIP3   OH227523   2.528   6.005  15.313 -0.1315 -0.4511 -0.0746
 2011TIP3    H127524   2.602   5.962  15.355  1.5809  2.5513  0.2059
 2011TIP3    H227525   2.567   6.057  15.243 -2.0394  0.8006 -0.2743
 2012TIP3   OH227526   0.874   5.853  13.154  0.2905 -0.4755 -0.2428
 2012TIP3    H127527   0.935   5.874  13.084  0.7679 -2.8161 -0.6336
 2012TIP3    H227528   0.926   5.804  13.218 -0.1463  1.5758  1.7912
 2013TIP3   OH227529   4.959   0.605   5.927  0.4695  0.1352  0.1332
 2013TIP3    H127530   4.890   0.617   5.861 -0.8081  2.7286  1.7715
 2013TIP3    H227531   4.933   0.525   5.973  0.4790 -0.7957 -1.4121
 2014TIP3   OH227532   4.824   3.987  13.188 -0.4192  0.4633 -0.6029
 2014TIP3    H127533   4.732   3.966  13.203  0.1210 -0.4271  1.8559
 2014TIP3    H227534   4.859   4.006  13.275  1.5479  1.6253 -1.5791
 2015TIP3   OH227535   2.941   1.783   0.665  0.7233  0.3399 -0.6198
 2015TIP3    H127536   2.887   1.861   0.657  1.1028  0.6219 -0.4730
 2015TIP3    H227537   2.880   1.714   0.693  0.7616  1.0959  1.5237
 2016TIP3   OH227538   4.899   1.146   1.706 -0.1620  0.4172 -0.1336
 2016TIP3    H127539   4.880   1.052   1.704  0.6799  0.2336  0.1503
 2016TIP3    H227540   4.986   1.154   1.668  0.0141  1.0203  0.3787
 2017TIP3   OH227541   0.995   6.177   1.493 -0.7889  0.0392 -0.4646
 2017TIP3    H127542   1.049   6.154   1.417  0.0630  0.0560  0.1157
 2017TIP3    H227543   0.912   6.207   1.456  0.1807  1.6026 -1.4745
 2018TIP3   OH227544   4.641   3.399  12.553 -0.1654  0.4566  0.1208
 2018TIP3    H127545   4.619   3.447  12.473  3.5812  1.0342 -0.7582
 2018TIP3    H227546   4.684   3.319  12.522 -0.4726 -0.3074  1.5865
 2019TIP3   OH227547   6.737   4.167   2.141 -0.4648 -0.1468 -0.3746
 2019TIP3    H127548   6.748   4.240   2.080  0.3123 -0.0645 -0.1498
 2019TIP3    H227549   6.653   4.183   2.183 -0.0442  0.9527  0.0934
 2020TIP3   OH227550   6.042   3.003  14.768  0.1299  0.2863 -0.1106
 2020TIP3    H127551   6.058   3.010  14.862 -1.0734 -1.4367  0.2693
 2020TIP3    H227552   6.012   2.913  14.756  1.9091 -0.0856 -2.4176
 2021TIP3   OH227553   6.428   5.149   5.637  0.0434  1.1670  0.0722
 2021TIP3    H127554   6.512   5.119   5.671 -0.0990  1.5981  0.8202
 2021TIP3    H227555   6.392   5.073   5.591  0.7262  0.9083 -0.0458
 2022TIP3   OH227556   0.278   2.038  12.675  0.6801  0.3477 -0.3802
 2022TIP3    H127557   0.220   1.982  12.624  1.4433 -1.6815  0.8983
 2022TIP3    H227558   0.220   2.087  12.733 -0.0389  1.4333 -1.9249
 2023TIP3   OH227559   3.091   5.253  12.220  0.3199  0.6858  0.7142
 2023TIP3    H127560   3.151   5.180  12.210  0.3690  0.6343  1.3443
 2023TIP3    H227561   3.146   5.331  12.210  0.3028  0.6396  0.2450
 2024TIP3   OH227562   6.776   6.654   6.372  0.4411 -0.3603 -0.4065
 2024TIP3    H127563   6.708   6.693   6.317  2.0444 -0.0831 -2.3329
 2024TIP3    H227564   6.805   6.726   6.429  0.6089  0.1529 -1.1226
 2025TIP3   OH227565   1.421   0.342  16.977 -0.7438 -0.0691 -0.0071
 2025TIP3    H127566   1.421   0.247  16.970  1.1372 -0.1476  0.5647
 2025TIP3    H227567   1.361   0.361  17.050  0.0578 -0.9381  0.9095
 2026TIP3   OH227568   4.655   0.864   5.900 -0.1145  0.1231 -0.3014
 2026TIP3    H127569   4.703   0.857   5.983 -0.0420  0.4778 -0.3105
 2026TIP3    H227570   4.570   0.823   5.918  0.2811 -0.7189 -0.3585
 2027TIP3   OH227571   0.257   6.058   5.207  0.1541 -0.5727 -0.0453
 2027TIP3    H127572   0.221   6.080   5.121 -1.6378  0.4169  0.9083
 2027TIP3    H227573   0.352   6.065   5.195 -0.0770  0.2430 -1.7509
 2028TIP3   OH227574   4.798   5.601  16.520 -0.3398 -0.5221 -0.0132
 2028TIP3    H127575   4.757   5.599  16.434 -0.1325  0.1556 -0.1398
 2028TIP3    H227576   4.827   5.692  16.530 -0.2676 -0.6201  0.7256
 2029TIP3   OH227577   6.616   2.242  13.368 -0.5907 -0.4778 -0.1898
 2029TIP3    H127578   6.550   2.173  13.366 -0.8699 -0.2184  0.0885
 2029TIP3    H227579   6.636   2.259  13.276 -0.3470 -1.0898 -0.2570
 2030TIP3   OH227580   5.357   6.836   1.702 -0.1978  0.0761 -0.4594
 2030TIP3    H127581   5.298   6.909   1.684 -0.1641  0.4578  0.8894
 2030TIP3    H227582   5.371   6.839   1.796  1.2054 -0.6131 -0.6197
 2031TIP3   OH227583   0.437   5.439   4.403 -0.5794  0.5804 -0.4942
 2031TIP3    H127584   0.400   5.499   4.468  0.7948  0.3202  0.5689
 2031TIP3    H227585   0.368   5.375   4.387 -0.0766 -0.9331  2.7611
 2032TIP3   OH227586   6.237   5.817  15.112 -0.3916  1.0219 -0.2683
 2032TIP3    H127587   6.230   5.721  15.103 -1.2031  0.9284  1.1067
 2032TIP3    H227588   6.218   5.850  15.025 -1.2333 -0.0344 -0.5103
 2033TIP3   OH227589   1.067   4.308  12.847 -0.1604 -0.0732 -1.2498
 2033TIP3    H127590   1.070   4.353  12.932  0.2533  0.6027 -1.6154
 2033TIP3    H227591   1.032   4.373  12.787  0.1067 -0.3623 -1.7192
 2034TIP3   OH227592   0.613   6.748  11.598  0.0885 -0.3002 -0.6581
 2034TIP3    H127593   0.588   6.769  11.509  2.1780  1.7274 -0.8629
 2034TIP3    H227594   0.533   6.757  11.649 -0.2042  3.7315 -1.5425
 2035TIP3   OH227595   2.232   3.002   3.725  0.1874  0.0560  0.0799
 2035TIP3    H127596   2.275   2.926   3.685 -1.0717 -0.0462 -1.1757
 2035TIP3    H227597   2.139   2.988   3.707 -0.1981  1.2078  1.0572
 2036TIP3   OH227598   6.352   1.718   2.301  0.3270  0.3688  0.0848
 2036TIP3    H127599   6.258   1.724   2.288  0.4343 -1.3133 -2.2230
 2036TIP3    H227600   6.362   1.681   2.389 -1.1841  0.0625  0.1568
 2037TIP3   OH227601   4.975   1.413   2.400 -0.4779 -0.1248 -0.1817
 2037TIP3    H127602   5.038   1.342   2.403 -0.4000 -0.1472 -1.5459
 2037TIP3    H227603   4.897   1.374   2.359 -0.6200  0.4333 -0.4556
 2038TIP3   OH227604   2.696   0.502   2.742 -0.6984  0.1963  0.5471
 2038TIP3    H127605   2.790   0.511   2.756 -0.5267 -0.5080 -0.0910
 2038TIP3    H227606   2.656   0.553   2.812  0.1696  4.0317 -1.4798
 2039TIP3   OH227607   5.557   6.648   2.544  0.3698 -0.0655 -0.1605
 2039TIP3    H127608   5.574   6.590   2.469 -0.6821  0.7864 -1.0909
 2039TIP3    H227609   5.593   6.732   2.517 -1.1745  0.5822 -0.2781
 2040TIP3   OH227610   4.869   0.143   0.411  0.1504 -0.1346  0.3976
 2040TIP3    H127611   4.816   0.182   0.342 -1.2951  0.1167  1.6126
 2040TIP3    H227612   4.856   0.049   0.402  1.2124 -0.2131 -0.6124
 2041TIP3   OH227613   4.722   2.888   1.184  0.3562  0.1538  0.0128
 2041TIP3    H127614   4.800   2.834   1.180 -0.5295 -1.2526  0.7614
 2041TIP3    H227615   4.720   2.922   1.274  0.7129  1.1501 -0.3457
 2042TIP3   OH227616   4.962   3.710  14.162 -0.3809  0.7254 -0.1081
 2042TIP3    H127617   4.992   3.736  14.075  0.7930  0.7356  0.2803
 2042TIP3    H227618   5.014   3.632  14.183  0.0312  1.2773  0.9693
 2043TIP3   OH227619   3.375   6.633   1.014 -0.2537  0.0668  0.5771
 2043TIP3    H127620   3.416   6.718   1.024  1.5435 -0.6524 -0.1584
 2043TIP3    H227621   3.310   6.628   1.085 -0.2066  1.8973  0.7870
 2044TIP3   OH227622   3.740   4.325   0.780 -0.3622  0.0024 -0.2145
 2044TIP3    H127623   3.676   4.345   0.712  0.2457  3.0985 -0.0300
 2044TIP3    H227624   3.810   4.389   0.766  1.2858 -1.3488  1.4142
 2045TIP3   OH227625   0.539   0.482   0.249  0.1789  0.0699 -0.1998
 2045TIP3    H127626   0.620   0.519   0.213  0.1118 -0.0323 -0.4593
 2045TIP3    H227627   0.475   0.553   0.241 -0.0077 -0.1615 -0.9036
 2046TIP3   OH227628   3.560   5.936  13.288  0.2570 -0.6648 -0.1011
 2046TIP3    H127629   3.506   5.902  13.217 -0.0996  1.5606 -0.9816
 2046TIP3    H227630   3.498   5.980  13.346  0.8769  0.2017 -0.0739
 2047TIP3   OH227631   6.147   6.496   3.487 -0.1739 -0.6206 -0.0951
 2047TIP3    H127632   6.066   6.454   3.458 -2.1649  2.7636  0.0331
 2047TIP3    H227633   6.143   6.492   3.583 -0.5580  0.1466 -0.0750
 2048TIP3   OH227634   2.349   1.144  12.741 -0.4446  0.0443 -0.8982
 2048TIP3    H127635   2.265   1.122  12.783  0.8674 -1.1280  1.3121
 2048TIP3    H227636   2.400   1.063  12.746  1.0889  0.9364 -1.5216
 2049TIP3   OH227637   2.919   1.410   5.885 -0.3119 -0.2544 -0.3149
 2049TIP3    H127638   2.907   1.340   5.821  1.6288 -0.4146 -0.5600
 2049TIP3    H227639   3.014   1.422   5.890 -0.5421  1.5341  0.6203
 2050TIP3   OH227640   1.045   4.332  11.722  0.3577 -0.2699 -0.4648
 2050TIP3    H127641   1.072   4.274  11.651  0.9299 -1.9007  1.0008
 2050TIP3    H227642   1.125   4.374  11.751 -0.2575  2.6433 -2.5492
 2051TIP3   OH227643   2.809   1.042  13.293 -0.7060  0.2551 -0.1998
 2051TIP3    H127644   2.744   1.076  13.355 -0.4160 -0.8733  0.7526
 2051TIP3    H227645   2.864   0.984  13.345  1.0452  1.1292 -0.9915
 2052TIP3   OH227646   2.629   5.422   2.008 -0.4065  0.1250 -0.4658
 2052TIP3    H127647   2.631   5.415   1.912 -1.0509 -0.9657 -0.4115
 2052TIP3    H227648   2.713   5.461   2.030 -0.3284  0.5855 -1.4908
 2053TIP3   OH227649   3.798   6.234   3.330 -0.1723  0.3603  0.9304
 2053TIP3    H127650   3.855   6.169   3.370 -1.1813 -0.5986  0.8602
 2053TIP3    H227651   3.715   6.225   3.377 -1.0814 -0.0946 -0.6651
 2054TIP3   OH227652   6.399   4.558  13.501 -0.3342  0.1457 -0.0129
 2054TIP3    H127653   6.357   4.636  13.464  0.6915  0.0356 -1.4788
 2054TIP3    H227654   6.446   4.519  13.427  1.4411 -0.3415  1.3230
 2055TIP3   OH227655   0.773   3.365  12.153 -0.5052 -0.1285  0.0629
 2055TIP3    H127656   0.787   3.271  12.138 -1.0308 -0.6322  2.3590
 2055TIP3    H227657   0.811   3.381  12.239 -0.8175  1.6911 -0.1059
 2056TIP3   OH227658   4.906   4.153   4.461  0.4539 -0.3989 -0.3901
 2056TIP3    H127659   4.942   4.153   4.373 -2.1541 -3.6208 -1.6906
 2056TIP3    H227660   4.881   4.244   4.477  0.4316  0.1930 -3.2892
 2057TIP3   OH227661   6.158   3.380   0.792 -0.2396 -0.2833 -0.0722
 2057TIP3    H127662   6.116   3.427   0.720 -2.0128 -1.3446  0.1980
 2057TIP3    H227663   6.187   3.298   0.752  0.9488  0.1166 -0.0758
 2058TIP3   OH227664   6.477   3.555  13.497  0.3133 -0.5686 -0.0521
 2058TIP3    H127665   6.506   3.646  13.506  0.2965 -0.4749 -0.8285
 2058TIP3    H227666   6.478   3.539  13.402 -0.7913 -1.0104 -0.0087
 2059TIP3   OH227667   1.808   5.503  13.187  0.0712 -0.1976  0.6379
 2059TIP3    H127668   1.748   5.533  13.256 -1.5023  0.0365 -0.7550
 2059TIP3    H227669   1.751   5.487  13.112  1.9748  2.4104 -1.5701
 2060TIP3   OH227670   1.049   0.926   0.814 -0.1078 -0.2535 -0.6143
 2060TIP3    H127671   0.986   0.942   0.744 -1.1925  0.1802  0.4270
 2060TIP3    H227672   0.996   0.915   0.893  1.0510 -1.1679  0.0854
 2061TIP3   OH227673   6.168   3.891  15.425 -0.3395 -0.2992 -0.3387
 2061TIP3    H127674   6.216   3.857  15.501 -0.3109  1.4029  0.4469
 2061TIP3    H227675   6.165   3.817  15.364  2.0348 -0.9003  0.1640
 2062TIP3   OH227676   6.374   2.382  13.195  0.7148  0.0771  0.2102
 2062TIP3    H127677   6.355   2.315  13.261  0.8573 -1.0262 -0.8334
 2062TIP3    H227678   6.459   2.416  13.220  0.7238 -0.2618  0.6629
 2063TIP3   OH227679   4.702   2.229  14.402 -0.1143  0.0870  0.0410
 2063TIP3    H127680   4.770   2.278  14.355  0.1698  0.5156  0.8621
 2063TIP3    H227681   4.667   2.168  14.338  0.0756  0.8316 -0.7921
 2064TIP3   OH227682   3.456   2.843   3.072  0.3256 -0.3669 -0.7636
 2064TIP3    H127683   3.453   2.876   3.162  0.7235  2.9302 -1.8339
 2064TIP3    H227684   3.537   2.793   3.067 -1.0996 -3.1600  1.3854
 2065TIP3   OH227685   4.178   1.619   1.977  0.1811 -0.2062 -0.0070
 2065TIP3    H127686   4.211   1.569   2.051 -1.9550 -1.9813 -0.1462
 2065TIP3    H227687   4.123   1.687   2.017  0.9153  0.3391  0.0907
 2066TIP3   OH227688   3.126   0.131   2.337  0.1233 -0.1460  0.0762
 2066TIP3    H127689   3.165   0.188   2.402 -1.1310  0.7487  0.0725
 2066TIP3    H227690   3.034   0.156   2.334 -0.2103 -1.3470 -0.8021
 2067TIP3   OH227691   0.633   4.256  15.302  0.2159  0.2274  0.1762
 2067TIP3    H127692   0.671   4.295  15.381  1.4344 -0.4885 -0.0362
 2067TIP3    H227693   0.663   4.165  15.303  0.8364  0.3780 -1.4514
 2068TIP3   OH227694   5.418   2.401  10.896  0.2428  0.0644 -0.3356
 2068TIP3    H127695   5.359   2.428  10.967  0.6495  0.2783 -0.0715
 2068TIP3    H227696   5.369   2.334  10.848 -0.7423  1.1893 -0.9424
 2069TIP3   OH227697   0.078   6.197  12.979  0.2207  0.3938 -0.8193
 2069TIP3    H127698   0.066   6.107  13.009 -4.0477  1.4137  1.2691
 2069TIP3    H227699   0.107   6.189  12.888 -0.3444 -3.0590 -0.8103
 2070TIP3   OH227700   4.021   3.704  14.662  0.1525 -0.6312 -0.4482
 2070TIP3    H127701   4.047   3.726  14.572 -4.0219 -1.0315 -1.9892
 2070TIP3    H227702   3.980   3.784  14.695 -1.3323 -1.4542 -0.2330
 2071TIP3   OH227703   1.939   2.794   4.145 -0.2075  0.0083 -0.2592
 2071TIP3    H127704   1.909   2.877   4.181  1.7505  0.3102  0.8478
 2071TIP3    H227705   1.899   2.727   4.200  0.5038  0.3682  0.7327
 2072TIP3   OH227706   0.418   2.436  12.133 -0.2904 -0.4280  0.2434
 2072TIP3    H127707   0.378   2.504  12.079 -0.0461 -0.8369 -0.4661
 2072TIP3    H227708   0.503   2.472  12.157  0.3434 -0.9401 -1.1282
 2073TIP3   OH227709   2.084   5.429  14.519  0.2528  0.5653 -0.4317
 2073TIP3    H127710   2.059   5.356  14.462 -0.3567  0.0828  0.4234
 2073TIP3    H227711   2.009   5.487  14.518 -0.5795 -0.3947  1.3568
 2074TIP3   OH227712   4.676   0.318   5.342 -0.3582 -0.2313 -0.2705
 2074TIP3    H127713   4.736   0.247   5.364  1.3233  1.2222 -0.0271
 2074TIP3    H227714   4.644   0.296   5.254  0.0000 -1.3710 -0.1270
 2075TIP3   OH227715   1.441   4.976  12.664  0.1783 -0.6023 -0.4761
 2075TIP3    H127716   1.370   5.010  12.609  1.1801  3.3707  0.3914
 2075TIP3    H227717   1.397   4.916  12.725 -1.8609 -0.7116 -1.9416
 2076TIP3   OH227718   4.080   0.469   0.133  0.1349 -0.3937 -0.0434
 2076TIP3    H127719   4.061   0.375   0.136  2.4884 -0.9098  1.6560
 2076TIP3    H227720   4.173   0.473   0.108  0.3088  1.4317  0.7626
 2077TIP3   OH227721   3.270   4.816   4.843 -0.3155  0.2081 -0.1026
 2077TIP3    H127722   3.351   4.766   4.842  1.0695  2.2822 -1.5300
 2077TIP3    H227723   3.246   4.821   4.935  1.2421 -0.4154  0.3700
 2078TIP3   OH227724   0.447   4.528  15.595 -0.6570  0.0848  0.2336
 2078TIP3    H127725   0.451   4.435  15.575 -1.2992 -0.0724  0.7922
 2078TIP3    H227726   0.408   4.568  15.518  1.6940  0.2285 -0.9602
 2079TIP3   OH227727   3.945   4.310  13.328  0.1216  0.1890  0.5992
 2079TIP3    H127728   3.993   4.238  13.288  1.1333  0.4389  1.3174
 2079TIP3    H227729   3.909   4.359  13.254 -1.1299 -1.3795  0.1156
 2080TIP3   OH227730   5.626   2.304  11.458 -0.1780  0.0054  0.5288
 2080TIP3    H127731   5.682   2.294  11.381  0.1046  0.1653  0.7162
 2080TIP3    H227732   5.681   2.344  11.524 -0.3038 -0.5103  0.9556
 2081TIP3   OH227733   0.250   1.285   4.732 -0.2838 -0.1431  0.0910
 2081TIP3    H127734   0.169   1.279   4.784 -0.3297 -3.2722 -0.1321
 2081TIP3    H227735   0.225   1.250   4.646  0.2313  3.2770 -1.6300
 2082TIP3   OH227736   3.736   3.935  11.175 -0.2691 -0.2221 -0.2809
 2082TIP3    H127737   3.696   4.011  11.134  1.0172  0.0181 -1.1560
 2082TIP3    H227738   3.743   3.870  11.104 -0.9079 -0.9867  0.3354
 2083TIP3   OH227739   6.721   5.257  14.566 -0.2545 -0.8600 -0.8782
 2083TIP3    H127740   6.707   5.309  14.487 -0.1744  2.5943  1.1870
 2083TIP3    H227741   6.816   5.247  14.572 -0.0116  1.3279  0.0761
 2084TIP3   OH227742   3.448   6.014   5.941 -0.3264  0.6046 -0.1077
 2084TIP3    H127743   3.501   6.060   6.007  0.5156 -0.6231  0.1020
 2084TIP3    H227744   3.512   5.966   5.889 -1.1828 -0.3138 -0.3358
 2085TIP3   OH227745   6.259   2.631  12.572  0.2050  0.6930  0.1354
 2085TIP3    H127746   6.284   2.677  12.652 -0.7290  0.2527  0.6838
 2085TIP3    H227747   6.287   2.540  12.586  1.9153  1.0118 -0.8848
 2086TIP3   OH227748   2.492   1.999  12.400  0.0658  0.3415  0.1809
 2086TIP3    H127749   2.499   1.904  12.408 -1.8949  0.1759  0.4456
 2086TIP3    H227750   2.408   2.021  12.441  1.3004  2.4209  1.8088
 2087TIP3   OH227751   2.994   1.213   2.558  0.4511 -0.0370 -0.1596
 2087TIP3    H127752   2.938   1.136   2.542 -1.1101  1.1534 -0.7073
 2087TIP3    H227753   2.962   1.279   2.497  1.9396  0.9832  0.1116
 2088TIP3   OH227754   4.087   2.063   5.183  0.6276 -0.2555  0.1220
 2088TIP3    H127755   4.182   2.066   5.175  0.4430  0.5604 -3.1113
 2088TIP3    H227756   4.056   2.045   5.094 -2.2837  1.5272  0.6583
 2089TIP3   OH227757   1.982   2.136  10.841 -0.6147  0.5521  0.0304
 2089TIP3    H127758   2.043   2.095  10.780 -0.6489  1.2776 -0.5156
 2089TIP3    H227759   2.019   2.121  10.928 -0.4563 -0.3183 -0.1846
 2090TIP3   OH227760   2.091   4.655  16.322 -0.3036  0.7594 -0.2838
 2090TIP3    H127761   2.051   4.703  16.395  0.9579  0.4913  0.6117
 2090TIP3    H227762   2.180   4.636  16.352  0.0509  0.1395 -1.6762
 2091TIP3   OH227763   0.128   3.863   4.205  0.1975 -0.1104 -0.4033
 2091TIP3    H127764   0.052   3.883   4.259 -0.1036  0.5227 -1.0363
 2091TIP3    H227765   0.161   3.949   4.179 -0.4169 -0.3791 -2.2282
 2092TIP3   OH227766   2.734   1.373   0.020 -0.0206 -0.0780 -0.1859
 2092TIP3    H127767   2.779   1.398   0.101 -0.2204 -0.7522  0.1447
 2092TIP3    H227768   2.701   1.455  -0.016 -0.4833  0.1661  0.7541
 2093TIP3   OH227769   1.161   5.210  13.176 -0.1926 -0.5119  0.4528
 2093TIP3    H127770   1.097   5.245  13.238 -1.6693  0.6026 -1.5881
 2093TIP3    H227771   1.132   5.120  13.160  0.0856 -0.7426  1.1944
 2094TIP3   OH227772   2.848   4.955   5.293  0.2069 -0.0741  0.3393
 2094TIP3    H127773   2.845   4.982   5.201 -0.8535 -0.9804  0.0803
 2094TIP3    H227774   2.883   5.031   5.339 -1.3869  1.2808 -0.5377
 2095TIP3   OH227775   2.454   4.390   2.585  0.0987  0.0212 -0.1292
 2095TIP3    H127776   2.388   4.335   2.544 -0.4873  1.2956 -0.9727
 2095TIP3    H227777   2.407   4.434   2.656 -0.0667  1.1350 -0.9003
 2096TIP3   OH227778   5.917   5.294   3.105  0.0405  0.5619  0.0287
 2096TIP3    H127779   5.878   5.268   3.189  0.5263 -1.5461 -0.3457
 2096TIP3    H227780   6.004   5.254   3.105 -0.6855 -1.2628 -2.2700
 2097TIP3   OH227781   1.683   2.916   1.479 -0.2729  0.0784 -0.0713
 2097TIP3    H127782   1.747   2.892   1.546 -0.4334 -1.1992 -0.3558
 2097TIP3    H227783   1.614   2.962   1.527  0.2149  0.2861  0.4399
 2098TIP3   OH227784   6.543   2.947  15.823  0.1315 -0.1840 -0.8499
 2098TIP3    H127785   6.562   2.903  15.741 -0.3646 -2.2788  0.0818
 2098TIP3    H227786   6.447   2.944  15.831  0.1888 -0.2464 -0.0876
 2099TIP3   OH227787   1.946   3.409   5.214 -0.5174 -0.2253 -0.0009
 2099TIP3    H127788   1.892   3.372   5.144  0.3901  1.0482 -1.4539
 2099TIP3    H227789   2.032   3.368   5.201 -0.0514  0.8399 -0.3549
 2100TIP3   OH227790   4.823   3.080  16.446  0.0708  0.0500  0.0130
 2100TIP3    H127791   4.867   3.112  16.367 -0.6522  1.0219 -0.0077
 2100TIP3    H227792   4.739   3.125  16.447  0.2623  0.4313  1.5915
 2101TIP3   OH227793   4.760   4.622   0.279  0.1186 -0.0324 -0.2196
 2101TIP3    H127794   4.711   4.704   0.281  0.0372 -0.0688 -0.5717
 2101TIP3    H227795   4.805   4.619   0.363 -0.8833 -0.2583  0.3189
 2102TIP3   OH227796   2.441   2.162   6.264  0.3487  0.2244 -0.0043
 2102TIP3    H127797   2.368   2.126   6.214 -0.1253  1.5807 -0.3419
 2102TIP3    H227798   2.482   2.225   6.205  1.6217 -0.3147  0.2888
 2103TIP3   OH227799   0.285   4.142  14.726 -0.2307  0.3552 -0.1803
 2103TIP3    H127800   0.261   4.198  14.800 -0.5090  1.2745 -0.9500
 2103TIP3    H227801   0.213   4.079  14.719  0.8755 -1.2262  1.7413
 2104TIP3   OH227802   4.492   2.622   2.624 -0.4816  0.6051  0.6315
 2104TIP3    H127803   4.520   2.677   2.551 -2.1867  1.6297  0.6873
 2104TIP3    H227804   4.400   2.646   2.637 -1.0545 -1.7128  1.1860
 2105TIP3   OH227805   2.480   5.469  11.510  0.4112 -0.2163 -0.0760
 2105TIP3    H127806   2.436   5.508  11.585  0.6635  0.1017 -0.0919
 2105TIP3    H227807   2.535   5.400  11.547  0.1002 -0.4452 -0.0314
 2106TIP3   OH227808   4.383   4.371  12.058  0.0543  0.8359 -0.1359
 2106TIP3    H127809   4.347   4.446  12.013  0.3139  1.4554  0.6633
 2106TIP3    H227810   4.335   4.367  12.141  0.3106  0.3574 -0.0055
 2107TIP3   OH227811   5.633   6.257  16.496  0.1232  0.7512  0.0808
 2107TIP3    H127812   5.604   6.173  16.533 -1.6435  1.4492  0.3995
 2107TIP3    H227813   5.712   6.279  16.544 -0.7788  0.4436  1.7857
 2108TIP3   OH227814   2.037   3.126  11.366 -0.1914  0.2090  0.0627
 2108TIP3    H127815   2.112   3.185  11.367 -1.5814  2.0747 -0.5475
 2108TIP3    H227816   1.996   3.138  11.452 -0.4437  0.0535 -0.0346
 2109TIP3   OH227817   1.736   5.177   5.766 -0.0441  0.0939  0.0558
 2109TIP3    H127818   1.647   5.184   5.801 -0.5777  0.5795 -1.3385
 2109TIP3    H227819   1.725   5.174   5.671  1.5165  2.5009 -0.2999
 2110TIP3   OH227820   4.540   6.082  15.029  0.6538 -0.3859 -0.1357
 2110TIP3    H127821   4.460   6.081  15.081  0.8140 -2.1537  0.1450
 2110TIP3    H227822   4.512   6.050  14.943  0.7822  0.4699 -0.4986
 2111TIP3   OH227823   5.370   2.483   5.678 -0.0316  0.0750  0.6613
 2111TIP3    H127824   5.275   2.483   5.687 -0.1711 -2.5895 -0.1479
 2111TIP3    H227825   5.394   2.391   5.678  2.2377  0.5431 -2.3046
 2112TIP3   OH227826   2.264   2.164   5.914  0.0196  0.6233  0.5229
 2112TIP3    H127827   2.214   2.244   5.894 -0.2429  0.3204 -0.0689
 2112TIP3    H227828   2.296   2.134   5.829 -0.1104 -0.0466  0.7045
 2113TIP3   OH227829   0.301   4.836   2.287 -0.4171 -0.5734  0.0406
 2113TIP3    H127830   0.357   4.891   2.341 -0.0715 -0.1179 -0.7635
 2113TIP3    H227831   0.332   4.850   2.198  1.0163 -3.5705 -0.0598
 2114TIP3   OH227832   2.552   2.378  16.085  0.1687 -0.2613  0.4953
 2114TIP3    H127833   2.463   2.398  16.055  0.9628  2.5067 -0.3147
 2114TIP3    H227834   2.608   2.404  16.012  1.8217  1.0095  2.1294
 2115TIP3   OH227835   1.337   3.897   1.591 -0.7707  0.2090  0.0521
 2115TIP3    H127836   1.414   3.844   1.607 -0.7855  0.1408 -0.0963
 2115TIP3    H227837   1.267   3.855   1.640 -0.4481  0.9851  1.2203
 2116TIP3   OH227838   0.602   6.675  15.516 -0.0291 -0.2030 -0.4392
 2116TIP3    H127839   0.584   6.738  15.585 -0.4000  0.8985 -1.5108
 2116TIP3    H227840   0.535   6.607  15.527 -0.8039  0.5520 -0.4118
 2117TIP3   OH227841   2.207   1.206  13.054 -0.7499 -0.0068 -0.4147
 2117TIP3    H127842   2.216   1.292  13.013 -0.8326  0.4479  0.4892
 2117TIP3    H227843   2.176   1.149  12.984 -1.1363  0.8014 -0.9172
 2118TIP3   OH227844   4.196   4.829   2.649 -0.8342  0.1179 -0.1196
 2118TIP3    H127845   4.287   4.843   2.674 -0.3789 -0.3429 -1.4478
 2118TIP3    H227846   4.190   4.736   2.630 -1.4258  0.2643 -0.6668
 2119TIP3   OH227847   6.307   3.842  16.355 -0.0388 -0.1094 -0.3869
 2119TIP3    H127848   6.262   3.770  16.312  2.7125 -1.7522 -0.7741
 2119TIP3    H227849   6.298   3.916  16.294 -0.9728 -0.7590 -1.0701
 2120TIP3   OH227850   0.752   3.981  14.963  0.0243 -0.2400  0.5202
 2120TIP3    H127851   0.750   3.982  14.868  0.9066  0.2261  0.4891
 2120TIP3    H227852   0.825   4.040  14.986  1.9791 -2.8139  1.3915
 2121TIP3   OH227853   6.711   4.745   4.140 -0.5654 -0.4002 -0.5561
 2121TIP3    H127854   6.682   4.835   4.125  1.6001  0.3577 -0.6068
 2121TIP3    H227855   6.721   4.708   4.052 -2.0477 -0.9400 -0.5270
 2122TIP3   OH227856   2.916   4.469   5.435  0.6933 -0.0455  0.2299
 2122TIP3    H127857   2.826   4.439   5.443  0.2941  0.7974 -0.8427
 2122TIP3    H227858   2.913   4.538   5.369  2.3456 -0.9796 -0.9122
 2123TIP3   OH227859   5.565   4.841   5.493 -0.1342  0.5289 -0.4802
 2123TIP3    H127860   5.555   4.936   5.499 -1.2583  0.3713  0.3986
 2123TIP3    H227861   5.654   4.825   5.526  0.1005  1.2719 -0.7220
 2124TIP3   OH227862   2.771   0.152  14.956  0.1042  0.3213 -0.1393
 2124TIP3    H127863   2.725   0.236  14.964 -0.7135 -0.1646  0.3375
 2124TIP3    H227864   2.800   0.132  15.045 -1.3954 -0.8341  0.1227
 2125TIP3   OH227865   1.662   0.395  15.707 -0.5185  0.2995 -0.0965
 2125TIP3    H127866   1.704   0.455  15.646  0.6360  1.0275  1.3444
 2125TIP3    H227867   1.681   0.308  15.673  0.0913  0.6927 -0.7683
 2126TIP3   OH227868   0.749   0.400   0.633 -0.4119  0.2623 -0.3693
 2126TIP3    H127869   0.811   0.390   0.706  0.8373  0.4250 -1.3671
 2126TIP3    H227870   0.784   0.474   0.582 -0.7301 -0.4318 -1.6365
 2127TIP3   OH227871   2.924   6.076   0.106 -0.0242 -0.7382  0.4588
 2127TIP3    H127872   2.941   6.170   0.102 -0.7372 -0.6355 -1.2258
 2127TIP3    H227873   2.910   6.058   0.199 -0.0885  0.8569  0.7883
 2128TIP3   OH227874   0.192   2.814  11.118  0.0785  0.7299  0.0231
 2128TIP3    H127875   0.203   2.909  11.123  1.0801  0.6113  0.2178
 2128TIP3    H227876   0.266   2.784  11.067 -1.0161  0.1763 -1.2969
 2129TIP3   OH227877   6.447   0.180   4.514 -0.2098  0.4498 -0.1161
 2129TIP3    H127878   6.538   0.165   4.541 -0.0457  0.7035 -0.5226
 2129TIP3    H227879   6.453   0.242   4.442 -0.7923  1.3467  0.5941
 2130TIP3   OH227880   5.856   2.850  12.404 -0.8088  0.6679 -0.1101
 2130TIP3    H127881   5.831   2.760  12.381  1.5926 -0.0649 -0.1630
 2130TIP3    H227882   5.814   2.865  12.489 -0.5390 -0.8671  0.3259
 2131TIP3   OH227883   5.948   3.025   3.460  0.0270  0.8336 -0.0180
 2131TIP3    H127884   5.939   2.996   3.551  0.1914  1.4138  0.1920
 2131TIP3    H227885   5.987   2.951   3.414 -2.3886 -0.4590 -0.1756
 2132TIP3   OH227886   1.743   0.422  12.768  0.2559 -0.3496  0.3094
 2132TIP3    H127887   1.655   0.449  12.742  0.2923  0.0554  0.5952
 2132TIP3    H227888   1.760   0.469  12.849  1.2911  0.6939 -0.4752
 2133TIP3   OH227889   3.581   6.044  16.888  0.0561 -0.1372  0.0945
 2133TIP3    H127890   3.535   5.968  16.926 -0.1674  0.7667  1.7321
 2133TIP3    H227891   3.555   6.044  16.796 -0.0151 -1.9843  0.0602
 2134TIP3   OH227892   1.151   0.057   1.456 -0.1212  0.0918  0.2873
 2134TIP3    H127893   1.158   0.146   1.421 -1.3543  0.1203  0.0583
 2134TIP3    H227894   1.228   0.012   1.422 -0.4049  0.5926 -1.1020
 2135TIP3   OH227895   6.798   2.195   6.166  0.3717  0.1827  0.5646
 2135TIP3    H127896   6.745   2.260   6.120  0.2237 -0.5162 -0.2711
 2135TIP3    H227897   6.888   2.225   6.154  0.5166 -1.0396 -1.9469
 2136TIP3   OH227898   2.904   4.653  13.598  0.1861 -0.0767 -0.3561
 2136TIP3    H127899   2.825   4.706  13.586 -1.0578 -1.7541  0.0058
 2136TIP3    H227900   2.959   4.704  13.657 -0.6527  1.1012 -0.5614
 2137TIP3   OH227901   3.244   2.509   5.695  0.2215  0.5142 -0.2756
 2137TIP3    H127902   3.160   2.485   5.656  0.7467 -1.7050 -0.1982
 2137TIP3    H227903   3.229   2.500   5.790  0.2489  1.2192 -0.2022
 2138TIP3   OH227904   1.496   4.010  12.284  0.9290 -0.7847  0.0858
 2138TIP3    H127905   1.573   3.993  12.230 -0.1350 -0.4568 -1.6110
 2138TIP3    H227906   1.525   4.076  12.347  1.9295 -0.3222 -0.8218
 2139TIP3   OH227907   1.888   3.709   3.644  0.1695  0.5705 -0.1941
 2139TIP3    H127908   1.915   3.795   3.611  0.3360  0.7070  0.2895
 2139TIP3    H227909   1.804   3.692   3.602 -0.6896  1.7192  0.9738
 2140TIP3   OH227910   6.523   0.804  13.403 -0.4885  0.1773 -0.0461
 2140TIP3    H127911   6.543   0.769  13.489 -0.8394 -1.8254 -0.7225
 2140TIP3    H227912   6.445   0.859  13.417 -1.8676 -1.8276  0.6248
 2141TIP3   OH227913   5.053   4.731   5.292  0.3978  0.1606 -0.4279
 2141TIP3    H127914   5.147   4.735   5.308  0.5596 -2.1322 -0.4822
 2141TIP3    H227915   5.013   4.762   5.373  1.2243 -1.5516  0.6837
 2142TIP3   OH227916   5.327   1.294   3.693 -0.6460 -0.5585  0.8341
 2142TIP3    H127917   5.240   1.323   3.721 -0.6774  0.5395 -0.3026
 2142TIP3    H227918   5.317   1.274   3.600  0.6418  1.2081  0.2388
 2143TIP3   OH227919   3.273   3.431  12.032  0.3841 -0.7917 -0.2740
 2143TIP3    H127920   3.254   3.415  12.125 -1.7589  0.0534 -0.5186
 2143TIP3    H227921   3.304   3.346  11.999  1.5795 -1.0038  1.2700
 2144TIP3   OH227922   0.286   4.947   2.768  0.6358 -0.4237  0.1259
 2144TIP3    H127923   0.194   4.923   2.771  0.5358  0.0508  1.2245
 2144TIP3    H227924   0.325   4.886   2.705 -0.0446 -1.9205  1.1080
 2145TIP3   OH227925   3.199   4.279   0.979  0.0532 -0.1986 -0.0408
 2145TIP3    H127926   3.108   4.300   0.959  0.2612  0.0158 -0.7846
 2145TIP3    H227927   3.244   4.282   0.895  0.6101 -1.0112  0.2152
 2146TIP3   OH227928   5.419   6.532   1.905  0.7319 -0.8187 -0.1571
 2146TIP3    H127929   5.504   6.535   1.860  0.4502 -1.0266 -0.7159
 2146TIP3    H227930   5.376   6.454   1.871  0.3434 -0.7573  0.1789
 2147TIP3   OH227931   0.270   4.250   1.063 -0.2192 -0.1463  0.1676
 2147TIP3    H127932   0.339   4.184   1.055 -1.0629 -1.0250 -0.0528
 2147TIP3    H227933   0.304   4.313   1.127  0.6889 -0.6774  0.2243
 2148TIP3   OH227934   5.713   3.856   3.349 -0.3242 -0.1956  0.4025
 2148TIP3    H127935   5.686   3.851   3.257  0.1463  0.7066  0.2013
 2148TIP3    H227936   5.712   3.765   3.380 -4.5286 -0.2382  0.7208
 2149TIP3   OH227937   4.905   4.698  14.791 -0.3955  0.1666 -0.6149
 2149TIP3    H127938   4.853   4.778  14.795 -0.7201 -0.0690  1.2155
 2149TIP3    H227939   4.844   4.629  14.818  0.0709 -0.5921 -1.4539
 2150TIP3   OH227940   0.250   4.834  15.774  0.5188 -0.1635 -0.2025
 2150TIP3    H127941   0.174   4.843  15.832  0.8411 -0.2433  0.2369
 2150TIP3    H227942   0.212   4.812  15.689 -0.0696  1.5710 -0.4288
 2151TIP3   OH227943   2.090   2.799  16.053 -0.6150 -0.4806 -0.4629
 2151TIP3    H127944   2.010   2.852  16.045  0.0038  0.7526  0.9594
 2151TIP3    H227945   2.156   2.848  16.003 -0.6010 -1.1809 -1.1368
 2152TIP3   OH227946   2.178   3.562   3.953 -0.1320 -0.6191  0.1103
 2152TIP3    H127947   2.131   3.645   3.963 -0.5600 -0.8144 -0.2476
 2152TIP3    H227948   2.270   3.588   3.944  0.4481 -0.3690  4.5561
 2153TIP3   OH227949   3.071   4.344  11.144 -0.0465  0.1526 -0.2460
 2153TIP3    H127950   2.984   4.305  11.132  0.4917 -0.8740 -0.8891
 2153TIP3    H227951   3.119   4.280  11.197  1.0276 -0.3666 -1.7928
 2154TIP3   OH227952   5.658   3.130  16.875 -0.2344 -0.0331  0.3044
 2154TIP3    H127953   5.621   3.210  16.838 -0.4453  0.2877  1.2102
 2154TIP3    H227954   5.753   3.143  16.873 -0.2830  0.3927  0.8034
 2155TIP3   OH227955   1.626   2.814   2.833  0.0381  0.4205 -0.0996
 2155TIP3    H127956   1.534   2.820   2.810 -0.5506 -0.6270  1.8105
 2155TIP3    H227957   1.633   2.856   2.919  0.9527 -1.2116  0.6692
 2156TIP3   OH227958   3.673   3.999  14.398 -0.2579  0.1204 -0.7104
 2156TIP3    H127959   3.673   3.973  14.490  1.5399  0.1039 -0.6636
 2156TIP3    H227960   3.581   4.013  14.376 -0.6485  1.4230  1.4595
 2157TIP3   OH227961   5.365   0.897  11.253 -0.2189 -0.5969  0.0611
 2157TIP3    H127962   5.335   0.986  11.233 -2.3718 -1.0294  1.0733
 2157TIP3    H227963   5.448   0.910  11.299 -0.2799  0.8615 -0.1791
 2158TIP3   OH227964   5.028   6.546  13.597 -0.3858  0.6945 -0.9368
 2158TIP3    H127965   4.950   6.494  13.575  0.2529 -0.2728 -0.9750
 2158TIP3    H227966   4.996   6.612  13.658 -0.8311 -1.0873  0.8465
 2159TIP3   OH227967   4.451   2.034   1.311 -0.5473 -0.3848 -0.1734
 2159TIP3    H127968   4.411   2.087   1.381 -0.5642 -1.3414  0.5611
 2159TIP3    H227969   4.381   2.024   1.246 -1.3815 -1.5825  0.8470
 2160TIP3   OH227970   2.112   5.635  13.831  0.4078  0.1001 -0.5655
 2160TIP3    H127971   2.064   5.588  13.899  0.7088 -0.7430 -0.9301
 2160TIP3    H227972   2.096   5.587  13.751  0.2544  0.9516 -1.0614
 2161TIP3   OH227973   0.209   3.799   5.019 -0.0716 -0.1593  0.3930
 2161TIP3    H127974   0.164   3.861   5.077  1.0333  0.3901  0.6819
 2161TIP3    H227975   0.162   3.807   4.935 -0.9879 -0.1626  0.8896
 2162TIP3   OH227976   1.805   4.610   3.828  0.5459  0.1826  0.2135
 2162TIP3    H127977   1.800   4.523   3.868  0.6374 -0.5022 -1.2134
 2162TIP3    H227978   1.774   4.669   3.897 -2.5661 -1.2634  0.2353
 2163TIP3   OH227979   1.499   3.527  13.320 -0.1399  0.3893 -0.1549
 2163TIP3    H127980   1.570   3.551  13.380  1.1017  0.8515 -1.7299
 2163TIP3    H227981   1.538   3.463  13.261 -1.3245 -0.0642 -0.4795
 2164TIP3   OH227982   3.174   4.831   6.398  0.4653 -0.2598  0.2811
 2164TIP3    H127983   3.158   4.758   6.458  0.5647  0.6369  1.4514
 2164TIP3    H227984   3.095   4.884   6.404  0.4358 -0.2121 -0.4788
 2165TIP3   OH227985   4.342   2.484  11.702 -0.2653  0.3661  0.4223
 2165TIP3    H127986   4.432   2.477  11.672 -0.1354  0.4481  0.7861
 2165TIP3    H227987   4.321   2.398  11.738  0.2716  0.8398  1.9722
 2166TIP3   OH227988   0.055   3.167  16.026 -0.0298 -0.1477  0.2876
 2166TIP3    H127989   0.102   3.193  16.105 -0.0908 -0.4008  0.4078
 2166TIP3    H227990  -0.037   3.182  16.046  0.0438  1.2646 -0.2841
 2167TIP3   OH227991   6.545   5.053   5.346  0.6321 -0.4482 -0.2516
 2167TIP3    H127992   6.482   5.025   5.412  0.3777  3.2102  1.2980
 2167TIP3    H227993   6.506   5.133   5.309  3.7610  1.3047 -0.0660
 2168TIP3   OH227994   2.383   6.675  16.824  0.1004 -0.2565 -0.3000
 2168TIP3    H127995   2.334   6.675  16.742  0.3255  0.4518 -0.4437
 2168TIP3    H227996   2.324   6.715  16.888  0.2060 -0.1073 -0.2963
 2169TIP3   OH227997   1.602   2.357   2.830  0.2703  0.7472 -0.0698
 2169TIP3    H127998   1.516   2.374   2.791  0.7400  2.6497 -0.3916
 2169TIP3    H227999   1.661   2.347   2.755  0.7933  2.2755  0.1003
 2170TIP3   OH228000   1.953   2.329  12.460  0.3121  0.5966  0.4806
 2170TIP3    H128001   2.019   2.265  12.433  0.5194  1.1771 -0.4452
 2170TIP3    H228002   1.884   2.323  12.393 -0.1352  0.6496  0.9275
 2171TIP3   OH228003   5.181   0.013  15.372 -0.0080  0.3298 -0.6283
 2171TIP3    H128004   5.226   0.084  15.418 -1.7419  1.3260 -0.3863
 2171TIP3    H228005   5.091   0.017  15.405 -0.9296  0.0896 -2.9498
 2172TIP3   OH228006   3.522   2.002   5.325 -0.0956 -0.6803  0.0602
 2172TIP3    H128007   3.467   1.999   5.246  2.5572  0.3437 -1.9985
 2172TIP3    H228008   3.578   1.925   5.319  1.0529  0.1088  0.1493
 2173TIP3   OH228009   2.568   0.391  12.140  0.1627  0.1366 -0.3537
 2173TIP3    H128010   2.577   0.368  12.232 -0.8886 -3.6742 -1.0307
 2173TIP3    H228011   2.615   0.321  12.093 -0.7955  0.9876 -2.7521
 2174TIP3   OH228012   5.400   2.599  16.508  0.2399  0.2168  0.2848
 2174TIP3    H128013   5.356   2.588  16.423 -1.9281 -0.5656  1.4368
 2174TIP3    H228014   5.416   2.693  16.514 -0.5471  0.4250 -0.5560
 2175TIP3   OH228015   3.810   4.887   4.004  0.2061  0.3126 -0.1656
 2175TIP3    H128016   3.751   4.847   4.068 -0.3937  0.4425 -0.6216
 2175TIP3    H228017   3.771   4.972   3.985  2.0300  1.6402  1.5774
 2176TIP3   OH228018   5.484   3.133   1.513 -0.0879  0.1517 -0.1198
 2176TIP3    H128019   5.417   3.074   1.478 -0.3260  0.5101 -0.2768
 2176TIP3    H228020   5.498   3.197   1.443  2.0374 -1.1716 -1.0164
 2177TIP3   OH228021   2.195   5.473  16.178 -0.0861  0.0444 -0.5148
 2177TIP3    H128022   2.268   5.424  16.216 -0.2204  0.6333  0.5106
 2177TIP3    H228023   2.200   5.560  16.216 -1.0010  0.2648 -0.8524
 2178TIP3   OH228024   1.111   1.545   2.173 -0.6611 -0.5932 -0.0079
 2178TIP3    H128025   1.139   1.569   2.261 -0.6242 -1.9378  0.3780
 2178TIP3    H228026   1.088   1.628   2.131  0.2289  0.1566  0.9425
 2179TIP3   OH228027   1.254   4.299  15.654  0.3845 -0.5443 -0.0657
 2179TIP3    H128028   1.224   4.209  15.642  0.3275 -0.5096 -0.1779
 2179TIP3    H228029   1.334   4.305  15.601  0.5676 -0.6238  0.1992
 2180TIP3   OH228030   0.457   6.396  14.947  0.2871 -0.1523 -0.5444
 2180TIP3    H128031   0.389   6.336  14.975  0.5418 -1.5639 -2.6656
 2180TIP3    H228032   0.528   6.384  15.010 -0.6585 -0.1340  0.5393
 2181TIP3   OH228033   5.864   3.212  12.445  0.2308  0.2215  0.1987
 2181TIP3    H128034   5.899   3.170  12.524  2.1353 -0.2615 -0.8332
 2181TIP3    H228035   5.933   3.200  12.380 -1.0709  1.0793 -1.3960
 2182TIP3   OH228036   6.431   4.849   1.140  0.0884 -0.0107  0.0020
 2182TIP3    H128037   6.444   4.793   1.217 -3.7086 -1.4656 -0.2240
 2182TIP3    H228038   6.450   4.937   1.172  2.9771 -0.9588  1.2750
 2183TIP3   OH228039   3.668   4.075   3.903 -0.4002  0.3988  0.2400
 2183TIP3    H128040   3.727   4.115   3.967 -0.2924  0.3134  0.1953
 2183TIP3    H228041   3.629   4.002   3.951 -0.9956  0.8711  0.4870
 2184TIP3   OH228042   5.986   3.376  14.773  0.6278  0.5499 -0.2099
 2184TIP3    H128043   5.930   3.450  14.794 -2.2145 -1.3394 -0.6237
 2184TIP3    H228044   6.054   3.378  14.841 -2.1146  0.8233  2.7782
 2185TIP3   OH228045   6.512   5.151  11.111 -0.2764  0.1316  0.2654
 2185TIP3    H128046   6.508   5.244  11.089 -0.0758 -0.0533 -0.5800
 2185TIP3    H228047   6.455   5.142  11.187 -0.2832  0.9472  0.3666
 2186TIP3   OH228048   3.022   2.531  14.190  0.0262  0.3800  0.3571
 2186TIP3    H128049   2.988   2.621  14.189  1.1377  0.8431  1.6214
 2186TIP3    H228050   3.072   2.523  14.109  0.4667  1.1190  0.5542
 2187TIP3   OH228051   3.478   5.068  12.448  0.2923  0.0850  0.8048
 2187TIP3    H128052   3.428   5.149  12.461 -0.1747 -0.0872  0.1387
 2187TIP3    H228053   3.425   5.001  12.491  1.3932  0.3264  2.6521
 2188TIP3   OH228054   2.764   0.429   1.439  0.1354  0.0667  0.7604
 2188TIP3    H128055   2.810   0.346   1.451  0.7098  0.2898  0.1697
 2188TIP3    H228056   2.724   0.423   1.352  0.4146  0.5155  0.5958
 2189TIP3   OH228057   3.417   3.160  15.870 -0.8447 -0.3843  0.0804
 2189TIP3    H128058   3.401   3.178  15.777 -0.9132 -0.6524  0.0402
 2189TIP3    H228059   3.391   3.241  15.915 -1.3558 -0.4555 -0.0822
 2190TIP3   OH228060   3.279   4.647   5.784 -0.3810 -0.1327 -0.1300
 2190TIP3    H128061   3.282   4.562   5.828  0.9818 -0.1774 -0.2630
 2190TIP3    H228062   3.189   4.655   5.753 -0.6675 -1.2819  0.3573
 2191TIP3   OH228063   5.318   3.951   0.631 -0.0769 -0.2756  0.4901
 2191TIP3    H128064   5.292   4.015   0.564 -1.8926 -0.6143  0.8242
 2191TIP3    H228065   5.274   3.980   0.711  0.6766 -0.8428  1.1254
 2192TIP3   OH228066   0.935   2.170  15.969 -0.1429 -0.1697 -0.1712
 2192TIP3    H128067   1.007   2.165  15.907  1.5470 -0.7241  1.7545
 2192TIP3    H228068   0.910   2.079  15.985 -0.4847 -0.0390  0.0473
 2193TIP3   OH228069   6.289   1.351   0.234  0.6434  0.0134  0.1991
 2193TIP3    H128070   6.291   1.444   0.256 -1.2707 -0.1524  1.3442
 2193TIP3    H228071   6.357   1.340   0.168  0.9513  2.2090  0.0798
 2194TIP3   OH228072   4.275   0.252  10.557  0.1500  0.1944 -0.2998
 2194TIP3    H128073   4.253   0.177  10.613 -0.2800  0.0108 -0.7121
 2194TIP3    H228074   4.341   0.300  10.607 -1.3258  0.8752  1.0875
 2195TIP3   OH228075   0.343   1.994  16.972  0.3107  0.4356  0.1837
 2195TIP3    H128076   0.278   1.943  16.923  0.8570 -1.2588  1.1200
 2195TIP3    H228077   0.399   2.033  16.905  0.8709 -1.5772 -0.5790
 2196TIP3   OH228078   1.585   2.965  16.168 -0.1747 -1.0182 -0.1664
 2196TIP3    H128079   1.605   3.033  16.104  0.4025  1.3655  2.3554
 2196TIP3    H228080   1.656   2.902  16.158  0.9610  0.2678 -0.6217
 2197TIP3   OH228081   2.623   4.679  12.405 -0.1232  0.1536 -0.4981
 2197TIP3    H128082   2.650   4.595  12.443  0.5072  0.2947 -0.6254
 2197TIP3    H228083   2.672   4.745  12.453  0.2647  0.3701 -1.1699
 2198TIP3   OH228084   6.311   5.755   6.389 -0.0707  0.2475 -0.3106
 2198TIP3    H128085   6.405   5.755   6.409  0.1313  0.7018 -1.2101
 2198TIP3    H228086   6.286   5.847   6.391 -0.4059  0.1606 -0.4900
 2199TIP3   OH228087   6.098   1.405   4.036 -0.1019  0.6890 -0.0148
 2199TIP3    H128088   6.159   1.353   4.088  1.0442  1.0809 -0.9145
 2199TIP3    H228089   6.011   1.382   4.070  0.3447 -1.8361 -0.4082
 2200TIP3   OH228090   4.275   3.421   2.597 -0.4013 -0.1657  0.9318
 2200TIP3    H128091   4.267   3.326   2.588 -1.7413 -0.0218  0.4599
 2200TIP3    H228092   4.222   3.457   2.525  0.3584  0.9427  0.9009
 2201TIP3   OH228093   4.341   2.108  12.621 -0.1283 -0.3719 -0.4703
 2201TIP3    H128094   4.301   2.100  12.534  0.5019 -1.3276 -0.6882
 2201TIP3    H228095   4.310   2.031  12.668 -0.1421 -0.0656  0.0273
 2202TIP3   OH228096   2.007   3.819   4.339  0.1460 -0.1552 -0.1265
 2202TIP3    H128097   1.912   3.805   4.335  0.1224  0.1965 -0.8862
 2202TIP3    H228098   2.016   3.908   4.373  0.2709 -1.2167  2.9478
 2203TIP3   OH228099   0.308   3.915   6.340  1.1476 -0.7387 -0.0918
 2203TIP3    H128100   0.309   3.873   6.255 -1.9734  0.0293 -0.6205
 2203TIP3    H228101   0.362   3.994   6.329  0.5549 -0.5103 -1.4308
 2204TIP3   OH228102   0.946   0.397  13.206  0.6210 -0.1250  0.0257
 2204TIP3    H128103   0.859   0.360  13.196  0.4960  0.3105 -0.5134
 2204TIP3    H228104   0.998   0.356  13.137  0.5123  0.5931 -0.4960
 2205TIP3   OH228105   2.235   0.296   0.487 -0.8317  0.1684  0.2540
 2205TIP3    H128106   2.213   0.204   0.472  0.7800 -0.6198  2.2942
 2205TIP3    H228107   2.330   0.300   0.475 -0.8118  1.4584  0.6961
 2206TIP3   OH228108   4.344   6.106   4.798 -0.9496  0.8482  0.7014
 2206TIP3    H128109   4.374   6.197   4.794 -1.9502  1.1321 -2.0189
 2206TIP3    H228110   4.415   6.060   4.844  1.0962  2.4508 -0.6712
 2207TIP3   OH228111   2.493   1.184  12.505 -0.2860 -0.1374 -0.4194
 2207TIP3    H128112   2.466   1.144  12.587  0.9292 -0.9276 -0.3754
 2207TIP3    H228113   2.486   1.113  12.440 -0.4075  0.2372 -0.8224
 2208TIP3   OH228114   3.147   2.604   1.231  0.2986  0.5581  0.0066
 2208TIP3    H128115   3.229   2.604   1.181  1.6492 -1.2342  1.9847
 2208TIP3    H228116   3.102   2.524   1.203 -0.7678  1.4787 -0.9875
 2209TIP3   OH228117   6.830   6.518  12.710  0.2221  0.2342 -0.0038
 2209TIP3    H128118   6.891   6.454  12.674  0.5315  1.1821 -1.2735
 2209TIP3    H228119   6.886   6.589  12.741 -0.1596  0.3210  0.5021
 2210TIP3   OH228120   3.550   3.683   4.296  0.5828  0.1253  0.0623
 2210TIP3    H128121   3.588   3.717   4.215 -0.7581  0.7324 -0.3368
 2210TIP3    H228122   3.572   3.590   4.295  1.3236  0.2998 -0.5715
 2211TIP3   OH228123   4.406   0.586  14.614  0.2102  0.0107  1.0080
 2211TIP3    H128124   4.492   0.609  14.577 -0.8299 -0.7621 -2.1690
 2211TIP3    H228125   4.400   0.491  14.604 -1.2964  0.1416  0.4671
 2212TIP3   OH228126   5.600   6.706   1.646 -0.1625  0.0856 -0.7620
 2212TIP3    H128127   5.511   6.739   1.657  0.3983  0.9563  2.0507
 2212TIP3    H228128   5.653   6.762   1.702  1.6612 -2.2815  0.0579
 2213TIP3   OH228129   3.120   4.285  12.083 -0.2110  0.2437  0.1201
 2213TIP3    H128130   3.074   4.227  12.022  1.4135 -1.2967  0.3041
 2213TIP3    H228131   3.113   4.372  12.042 -3.5844  0.2021  0.3528
 2214TIP3   OH228132   0.557   3.495   0.004 -0.4443 -0.1242  0.3998
 2214TIP3    H128133   0.643   3.458  -0.017 -0.5667  0.1352 -0.5964
 2214TIP3    H228134   0.496   3.443  -0.048 -0.8060  0.2636  0.4415
 2215TIP3   OH228135   1.986   5.304  13.228  0.5977 -0.0028  0.2859
 2215TIP3    H128136   2.061   5.319  13.171 -0.0401  0.1092 -0.5439
 2215TIP3    H228137   1.926   5.376  13.209  0.2241 -0.1625  0.8405
 2216TIP3   OH228138   1.636   1.466  14.783 -0.0260 -0.4880 -0.2594
 2216TIP3    H128139   1.569   1.519  14.739  0.6825 -1.1079 -2.1654
 2216TIP3    H228140   1.704   1.453  14.717  0.4204 -2.6846  0.5530
 2217TIP3   OH228141   3.059   0.165  11.838 -0.3366  0.0177 -0.0353
 2217TIP3    H128142   3.032   0.077  11.813  0.8199 -0.1437 -0.7914
 2217TIP3    H228143   3.097   0.202  11.758 -1.1717  1.3622  0.1554
 2218TIP3   OH228144   5.468   1.254   3.132 -0.3795 -0.1256 -0.0661
 2218TIP3    H128145   5.485   1.331   3.078  0.8673  2.5121  3.6195
 2218TIP3    H228146   5.379   1.267   3.166 -0.5771 -0.9175 -0.2550
 2219TIP3   OH228147   3.931   5.089  15.878  0.3283 -0.4280 -0.4777
 2219TIP3    H128148   3.894   5.176  15.893 -0.6499 -1.0936  1.4004
 2219TIP3    H228149   3.925   5.076  15.783  2.4023  2.2931 -1.1115
 2220TIP3   OH228150   4.354   0.117   5.573 -0.2552  0.3402 -0.3091
 2220TIP3    H128151   4.434   0.125   5.521 -0.0018  0.2005  0.0556
 2220TIP3    H228152   4.385   0.098   5.661 -0.7080 -0.3029 -0.2818
 2221TIP3   OH228153   5.719   5.710   0.639  0.0727  0.3068  0.2411
 2221TIP3    H128154   5.734   5.802   0.664 -0.7015  0.1183  1.4998
 2221TIP3    H228155   5.788   5.662   0.686 -0.0591  0.1563  0.2793
 2222TIP3   OH228156   1.298   2.988   3.210 -0.4762 -0.1817  0.0271
 2222TIP3    H128157   1.273   2.896   3.223  0.3307 -0.0714  3.4060
 2222TIP3    H228158   1.232   3.038   3.259  0.1502  0.9067 -0.2088
 2223TIP3   OH228159   5.320   2.044  13.822  0.1399  0.3807 -0.1150
 2223TIP3    H128160   5.412   2.019  13.817 -0.2081 -0.6541 -2.4811
 2223TIP3    H228161   5.321   2.140  13.815  1.0091  0.3662 -0.3246
 2224TIP3   OH228162   2.417   4.909  10.817 -0.3043 -0.0574 -0.0675
 2224TIP3    H128163   2.425   5.004  10.819 -0.5549 -0.0480  0.6367
 2224TIP3    H228164   2.492   4.880  10.764 -0.5011  0.5521 -0.7026
 2225TIP3   OH228165   0.439   5.056  15.995 -0.2356 -0.3255 -0.2695
 2225TIP3    H128166   0.364   5.020  16.042  0.1281  0.2330  0.7692
 2225TIP3    H228167   0.408   5.139  15.958 -0.1559 -0.1248  0.1080
 2226TIP3   OH228168   5.485   2.343  15.501 -0.6724 -0.0109  0.3091
 2226TIP3    H128169   5.548   2.307  15.439 -1.5104 -0.7922 -0.1163
 2226TIP3    H228170   5.432   2.403  15.450 -0.7292  0.1022  0.4989
 2227TIP3   OH228171   6.813   3.182  14.703  0.3385 -0.2834 -0.0917
 2227TIP3    H128172   6.739   3.125  14.680  0.9551 -1.3234  0.4269
 2227TIP3    H228173   6.834   3.160  14.794  1.3312 -0.0527 -0.2490
 2228TIP3   OH228174   1.041   1.245  11.501  0.3944  0.4500 -0.1562
 2228TIP3    H128175   1.034   1.158  11.463  1.9900  1.3961 -2.8907
 2228TIP3    H228176   0.950   1.274  11.510 -0.1260 -1.1235 -0.0397
 2229TIP3   OH228177   5.360   5.893   2.465 -0.3242  0.6420 -0.2557
 2229TIP3    H128178   5.310   5.946   2.402  1.3600 -0.3292 -2.5621
 2229TIP3    H228179   5.329   5.804   2.451 -2.3429  0.7304  2.8212
 2230TIP3   OH228180   4.941   4.700  14.502 -0.2000  0.1554  0.1956
 2230TIP3    H128181   4.958   4.684  14.595 -0.6571  0.2346  0.2964
 2230TIP3    H228182   4.959   4.616  14.460 -2.1069 -0.5444  0.6630
 2231TIP3   OH228183   6.084   5.228  15.370  0.0740  0.3091  0.2640
 2231TIP3    H128184   6.050   5.316  15.357 -1.6233 -0.1352  1.3317
 2231TIP3    H228185   6.025   5.189  15.436  0.6556 -1.6670 -0.3092
 2232TIP3   OH228186   4.781   6.128   5.453  0.0276  0.2736  0.6126
 2232TIP3    H128187   4.818   6.184   5.521 -1.2341  1.0230  0.7144
 2232TIP3    H228188   4.853   6.116   5.390  0.3469  2.0159  0.5963
 2233TIP3   OH228189   6.424   2.328   1.166 -0.0873  0.6360 -0.1255
 2233TIP3    H128190   6.330   2.316   1.180 -0.0652 -1.5841 -1.5316
 2233TIP3    H228191   6.444   2.409   1.213 -2.0908 -0.4168  2.8474
 2234TIP3   OH228192   4.997   0.703   3.009  0.6611  0.1642 -0.7426
 2234TIP3    H128193   4.920   0.701   3.067  0.2840  0.7266 -1.2071
 2234TIP3    H228194   4.979   0.775   2.948  1.1812 -0.2272 -1.3769
 2235TIP3   OH228195   6.691   1.726  14.491 -0.3900  0.3686 -0.5222
 2235TIP3    H128196   6.618   1.779  14.460 -0.9711 -1.1034 -1.8570
 2235TIP3    H228197   6.733   1.779  14.558 -1.7077  1.9305 -0.8657
 2236TIP3   OH228198   3.323   0.368   2.998  0.0288 -0.2554 -0.1381
 2236TIP3    H128199   3.331   0.342   3.090 -4.0918  0.5852  0.6585
 2236TIP3    H228200   3.359   0.457   2.995  2.1063 -1.0417  0.1111
 2237TIP3   OH228201   2.598   3.158  16.926  0.2833 -0.0880 -0.3398
 2237TIP3    H128202   2.629   3.080  16.971 -2.1023 -1.1854 -0.4105
 2237TIP3    H228203   2.512   3.176  16.965 -0.7279  0.4435 -2.6213
 2238TIP3   OH228204   4.372   1.899  13.071 -0.2639  0.5805 -0.4530
 2238TIP3    H128205   4.431   1.859  13.007 -0.2748  1.3564 -0.9555
 2238TIP3    H228206   4.348   1.984  13.033 -3.3662 -0.5240 -1.3208
 2239TIP3   OH228207   0.901   0.164  16.638 -0.3060 -0.1227  0.1090
 2239TIP3    H128208   0.871   0.104  16.707 -0.5282  1.6637  1.6395
 2239TIP3    H228209   0.847   0.141  16.562 -2.6451  0.1957  1.5715
 2240TIP3   OH228210   3.735   0.966  14.542  0.3954 -0.5135  0.1384
 2240TIP3    H128211   3.750   1.052  14.503  0.9559 -0.2048  0.9938
 2240TIP3    H228212   3.797   0.909  14.497 -0.3473 -0.5971 -0.8070
 2241TIP3   OH228213   4.610   4.761   3.001  0.3302 -0.2511  0.7965
 2241TIP3    H128214   4.515   4.754   3.012 -0.1040  0.0067 -1.9687
 2241TIP3    H228215   4.634   4.841   3.049 -1.3107  1.1031 -0.4910
 2242TIP3   OH228216   6.521   4.243  14.425 -0.2646 -0.3067  0.3678
 2242TIP3    H128217   6.523   4.156  14.385 -0.2713 -0.4758  0.7326
 2242TIP3    H228218   6.576   4.235  14.503  1.4958  0.5738 -0.7099
 2243TIP3   OH228219   3.985   4.218  16.198  0.2808 -0.3918 -1.1382
 2243TIP3    H128220   4.048   4.193  16.266 -0.7973 -1.1210 -0.3752
 2243TIP3    H228221   3.953   4.304  16.226 -1.6121 -1.5026  0.4412
 2244TIP3   OH228222   4.979   6.307   3.422  0.1808 -0.0454 -0.0573
 2244TIP3    H128223   4.973   6.402   3.409  2.8522  0.2390  0.2969
 2244TIP3    H228224   5.029   6.297   3.503  0.8172 -1.7401 -0.6168
 2245TIP3   OH228225   6.661   5.130   2.028  0.3326  0.2464 -0.0506
 2245TIP3    H128226   6.690   5.101   2.115  1.9453  2.0521  0.0852
 2245TIP3    H228227   6.708   5.073   1.967  0.3851 -0.0169  0.2306
 2246TIP3   OH228228   6.854   0.491   4.734 -0.5711  0.0470  0.1102
 2246TIP3    H128229   6.910   0.568   4.731 -0.2864 -0.1731 -0.1958
 2246TIP3    H228230   6.835   0.479   4.827 -0.6996  0.5440  0.1496
 2247TIP3   OH228231   0.821   4.514   2.581  0.8859 -0.0340 -0.1420
 2247TIP3    H128232   0.904   4.526   2.628  1.2626 -1.8827 -0.2894
 2247TIP3    H228233   0.788   4.430   2.611 -0.8536  0.5752 -0.2646
 2248TIP3   OH228234   1.327   5.422   2.188 -0.4224 -0.1659 -0.5589
 2248TIP3    H128235   1.331   5.510   2.226 -0.8580 -0.1342 -0.5806
 2248TIP3    H228236   1.366   5.432   2.101  0.1159 -0.1320 -0.3175
 2249TIP3   OH228237   5.570   3.302   2.107  0.7841 -0.3180  0.2145
 2249TIP3    H128238   5.487   3.333   2.071  0.9737 -0.7273 -0.5905
 2249TIP3    H228239   5.589   3.362   2.179  0.1554  0.2184 -0.0594
 2250TIP3   OH228240   2.329   2.329   3.117  0.2198 -0.6819 -0.1379
 2250TIP3    H128241   2.292   2.395   3.059  0.2511 -1.2216 -0.7800
 2250TIP3    H228242   2.272   2.330   3.194 -2.5811 -2.9779 -1.9358
 2251TIP3   OH228243   5.677   3.066   5.567  0.0108 -0.0609 -0.1666
 2251TIP3    H128244   5.763   3.105   5.581 -0.6758  1.5998 -0.3600
 2251TIP3    H228245   5.635   3.068   5.653 -0.2369  0.1885 -0.2897
 2252TIP3   OH228246   4.233   4.222   1.332  0.2544 -0.0663  0.5245
 2252TIP3    H128247   4.293   4.155   1.299 -0.0401  0.6537 -1.6607
 2252TIP3    H228248   4.290   4.284   1.378  0.9593 -0.2708 -0.0444
 2253TIP3   OH228249   5.810   1.769   1.632 -0.4451  0.2688 -0.0889
 2253TIP3    H128250   5.801   1.730   1.546  1.1231 -0.0942 -0.1248
 2253TIP3    H228251   5.805   1.695   1.693  1.2737  0.1241 -0.0784
 2254TIP3   OH228252   0.397   2.088  13.877 -0.5112  0.5720  0.6808
 2254TIP3    H128253   0.427   2.018  13.820  2.4082  1.7468  0.6123
 2254TIP3    H228254   0.350   2.148  13.818  3.3227  2.2925 -0.9268
 2255TIP3   OH228255   5.857   3.275   5.828 -0.0567 -0.0748 -1.0324
 2255TIP3    H128256   5.935   3.222   5.809  0.5938 -0.2041  1.6627
 2255TIP3    H228257   5.784   3.225   5.790  0.7766 -1.8107 -0.4360
 2256TIP3   OH228258   1.074   6.510   5.591  0.0894 -0.0349 -0.1169
 2256TIP3    H128259   1.037   6.571   5.655  0.0715  1.0154 -1.1109
 2256TIP3    H228260   1.142   6.463   5.640 -0.4626  0.1787  0.8885
 2257TIP3   OH228261   1.781   2.281   3.357  0.5733  1.1551  0.3969
 2257TIP3    H128262   1.860   2.334   3.369  0.9326  0.8743 -0.6601
 2257TIP3    H228263   1.812   2.191   3.367  0.5392  1.0060 -0.7707
 2258TIP3   OH228264   3.999   2.881  14.208  0.0558  0.0223  0.1912
 2258TIP3    H128265   3.956   2.863  14.292  1.2157  0.4669  0.9125
 2258TIP3    H228266   4.013   2.795  14.169  1.5443 -0.3999  1.5367
 2259TIP3   OH228267   0.148   1.248   2.994  0.1047  0.0545  0.5723
 2259TIP3    H128268   0.184   1.308   2.928  0.3084 -0.6442  0.0426
 2259TIP3    H228269   0.197   1.270   3.073 -0.4182  1.1721  0.6128
 2260TIP3   OH228270   6.753   3.147   2.754 -0.0558 -0.0553  0.0397
 2260TIP3    H128271   6.740   3.192   2.837  1.9381  0.2811  0.2306
 2260TIP3    H228272   6.783   3.059   2.778  1.2862  0.2854 -0.2572
 2261TIP3   OH228273   3.307   3.437   2.119 -0.3256 -0.1210  0.3381
 2261TIP3    H128274   3.255   3.373   2.167 -1.4943  1.4933  1.3441
 2261TIP3    H228275   3.337   3.499   2.185  1.9283 -0.3227 -0.4022
 2262TIP3   OH228276   0.472   2.456  14.509  0.3891 -0.4597 -0.1669
 2262TIP3    H128277   0.568   2.464  14.512  0.3652  0.4206 -1.0817
 2262TIP3    H228278   0.442   2.511  14.581  0.5514  0.3944 -0.7243
 2263TIP3   OH228279   4.016   5.522  16.290 -0.0923  0.1970  0.1797
 2263TIP3    H128280   4.059   5.491  16.370  1.2018 -1.0028 -0.9335
 2263TIP3    H228281   3.923   5.509  16.307  0.2671 -2.1066  0.7155
 2264TIP3   OH228282   4.830   5.474  10.914 -0.8122  0.3724  0.1457
 2264TIP3    H128283   4.841   5.542  10.981 -0.6923  0.4217  0.0753
 2264TIP3    H228284   4.743   5.438  10.931 -0.9885  0.7376  0.0007
 2265TIP3   OH228285   6.600   0.869  11.226  0.1212  0.2852  0.0777
 2265TIP3    H128286   6.641   0.827  11.302  1.5752  1.5341  0.0268
 2265TIP3    H228287   6.508   0.880  11.251  0.3481 -0.3048  1.2194
 2266TIP3   OH228288   0.469   6.757  11.344 -0.1441  0.1184  0.0979
 2266TIP3    H128289   0.479   6.748  11.249 -0.8822 -2.1229  0.1815
 2266TIP3    H228290   0.464   6.852  11.358  2.5601  0.6699 -1.7886
 2267TIP3   OH228291   1.188   1.942  14.478 -0.6282  0.2219  0.4723
 2267TIP3    H128292   1.199   1.873  14.543 -0.0719  1.1215  1.3611
 2267TIP3    H228293   1.200   2.024  14.527  2.5072  0.9228 -1.2249
 2268TIP3   OH228294   1.151   3.026  12.728 -0.0249  0.3962  0.6479
 2268TIP3    H128295   1.206   2.994  12.656 -0.9590 -1.7918  0.8076
 2268TIP3    H228296   1.178   2.975  12.804 -1.3558  0.1973  1.0238
 2269TIP3   OH228297   6.752   3.885  13.264  0.2688  0.5894 -0.0369
 2269TIP3    H128298   6.774   3.798  13.231  1.9375  1.4289 -1.2644
 2269TIP3    H228299   6.671   3.872  13.312  0.1171 -1.5220 -0.7555
 2270TIP3   OH228300   3.786   5.301  17.064  0.7761  0.1095  0.1266
 2270TIP3    H128301   3.721   5.366  17.092  0.0595 -0.2001 -0.7893
 2270TIP3    H228302   3.741   5.247  17.000  1.9109 -0.1840 -0.4530
 2271TIP3   OH228303   0.839   5.594  14.062 -0.2225 -0.1963 -0.1394
 2271TIP3    H128304   0.813   5.504  14.042  0.4490 -0.6762  1.0520
 2271TIP3    H228305   0.832   5.601  14.157  3.5938 -0.3062  0.3065
 2272TIP3   OH228306   3.301   2.207   2.194 -0.1191 -0.4194 -0.4600
 2272TIP3    H128307   3.349   2.186   2.274  1.1377 -0.3273 -1.1474
 2272TIP3    H228308   3.210   2.212   2.220  0.2264 -0.7976  0.8797
 2273TIP3   OH228309   2.462   4.116   2.433 -0.1592 -0.1399  0.3251
 2273TIP3    H128310   2.502   4.053   2.373  0.5494 -0.0641  0.7026
 2273TIP3    H228311   2.525   4.123   2.505  0.2796  1.7663 -0.1745
 2274TIP3   OH228312   0.305   2.343   2.236  0.9489  0.0934  0.0391
 2274TIP3    H128313   0.319   2.426   2.283 -0.5731  0.4931 -0.1349
 2274TIP3    H228314   0.242   2.296   2.291  0.9837 -0.4828 -0.4087
 2275TIP3   OH228315   4.697   1.205  10.908 -0.4387  0.3123 -0.2949
 2275TIP3    H128316   4.775   1.194  10.853  0.5622  1.6260  0.7813
 2275TIP3    H228317   4.640   1.262  10.857 -0.1032  0.4365 -0.5387
 2276TIP3   OH228318   4.456   6.365   2.539 -0.4951 -0.3762  0.2369
 2276TIP3    H128319   4.365   6.346   2.565 -0.1970 -2.4321  0.0030
 2276TIP3    H228320   4.508   6.337   2.614 -0.0083  0.0392  0.0542
 2277TIP3   OH228321   1.544   4.594   1.074 -0.2249  0.3922 -0.4159
 2277TIP3    H128322   1.503   4.614   0.990  0.0172 -0.8904 -0.8613
 2277TIP3    H228323   1.534   4.674   1.125 -1.5172  0.7653 -1.2116
 2278TIP3   OH228324   1.906   3.097  16.862  0.0217 -0.1816  0.2514
 2278TIP3    H128325   1.818   3.075  16.895  0.6444 -0.9059  1.5269
 2278TIP3    H228326   1.964   3.034  16.906  1.3038  0.9353  0.2192
 2279TIP3   OH228327   4.823   2.593   3.588 -0.0731  0.0314  0.6468
 2279TIP3    H128328   4.779   2.647   3.523 -0.0276 -0.5440  0.1350
 2279TIP3    H228329   4.808   2.639   3.671  1.7455  1.9613 -0.0225
 2280TIP3   OH228330   0.124   3.221  16.301 -0.1226 -0.3117 -0.0571
 2280TIP3    H128331   0.061   3.218  16.373  0.3737 -1.8879  0.3536
 2280TIP3    H228332   0.157   3.310  16.302 -0.4333 -0.1877  1.4125
 2281TIP3   OH228333   6.364   3.645   3.539 -0.4270  0.7068  0.1743
 2281TIP3    H128334   6.401   3.701   3.607 -1.8355 -0.9736  2.4533
 2281TIP3    H228335   6.292   3.697   3.503 -0.8888  0.9045  1.3304
 2282TIP3   OH228336   3.858   5.283  12.770 -0.0804 -0.1543 -0.5397
 2282TIP3    H128337   3.826   5.313  12.685 -1.4989 -0.9053 -0.2899
 2282TIP3    H228338   3.941   5.240  12.750  0.8472  1.7962 -1.1992
 2283TIP3   OH228339   6.712   1.620  12.679  0.0951  0.0422  0.4207
 2283TIP3    H128340   6.755   1.594  12.598  0.1826 -1.4725  0.9140
 2283TIP3    H228341   6.664   1.541  12.707 -1.5762  1.1474  0.7997
 2284TIP3   OH228342   4.350   0.714   3.113 -0.4786  0.9403 -0.4292
 2284TIP3    H128343   4.293   0.670   3.050  4.0655 -4.0330 -1.7554
 2284TIP3    H228344   4.313   0.693   3.198 -1.1904 -1.3479 -1.2504
 2285TIP3   OH228345   0.767   6.487  12.649 -0.3006  0.5041 -0.1827
 2285TIP3    H128346   0.692   6.533  12.610 -0.6187  0.3915  0.2977
 2285TIP3    H228347   0.775   6.524  12.737 -0.5071 -0.3006  0.1777
 2286TIP3   OH228348   4.092   4.416   1.053  0.5785  0.0973 -0.4147
 2286TIP3    H128349   4.147   4.375   0.987  0.9518  0.0214 -0.0528
 2286TIP3    H228350   4.036   4.345   1.086  1.5547 -0.2396  0.5566
 2287TIP3   OH228351   5.633   2.322  12.246 -0.3991 -0.1499  0.7363
 2287TIP3    H128352   5.702   2.303  12.182 -0.1941  0.4141  0.7811
 2287TIP3    H228353   5.665   2.285  12.327 -0.4927 -0.5465  0.5958
 2288TIP3   OH228354   5.296   3.958  14.775  0.0482 -0.2344  0.4464
 2288TIP3    H128355   5.384   3.958  14.815  0.5641  0.0344 -0.6552
 2288TIP3    H228356   5.307   4.008  14.694 -1.7187  2.2089  1.5754
 2289TIP3   OH228357   5.172   5.352   2.590 -0.3815  0.3031 -0.0960
 2289TIP3    H128358   5.233   5.410   2.636 -0.8338  0.2523  0.5863
 2289TIP3    H228359   5.160   5.393   2.504  1.2222 -0.1044 -0.5508
 2290TIP3   OH228360   5.754   1.356  13.862  0.0870 -0.3350  0.6872
 2290TIP3    H128361   5.701   1.369  13.784 -0.3216  1.1841  1.1807
 2290TIP3    H228362   5.838   1.324  13.829 -0.2395 -0.1757 -0.3327
 2291TIP3   OH228363   2.421   5.972  12.764 -0.0939  0.2112 -0.0914
 2291TIP3    H128364   2.420   6.067  12.756 -0.9546  0.1672 -0.5823
 2291TIP3    H228365   2.331   5.945  12.749  0.4173 -0.8013 -1.7161
 2292TIP3   OH228366   3.673   4.206   6.268  0.2871  0.3636 -0.1484
 2292TIP3    H128367   3.647   4.154   6.192  0.8809  0.4205 -0.4028
 2292TIP3    H228368   3.708   4.141   6.330  0.4863  0.3911 -0.2292
 2293TIP3   OH228369   1.497   4.085   3.532  0.7580 -0.3686 -0.0202
 2293TIP3    H128370   1.421   4.128   3.493  0.1760 -0.8818  0.5309
 2293TIP3    H228371   1.571   4.118   3.482  0.2547  0.7329 -0.0723
 2294TIP3   OH228372   2.642   2.940  11.209 -0.1728  0.2564 -0.1802
 2294TIP3    H128373   2.671   3.002  11.142 -0.1653  1.8234  1.1915
 2294TIP3    H228374   2.560   2.904  11.176  0.1710  0.4709 -1.3126
 2295TIP3   OH228375   3.842   0.545  16.695 -0.2701  0.2580 -0.0235
 2295TIP3    H128376   3.752   0.539  16.661 -0.6364 -0.5473  1.0158
 2295TIP3    H228377   3.891   0.480  16.645 -0.8084 -0.9268  0.9301
 2296TIP3   OH228378   2.658   5.964   3.253  0.0048  0.3250  0.5604
 2296TIP3    H128379   2.589   6.031   3.258 -0.6509 -0.2561 -0.2649
 2296TIP3    H228380   2.739   6.012   3.269 -0.2755  1.6780 -1.6115
 2297TIP3   OH228381   1.214   6.538  11.849  0.0044 -0.0332 -0.9438
 2297TIP3    H128382   1.193   6.541  11.942  1.5461 -0.2591 -0.5607
 2297TIP3    H228383   1.131   6.513  11.806 -0.5372 -0.6886  0.4255
 2298TIP3   OH228384   6.238   2.986  12.853  0.6493 -0.0728  0.0467
 2298TIP3    H128385   6.294   2.930  12.799 -1.1794 -1.8896 -0.0746
 2298TIP3    H228386   6.190   3.039  12.790 -0.1402 -0.8648 -0.0200
 2299TIP3   OH228387   4.283   3.519  16.794  0.1560  0.4970 -0.2835
 2299TIP3    H128388   4.260   3.606  16.762 -0.5019 -0.3978 -2.3905
 2299TIP3    H228389   4.330   3.478  16.721  3.1158  0.0600  1.6890
 2300TIP3   OH228390   1.839   1.736  14.985  0.3430 -0.0245 -0.1015
 2300TIP3    H128391   1.866   1.826  15.003  1.6316 -0.5344  0.6700
 2300TIP3    H228392   1.833   1.695  15.072 -0.9840 -0.5035 -0.3854
 2301TIP3   OH228393   4.633   5.680   0.929 -0.2785 -0.3533 -0.5100
 2301TIP3    H128394   4.584   5.745   0.880  0.4424  1.2141  0.7621
 2301TIP3    H228395   4.719   5.677   0.888  0.1491  0.5609  0.2992
 2302TIP3   OH228396   2.544   3.716   0.849  0.3701 -0.0014 -0.2146
 2302TIP3    H128397   2.519   3.785   0.910  2.2527  0.0396  0.5538
 2302TIP3    H228398   2.472   3.713   0.786 -1.8915 -0.3777  2.2257
 2303TIP3   OH228399   3.169   2.322  15.272 -0.0232 -0.6413 -0.6020
 2303TIP3    H128400   3.126   2.343  15.189  0.3515 -0.6159 -0.7917
 2303TIP3    H228401   3.243   2.382  15.277 -0.3976 -0.2255  0.0436
 2304TIP3   OH228402   0.928   5.157   1.657  0.0783 -0.7926 -0.2278
 2304TIP3    H128403   0.916   5.140   1.563 -0.3770 -0.5125 -0.2258
 2304TIP3    H228404   1.022   5.161   1.669  0.1685 -1.6958 -0.5175
 2305TIP3   OH228405   2.888   2.065   4.332  0.1079 -0.1219 -0.7805
 2305TIP3    H128406   2.884   2.119   4.253  0.9508  1.7352  0.3617
 2305TIP3    H228407   2.906   2.128   4.402  0.2016 -1.8116  0.7747
 2306TIP3   OH228408   0.868   2.993  14.716 -0.7832 -0.3775 -0.6021
 2306TIP3    H128409   0.914   2.924  14.668 -2.0664 -1.5039 -0.2630
 2306TIP3    H228410   0.826   2.948  14.789 -0.7574  0.9484  0.2808
 2307TIP3   OH228411   2.459   0.047  10.388 -0.6235  0.1612  0.4520
 2307TIP3    H128412   2.501   0.036  10.474 -1.0207 -0.7350  0.5406
 2307TIP3    H228413   2.367   0.027  10.404 -0.5631 -0.8189 -0.3365
 2308TIP3   OH228414   2.918   5.492   0.134 -0.7855 -0.1870  0.4117
 2308TIP3    H128415   2.860   5.510   0.208  0.4073  0.3885  1.2409
 2308TIP3    H228416   2.883   5.546   0.062 -2.1269 -0.9773  0.4363
 2309TIP3   OH228417   0.549   5.028  14.653 -0.3688  0.7459 -0.3922
 2309TIP3    H128418   0.464   5.051  14.614 -0.1937 -0.7113 -1.7544
 2309TIP3    H228419   0.612   5.045  14.583  0.1814 -0.3140 -0.1697
 2310TIP3   OH228420   3.000   3.807  13.270 -0.7510 -0.3505  0.0157
 2310TIP3    H128421   3.086   3.849  13.264 -0.2499 -1.0278  1.6413
 2310TIP3    H228422   2.998   3.772  13.359 -1.6602 -2.6430 -0.8543
 2311TIP3   OH228423   6.517   4.701   1.462 -0.8174  0.0937  0.1235
 2311TIP3    H128424   6.596   4.746   1.431  0.2328 -1.4059  0.5082
 2311TIP3    H228425   6.455   4.772   1.481  0.4489  1.3123 -0.1357
 2312TIP3   OH228426   3.627   3.435   3.614 -0.5823  0.1567  0.1535
 2312TIP3    H128427   3.559   3.463   3.552  0.1065  0.3214 -0.5521
 2312TIP3    H228428   3.691   3.506   3.614  0.3254 -0.6262 -0.3415
 2313TIP3   OH228429   4.817   4.139   3.871 -0.2691  0.0994  0.4359
 2313TIP3    H128430   4.857   4.074   3.813 -1.5291  0.5081 -0.9528
 2313TIP3    H228431   4.802   4.091   3.953  1.1919 -0.6031  0.3317
 2314TIP3   OH228432   5.490   1.520  16.174 -0.2512 -0.4598  0.4896
 2314TIP3    H128433   5.561   1.526  16.238  1.4074 -0.4616 -1.2637
 2314TIP3    H228434   5.530   1.548  16.091 -2.2495 -0.6752 -0.6046
 2315TIP3   OH228435   4.165   3.016  12.899 -0.3431  0.2108  0.1530
 2315TIP3    H128436   4.146   2.937  12.949  1.1294  0.1282  0.6356
 2315TIP3    H228437   4.088   3.030  12.845 -0.4188 -1.8700 -0.3362
 2316TIP3   OH228438   1.621   2.943  11.864 -0.2639  0.6882 -0.1904
 2316TIP3    H128439   1.608   2.900  11.779 -2.2672  0.7574  0.0345
 2316TIP3    H228440   1.594   3.034  11.849 -0.4401  0.7459  0.4619
 2317TIP3   OH228441   1.459   0.811  13.979  0.6774  0.0533  0.5046
 2317TIP3    H128442   1.444   0.862  14.058  2.0417  2.1359 -0.5081
 2317TIP3    H228443   1.550   0.781  13.987  1.1018  0.9679 -0.5931
 2318TIP3   OH228444   0.928   1.575  14.672  0.4227 -0.3557  0.4272
 2318TIP3    H128445   0.873   1.505  14.710  0.4105 -0.7096 -0.2321
 2318TIP3    H228446   0.980   1.606  14.746  0.3290 -0.9732  0.7670
 2319TIP3   OH228447   1.760   5.522  14.242 -0.6821 -0.2191 -0.5115
 2319TIP3    H128448   1.815   5.536  14.165 -1.4024  1.0182 -0.8199
 2319TIP3    H228449   1.672   5.509  14.207 -1.4144  2.4551  0.1232
 2320TIP3   OH228450   2.380   5.366   2.383 -0.3747  0.0991  0.4304
 2320TIP3    H128451   2.409   5.291   2.435 -1.1139 -0.5543 -0.0853
 2320TIP3    H228452   2.298   5.392   2.424 -3.0214 -2.7717 -2.5262
 2321TIP3   OH228453   5.302   3.583  16.208  0.5900  1.0282  0.6207
 2321TIP3    H128454   5.217   3.623  16.224 -0.3558 -0.6001 -0.0369
 2321TIP3    H228455   5.329   3.615  16.122 -1.1222 -1.1499 -0.8513
 2322TIP3   OH228456   4.568   3.339   1.024 -0.2148 -0.1831 -0.7947
 2322TIP3    H128457   4.474   3.326   1.008 -0.0499  0.1790 -2.1943
 2322TIP3    H228458   4.589   3.275   1.093 -1.6651  0.3862  0.2258
 2323TIP3   OH228459   6.668   0.662  12.668  0.3211 -0.1008 -0.8461
 2323TIP3    H128460   6.621   0.631  12.745  0.3261  1.0740 -0.3464
 2323TIP3    H228461   6.737   0.717  12.703 -1.9924  3.7109 -1.7060
 2324TIP3   OH228462   6.571   5.833   3.875 -0.0653  0.2721 -0.8043
 2324TIP3    H128463   6.557   5.771   3.803 -0.7227  0.7029 -1.0631
 2324TIP3    H228464   6.624   5.785   3.939  0.2485 -0.2275 -1.4264
 2325TIP3   OH228465   2.425   6.235  14.395 -0.4739 -0.2479 -0.2748
 2325TIP3    H128466   2.477   6.156  14.383 -2.2070 -1.5559  0.3074
 2325TIP3    H228467   2.431   6.253  14.489 -0.5835 -0.0508 -0.3054
 2326TIP3   OH228468   1.350   0.873   4.811 -0.7199 -0.3563 -0.4900
 2326TIP3    H128469   1.281   0.902   4.871  1.1001  3.0276  0.2620
 2326TIP3    H228470   1.356   0.943   4.746  1.1415 -1.1475 -1.2416
 2327TIP3   OH228471   3.844   2.066  11.422  0.4093  0.8890  0.0316
 2327TIP3    H128472   3.803   2.140  11.465  3.0172  1.3178  2.0245
 2327TIP3    H228473   3.931   2.098  11.396 -0.0220 -0.1775 -3.2568
 2328TIP3   OH228474   4.541   3.421   2.684  0.3837  0.0693  0.4990
 2328TIP3    H128475   4.463   3.391   2.638  1.2909  0.1414 -1.1646
 2328TIP3    H228476   4.510   3.495   2.737 -0.4238  1.0347 -1.2417
 2329TIP3   OH228477   1.081   0.788  16.841 -0.2736 -0.6130  0.3254
 2329TIP3    H128478   1.073   0.831  16.756 -1.3968 -1.4670 -0.0253
 2329TIP3    H228479   0.998   0.806  16.885  0.2668 -0.2480  1.2210
 2330TIP3   OH228480   4.098   0.478  14.068  0.6195 -0.4251 -0.2777
 2330TIP3    H128481   4.026   0.452  14.125  0.1924 -0.5814 -0.8792
 2330TIP3    H228482   4.107   0.405  14.006  1.0761 -0.2595 -0.4105
 2331TIP3   OH228483   6.265   0.517   5.432  0.4590 -0.4570  0.3925
 2331TIP3    H128484   6.201   0.466   5.382 -1.2630 -0.1811  2.2063
 2331TIP3    H228485   6.350   0.487   5.399 -0.5430 -1.9462 -1.0206
 2332TIP3   OH228486   5.519   3.212   4.776  0.2620 -0.1312 -0.4304
 2332TIP3    H128487   5.497   3.143   4.839  0.7006 -0.4938 -0.6712
 2332TIP3    H228488   5.518   3.293   4.828 -0.4528 -0.2844 -0.1890
 2333TIP3   OH228489   6.805   1.793   5.374 -0.1953  0.1187  0.0047
 2333TIP3    H128490   6.724   1.828   5.338 -1.2261 -2.0907 -0.0080
 2333TIP3    H228491   6.859   1.870   5.391 -1.2278  1.5006 -2.4540
 2334TIP3   OH228492   5.006   2.792  13.747 -0.1069  0.2847  0.7178
 2334TIP3    H128493   4.934   2.730  13.737  0.6714 -0.4915 -0.1264
 2334TIP3    H228494   5.064   2.752  13.812 -1.4369  1.8978  3.0841
 2335TIP3   OH228495   0.816   2.384  13.173 -0.0308  0.2991 -0.0895
 2335TIP3    H128496   0.806   2.291  13.153  1.9480  0.0978 -0.3366
 2335TIP3    H228497   0.727   2.419  13.167 -1.1498 -1.8995  1.8975
 2336TIP3   OH228498   1.337   0.796   1.728 -0.1954 -0.2537  0.3394
 2336TIP3    H128499   1.379   0.744   1.797 -1.8045 -1.7236  0.2972
 2336TIP3    H228500   1.292   0.731   1.674  0.9214  0.8708 -2.0685
 2337TIP3   OH228501   5.279   6.416  12.192 -0.0691 -0.2626 -0.3572
 2337TIP3    H128502   5.293   6.510  12.207 -0.2483 -0.2253 -0.4116
 2337TIP3    H228503   5.207   6.394  12.251  0.2124 -0.4477 -0.0815
 2338TIP3   OH228504   3.671   6.331   0.260 -0.5875 -0.3209  0.6294
 2338TIP3    H128505   3.744   6.287   0.217  0.6471  1.4765  0.8098
 2338TIP3    H228506   3.623   6.373   0.188 -2.0003 -2.1285  0.4077
 2339TIP3   OH228507   6.463   3.155  16.824 -0.3923  0.9570 -0.2888
 2339TIP3    H128508   6.406   3.079  16.836 -0.4756  0.9986 -0.4142
 2339TIP3    H228509   6.507   3.138  16.741  0.7251  0.3229  0.4201
 2340TIP3   OH228510   6.738   1.049   0.822  0.1376  0.5756  0.0701
 2340TIP3    H128511   6.721   1.095   0.904  1.1468  0.1550  0.5351
 2340TIP3    H228512   6.732   0.956   0.844 -2.1540  0.4276 -0.9241
 2341TIP3   OH228513   3.453   4.268   1.112  0.3109  0.1429 -0.3138
 2341TIP3    H128514   3.363   4.256   1.081  0.5720  0.5034 -1.2356
 2341TIP3    H228515   3.479   4.354   1.079  0.7701  0.3373  0.5144
 2342TIP3   OH228516   4.740   6.616   4.450 -0.1439 -0.1014  0.0243
 2342TIP3    H128517   4.794   6.662   4.386 -3.0824  1.6431 -1.4220
 2342TIP3    H228518   4.713   6.684   4.512 -0.6203 -0.9319  0.7581
 2343TIP3   OH228519   0.475   1.184   3.013 -0.0751 -0.4151  0.0011
 2343TIP3    H128520   0.480   1.109   2.953  1.7868 -0.4380  0.1207
 2343TIP3    H228521   0.558   1.230   3.001  0.4876 -0.5316  2.6711
 2344TIP3   OH228522   0.386   3.037   4.001  0.3261  0.0248  0.4657
 2344TIP3    H128523   0.361   2.994   3.919 -0.7088  1.1984  0.1323
 2344TIP3    H228524   0.469   3.080   3.981  1.8525 -2.4103  1.0558
 2345TIP3   OH228525   4.822   4.698  11.963 -0.5327  0.0783  0.4296
 2345TIP3    H128526   4.847   4.658  11.880 -1.1551  1.3574 -0.3973
 2345TIP3    H228527   4.734   4.666  11.980 -0.1266 -0.7791  1.0050
 2346TIP3   OH228528   5.486   4.050  11.581  0.2348  0.7070 -0.4650
 2346TIP3    H128529   5.465   4.119  11.519  2.4351 -0.1044 -2.2389
 2346TIP3    H228530   5.573   4.072  11.614 -0.8194  1.0834  2.4082
 2347TIP3   OH228531   2.327   5.139  13.153  0.5266 -1.0147  0.1448
 2347TIP3    H128532   2.320   5.098  13.239  1.0744 -1.6675 -0.1140
 2347TIP3    H228533   2.289   5.226  13.165  0.8025 -1.0127  1.1067
 2348TIP3   OH228534   2.814   0.882   4.625  0.4112 -0.2191  0.2664
 2348TIP3    H128535   2.814   0.787   4.610 -0.1461 -0.2799  0.6611
 2348TIP3    H228536   2.870   0.894   4.702  0.0027 -0.2803  0.5711
 2349TIP3   OH228537   0.953   4.998   4.828 -0.3371 -0.1754 -0.1596
 2349TIP3    H128538   1.003   5.027   4.752 -2.1230  0.6042 -1.1262
 2349TIP3    H228539   0.955   5.073   4.888 -0.3255 -0.1499 -0.1918
 2350TIP3   OH228540   5.497   6.065   4.140 -0.2667 -0.3257  1.2556
 2350TIP3    H128541   5.420   6.106   4.178 -0.4107 -1.8581  2.7699
 2350TIP3    H228542   5.467   6.028   4.057 -1.1661 -0.8696  1.8146
 2351TIP3   OH228543   4.029   0.928   4.461  0.0579 -0.5095 -0.1874
 2351TIP3    H128544   4.093   0.929   4.533 -0.1824  0.5038  0.0319
 2351TIP3    H228545   4.081   0.916   4.382  0.5362  0.2817 -0.0067
 2352TIP3   OH228546   0.886   6.204  12.059  0.6161  0.0695  0.5281
 2352TIP3    H128547   0.904   6.116  12.027 -1.2651  0.3513 -1.4969
 2352TIP3    H228548   0.839   6.191  12.142  1.4531 -0.7735  0.8839
 2353TIP3   OH228549   4.983   1.645  11.577 -0.3838  0.0236  0.0770
 2353TIP3    H128550   5.040   1.665  11.503 -2.4510  1.1816 -1.2859
 2353TIP3    H228551   5.016   1.562  11.610  3.6074  1.7456  0.9626
 2354TIP3   OH228552   3.208   4.566   0.985 -0.1334  0.1919 -0.0388
 2354TIP3    H128553   3.212   4.482   0.939 -0.3185  0.6981 -0.9996
 2354TIP3    H228554   3.114   4.580   1.000 -0.3046  1.2118 -1.7828
 2355TIP3   OH228555   3.847   6.126   3.070  0.0629 -0.2400 -0.7513
 2355TIP3    H128556   3.777   6.141   3.007 -0.6339 -0.0650  0.0393
 2355TIP3    H228557   3.805   6.135   3.155  1.0019 -0.3671 -0.2546
 2356TIP3   OH228558   1.374   2.561   3.163 -0.3918  0.4560 -0.0538
 2356TIP3    H128559   1.327   2.532   3.085  0.6694  0.2417 -0.6204
 2356TIP3    H228560   1.465   2.572   3.135 -0.2387  1.6950  0.8178
 2357TIP3   OH228561   2.818   3.625   1.600 -0.0305  0.2565  0.3284
 2357TIP3    H128562   2.817   3.543   1.550 -1.1803 -0.4489  1.4555
 2357TIP3    H228563   2.792   3.691   1.536  1.4787 -0.1290 -0.7468
 2358TIP3   OH228564   1.022   6.108  10.907  0.0485  0.1323 -0.2823
 2358TIP3    H128565   0.940   6.149  10.881 -0.4241 -0.4537  0.2473
 2358TIP3    H228566   1.039   6.042  10.839  0.1153  0.2961 -0.4245
 2359TIP3   OH228567   3.342   6.537   4.746  0.4447  0.2631  0.3311
 2359TIP3    H128568   3.293   6.454   4.752  3.2682 -1.6791 -1.1935
 2359TIP3    H228569   3.434   6.511   4.747  1.4722  3.1785 -2.2103
 2360TIP3   OH228570   6.008   3.768   1.121 -1.2424 -0.8667 -0.3583
 2360TIP3    H128571   5.930   3.714   1.132 -0.2398 -2.0577  1.3937
 2360TIP3    H228572   6.075   3.707   1.089 -0.1168 -0.7027  1.5558
 2361TIP3   OH228573   1.382   6.263  16.079  0.1823  0.0262 -0.0633
 2361TIP3    H128574   1.394   6.351  16.044 -0.8947  0.1996 -0.0312
 2361TIP3    H228575   1.331   6.275  16.159  1.9345 -0.4451  1.1695
 2362TIP3   OH228576   5.308   4.879   4.146  0.1395  0.4619 -0.5975
 2362TIP3    H128577   5.283   4.798   4.102 -1.5971  0.3685  0.4423
 2362TIP3    H228578   5.256   4.947   4.102  1.0115  0.9011 -0.9663
 2363TIP3   OH228579   3.753   4.622   3.309  0.1530  0.2016 -0.3086
 2363TIP3    H128580   3.789   4.559   3.370  0.9025  1.1981  0.3051
 2363TIP3    H228581   3.696   4.678   3.362 -1.4084 -0.6119 -1.0455
 2364TIP3   OH228582   4.460   3.165   2.218  0.0068  0.0361  0.3457
 2364TIP3    H128583   4.397   3.192   2.285 -0.5017  1.9934 -0.8627
 2364TIP3    H228584   4.407   3.149   2.140  0.8107 -0.2706 -0.1509
 2365TIP3   OH228585   4.417   4.600  13.634 -0.0215 -0.0251 -0.4875
 2365TIP3    H128586   4.404   4.687  13.673  1.0856  0.2052 -0.5929
 2365TIP3    H228587   4.503   4.605  13.592 -0.9583 -0.4350 -2.5650
 2366TIP3   OH228588   2.705   5.614  12.346  0.3608  0.3492  0.0527
 2366TIP3    H128589   2.783   5.646  12.301  0.0483  0.3183 -0.5263
 2366TIP3    H228590   2.705   5.520  12.330 -0.0584  0.4179 -0.3775
 2367TIP3   OH228591   1.974   1.610  11.328 -0.0780  0.2402 -0.5250
 2367TIP3    H128592   1.891   1.616  11.375  0.9760 -1.4954  1.7588
 2367TIP3    H228593   1.953   1.560  11.249 -1.0755 -0.9154  0.4395
 2368TIP3   OH228594   5.351   3.213  14.885 -0.1430  0.3243 -0.2317
 2368TIP3    H128595   5.355   3.279  14.954 -2.1436 -1.6371  1.9246
 2368TIP3    H228596   5.439   3.178  14.880  0.1655  0.8762  0.9454
 2369TIP3   OH228597   5.541   6.058   0.951  0.0063  0.2911 -0.2135
 2369TIP3    H128598   5.622   6.100   0.925  0.5046 -0.8776 -0.6143
 2369TIP3    H228599   5.565   5.967   0.969 -1.0101  0.1885  0.7389
 2370TIP3   OH228600   1.409   5.513  13.712  0.3928  0.3454  0.4717
 2370TIP3    H128601   1.402   5.602  13.747  0.1539 -0.0771  1.5457
 2370TIP3    H228602   1.501   5.490  13.724  1.0043  1.2657 -1.9487
 2371TIP3   OH228603   6.678   4.482   4.474 -0.1031 -0.0177  0.0045
 2371TIP3    H128604   6.629   4.476   4.555  0.9454 -1.3449  0.5835
 2371TIP3    H228605   6.638   4.554   4.426 -0.5840  0.9530  1.8040
 2372TIP3   OH228606   0.524   2.997  13.131 -0.6391 -0.1046 -0.6191
 2372TIP3    H128607   0.567   3.070  13.089  0.5818 -0.2491  0.3196
 2372TIP3    H228608   0.528   3.017  13.225 -0.7884 -1.0973 -0.3847
 2373TIP3   OH228609   1.321   2.600  16.455  0.4940  0.4996  0.3559
 2373TIP3    H128610   1.278   2.683  16.479  0.6160  1.1612 -1.5338
 2373TIP3    H228611   1.275   2.534  16.506 -1.9197  1.3516 -0.5637
 2374TIP3   OH228612   3.546   4.413   0.598 -0.5014 -0.5949 -0.0976
 2374TIP3    H128613   3.456   4.383   0.584 -0.3059 -0.6200 -1.4218
 2374TIP3    H228614   3.572   4.451   0.514  0.3271  0.4787  0.6192
 2375TIP3   OH228615   2.354   6.019   3.462  0.2317  0.1933 -0.4719
 2375TIP3    H128616   2.319   6.064   3.539  2.4659 -1.3308  1.5994
 2375TIP3    H228617   2.306   5.937   3.459  0.7413 -0.1310 -0.1023
 2376TIP3   OH228618   6.504   3.072   2.966  0.4022  0.3377 -0.2382
 2376TIP3    H128619   6.482   3.082   3.059 -0.1378 -0.6431 -0.2378
 2376TIP3    H228620   6.552   3.151   2.943 -0.2569  1.0098  0.6470
 2377TIP3   OH228621   2.959   2.414   5.642  0.1700  0.2490 -0.4767
 2377TIP3    H128622   2.915   2.383   5.563  1.5738 -0.9047 -0.8491
 2377TIP3    H228623   2.888   2.446   5.698 -1.2716 -2.2485 -0.7100
 2378TIP3   OH228624   5.098   4.609   4.493 -0.5324  0.2339 -0.0124
 2378TIP3    H128625   5.057   4.648   4.571  0.5907 -2.9571  2.3778
 2378TIP3    H228626   5.187   4.646   4.492  0.0357 -0.9707  1.3722
 2379TIP3   OH228627   4.930   3.094   2.476 -0.0693  0.5220  0.0662
 2379TIP3    H128628   4.894   3.054   2.555 -1.6008  1.1538 -0.2752
 2379TIP3    H228629   4.854   3.106   2.419  0.8460  1.0744 -1.0624
 2380TIP3   OH228630   3.339   6.263  15.472 -0.1540 -0.7415  0.4791
 2380TIP3    H128631   3.364   6.353  15.453  0.0350  0.1530  4.2145
 2380TIP3    H228632   3.412   6.228  15.522 -1.4006 -2.0009  1.4949
 2381TIP3   OH228633   0.331   2.136  12.986  0.1635 -0.4994  0.0794
 2381TIP3    H128634   0.398   2.129  12.919 -0.5465  0.4535 -0.7649
 2381TIP3    H228635   0.312   2.230  12.991 -2.4296 -0.8786 -1.0627
 2382TIP3   OH228636   3.787   3.144  13.425 -0.2579  0.0315 -0.1180
 2382TIP3    H128637   3.819   3.118  13.510 -1.2238 -1.5760 -0.2126
 2382TIP3    H228638   3.858   3.123  13.364 -0.9822 -2.4876 -0.1875
 2383TIP3   OH228639   0.262   2.107  15.282 -0.0425 -0.2108 -0.3206
 2383TIP3    H128640   0.329   2.169  15.255  2.7170 -2.5657  0.5541
 2383TIP3    H228641   0.241   2.131  15.372 -1.3035  1.2277 -0.9659
 2384TIP3   OH228642   4.041   4.528  15.935  0.4856 -0.2552 -0.3992
 2384TIP3    H128643   3.971   4.506  15.997  0.2889 -0.4078 -0.6730
 2384TIP3    H228644   4.045   4.623  15.935 -0.3655 -0.2077 -1.0912
 2385TIP3   OH228645   3.982   2.033   4.479 -0.6791 -0.4500 -0.2333
 2385TIP3    H128646   3.928   1.969   4.432 -0.6824 -1.6326  1.3008
 2385TIP3    H228647   3.935   2.047   4.562 -0.3161  1.0368 -0.2603
 2386TIP3   OH228648   6.106   4.392   2.926 -0.7101 -0.0746  0.0013
 2386TIP3    H128649   6.032   4.447   2.953  0.3886  1.1274  0.6608
 2386TIP3    H228650   6.080   4.304   2.953 -3.8363 -0.5740 -3.7164
 2387TIP3   OH228651   3.696   3.953  12.024 -0.1681  0.0955  0.2621
 2387TIP3    H128652   3.639   3.943  11.947 -1.2978  0.9153  0.9512
 2387TIP3    H228653   3.643   3.922  12.097  0.1934  1.0638  0.9493
 2388TIP3   OH228654   1.400   2.064  13.675 -0.7963 -0.5270  0.4288
 2388TIP3    H128655   1.371   2.148  13.638  0.7260  0.2907  0.9744
 2388TIP3    H228656   1.468   2.089  13.738 -0.3285 -2.1845  0.6107
 2389TIP3   OH228657   4.158   3.351  12.727 -0.0152  0.2360 -0.1156
 2389TIP3    H128658   4.091   3.339  12.660 -0.2965  0.9709  0.0298
 2389TIP3    H228659   4.110   3.368  12.808  0.3333  1.3826 -0.1287
 2390TIP3   OH228660   1.302   3.929   6.126  0.0111  0.2568  0.2117
 2390TIP3    H128661   1.393   3.911   6.148 -0.2369 -0.5128  0.6942
 2390TIP3    H228662   1.258   3.845   6.140 -0.5050  0.2153 -1.5128
 2391TIP3   OH228663   4.302   4.987  15.369  0.6389  0.4468 -0.9871
 2391TIP3    H128664   4.396   4.985  15.389  1.0441 -0.0732 -2.7893
 2391TIP3    H228665   4.290   4.917  15.305 -0.9984  0.4854 -0.7451
 2392TIP3   OH228666   5.224   6.719   3.060 -0.0374  0.2827  0.1706
 2392TIP3    H128667   5.177   6.715   3.143  0.3956  2.7592  0.6244
 2392TIP3    H228668   5.156   6.716   2.993 -0.4916 -0.3986  0.6528
 2393TIP3   OH228669   1.495   4.111  14.543  0.3745 -0.0991 -0.2794
 2393TIP3    H128670   1.512   4.017  14.534 -0.7137 -0.2492 -0.9786
 2393TIP3    H228671   1.467   4.139  14.455  2.4304  1.2847 -0.5829
 2394TIP3   OH228672   4.648   1.790  14.765  0.4493 -0.0290 -0.2336
 2394TIP3    H128673   4.673   1.717  14.709 -3.5409 -0.1301 -2.2144
 2394TIP3    H228674   4.661   1.868  14.711 -2.8241 -0.0841 -1.3750
 2395TIP3   OH228675   0.942   0.875   4.262 -0.3170  0.1574  0.3933
 2395TIP3    H128676   1.005   0.893   4.332 -0.3467  0.8786  0.2414
 2395TIP3    H228677   0.872   0.938   4.277 -1.1044 -0.7688  0.6776
 2396TIP3   OH228678   1.195   5.659   2.753  0.0994 -0.3780 -0.5267
 2396TIP3    H128679   1.214   5.642   2.846  0.3724  1.9880 -0.0891
 2396TIP3    H228680   1.202   5.573   2.711 -1.1156 -1.7120  1.8112
 2397TIP3   OH228681   0.363   3.550  10.592 -0.7722  0.1528  0.0120
 2397TIP3    H128682   0.394   3.623  10.540  0.4182  0.0712  0.5801
 2397TIP3    H228683   0.268   3.549  10.578 -0.6417  0.9786 -1.0299
 2398TIP3   OH228684   0.933   3.284   3.441 -0.4086  0.2879  0.3247
 2398TIP3    H128685   0.863   3.313   3.499  0.2304 -0.6188  1.5945
 2398TIP3    H228686   1.014   3.306   3.488  0.1305 -0.4403 -0.2349
 2399TIP3   OH228687   3.388   6.297  11.356  0.7508 -0.4053  0.4114
 2399TIP3    H128688   3.466   6.249  11.386  1.9407  1.1606 -0.0359
 2399TIP3    H228689   3.423   6.368  11.302 -1.0691 -0.2803 -0.7012
 2400TIP3   OH228690   5.345   2.249  10.366  0.3270 -0.1833 -0.3499
 2400TIP3    H128691   5.422   2.217  10.412 -0.7621 -1.0776  0.9141
 2400TIP3    H228692   5.285   2.174  10.364 -1.4157  1.1150  0.7142
 2401TIP3   OH228693   1.187   5.646   4.584 -0.3616  0.0181  0.7979
 2401TIP3    H128694   1.213   5.704   4.655  1.3821 -1.8481  1.7895
 2401TIP3    H228695   1.146   5.704   4.519  0.7509  2.2371  1.9710
 2402TIP3   OH228696   5.879   0.496  15.694 -0.2282  0.1477  0.5066
 2402TIP3    H128697   5.885   0.511  15.599 -0.9794  1.3591  0.6368
 2402TIP3    H228698   5.867   0.401  15.702 -1.9804  0.2042 -0.7362
 2403TIP3   OH228699   5.991   5.662   5.616  0.0246  0.3517  0.2020
 2403TIP3    H128700   6.019   5.589   5.561  0.6617  0.5002  0.3233
 2403TIP3    H228701   6.033   5.647   5.701 -1.3913 -0.1761  0.8500
 2404TIP3   OH228702   1.570   6.534  12.962 -0.0426 -0.2444 -0.1138
 2404TIP3    H128703   1.513   6.500  13.031  0.7044 -0.2377  0.5248
 2404TIP3    H228704   1.655   6.544  13.005  0.5116 -0.5369 -1.1169
 2405TIP3   OH228705   1.661   4.861   1.896  0.2601  0.4707 -0.2025
 2405TIP3    H128706   1.733   4.921   1.916 -0.5961  1.6427 -0.5547
 2405TIP3    H228707   1.653   4.807   1.974  0.3252  1.5613  0.5854
 2406TIP3   OH228708   3.959   4.870   0.928 -0.4437  0.3442  0.1173
 2406TIP3    H128709   3.894   4.914   0.874  0.7406  2.2350  0.1520
 2406TIP3    H228710   4.043   4.893   0.888  0.2770 -1.4977  0.4497
 2407TIP3   OH228711   4.491   6.145  17.052 -0.1635  0.0711 -0.2528
 2407TIP3    H128712   4.465   6.057  17.080  0.1415 -0.2197 -0.8680
 2407TIP3    H228713   4.580   6.155  17.086  0.1433 -0.2163 -0.9580
 2408TIP3   OH228714   5.981   4.249  14.701 -0.1687  0.1175 -0.0263
 2408TIP3    H128715   5.937   4.174  14.741  2.2745 -1.3785  0.0534
 2408TIP3    H228716   6.074   4.235  14.720  0.6058  1.9427 -2.0445
 2409TIP3   OH228717   6.609   4.506  11.194  0.2095  0.2993 -0.0378
 2409TIP3    H128718   6.548   4.549  11.134  0.2594 -1.0059 -1.0541
 2409TIP3    H228719   6.556   4.488  11.272 -0.4627  0.0019 -0.5549
 2410TIP3   OH228720   6.812   2.818  16.426 -0.3839  0.1388 -0.4103
 2410TIP3    H128721   6.805   2.723  16.423  2.4073 -0.1469 -0.8154
 2410TIP3    H228722   6.849   2.837  16.512 -3.2985  1.1485  0.7092
 2411TIP3   OH228723   2.882   4.917   1.467 -0.3166 -0.3387  0.0518
 2411TIP3    H128724   2.811   4.874   1.419  0.5511  0.3742 -1.9832
 2411TIP3    H228725   2.910   4.852   1.532 -1.2885 -1.5000 -0.6602
 2412TIP3   OH228726   2.768   1.068   2.830 -0.1416  0.0141  0.2649
 2412TIP3    H128727   2.778   1.050   2.736 -0.4755  0.7122  0.0910
 2412TIP3    H228728   2.708   1.000   2.861  0.3426 -0.5072  0.0719
 2413TIP3   OH228729   2.321   5.969   5.354 -0.1633 -0.1587  0.0114
 2413TIP3    H128730   2.349   6.047   5.306 -0.0999  0.1037  0.4706
 2413TIP3    H228731   2.231   5.989   5.381 -0.0804 -0.1678  0.2944
 2414TIP3   OH228732   4.145   3.324   2.175  0.5017 -0.0472 -0.2063
 2414TIP3    H128733   4.065   3.376   2.161  1.2060  1.5319  1.2656
 2414TIP3    H228734   4.144   3.260   2.104 -2.0042 -0.0120 -0.3074
 2415TIP3   OH228735   1.825   4.896   1.275  0.2378  0.1969  0.3694
 2415TIP3    H128736   1.913   4.904   1.312  0.3480  0.8615 -0.0148
 2415TIP3    H228737   1.795   4.810   1.304  0.2625  0.7311  2.0859
 2416TIP3   OH228738   1.419   0.036  16.560 -0.0365  0.1562 -0.2553
 2416TIP3    H128739   1.371   0.092  16.621  0.2260 -1.6991  1.8110
 2416TIP3    H228740   1.355  -0.027  16.529  0.2880 -0.1896 -0.2339
 2417TIP3   OH228741   4.351   3.332   0.172 -0.4775 -0.8875 -0.2264
 2417TIP3    H128742   4.381   3.250   0.210  0.6685  0.4333  1.8960
 2417TIP3    H228743   4.431   3.380   0.152 -1.1189  0.3397  0.0190
 2418TIP3   OH228744   2.212   3.771  15.078  0.1244  0.0568  0.0169
 2418TIP3    H128745   2.138   3.725  15.116 -1.9933  2.2877 -1.0960
 2418TIP3    H228746   2.221   3.734  14.990 -0.7804  0.8596 -0.4341
 2419TIP3   OH228747   1.648   5.497   1.308  0.0367  0.1336  0.3232
 2419TIP3    H128748   1.697   5.520   1.387 -0.1235 -1.0934  0.7944
 2419TIP3    H228749   1.683   5.555   1.240  1.8107 -0.3859  0.7490
 2420TIP3   OH228750   1.098   4.308  15.137  0.5569  0.1990 -0.0060
 2420TIP3    H128751   1.150   4.339  15.062  1.9845 -1.1570  0.3691
 2420TIP3    H228752   1.032   4.251  15.098  0.3687  0.6453 -0.3496
 2421TIP3   OH228753   4.594   0.046   5.451  0.5586 -0.1943 -0.3997
 2421TIP3    H128754   4.551   0.086   5.375  1.5660  0.1148 -0.8195
 2421TIP3    H228755   4.685   0.075   5.446  0.7501 -0.5484  0.6726
 2422TIP3   OH228756   2.919   1.043   0.551 -0.1455 -0.4293  0.1218
 2422TIP3    H128757   2.888   1.089   0.628 -0.3088 -1.3296  0.6141
 2422TIP3    H228758   2.866   1.078   0.479 -0.6301 -0.2311  0.5661
 2423TIP3   OH228759   3.700   4.219  11.957  0.1721 -0.2742 -0.3531
 2423TIP3    H128760   3.728   4.181  11.874  1.2001 -1.3961  0.4667
 2423TIP3    H228761   3.678   4.143  12.012  1.6908  0.2849  1.1257
 2424TIP3   OH228762   3.079   0.181  15.137 -0.7606  0.0206  0.3059
 2424TIP3    H128763   3.100   0.275  15.134 -0.1552 -0.1178 -0.0001
 2424TIP3    H228764   2.989   0.178  15.169 -1.7953  0.8309 -2.2486
 2425TIP3   OH228765   4.916   2.538  14.695  0.0438  0.3284 -0.1411
 2425TIP3    H128766   4.951   2.580  14.773  0.9128 -0.7205  0.0603
 2425TIP3    H228767   4.899   2.609  14.634  1.0799  0.9980  0.3351
 2426TIP3   OH228768   0.319   5.364   3.288  0.1143 -0.3941  0.0964
 2426TIP3    H128769   0.261   5.416   3.233 -0.9802  0.0646  1.6289
 2426TIP3    H228770   0.305   5.397   3.377  3.1204  0.1200  0.4940
 2427TIP3   OH228771   4.556   1.421  12.506 -0.5818 -0.5010  0.4628
 2427TIP3    H128772   4.472   1.463  12.523 -0.2979  0.9262 -1.4096
 2427TIP3    H228773   4.615   1.492  12.483  0.6557 -1.6587 -0.1032
 2428TIP3   OH228774   4.944   5.691  14.765  0.3837 -0.6370  0.1899
 2428TIP3    H128775   4.898   5.628  14.820 -1.4040 -1.2368 -1.8333
 2428TIP3    H228776   4.890   5.697  14.686  0.5111  3.3405  0.1843
 2429TIP3   OH228777   5.736   5.967   6.371  0.0694 -0.3821  0.1266
 2429TIP3    H128778   5.646   5.968   6.405  1.1258 -0.8690  3.2191
 2429TIP3    H228779   5.735   6.033   6.302 -2.3286  0.6221  0.9889
 2430TIP3   OH228780   5.199   4.545   0.582 -0.1303 -0.1658 -0.7550
 2430TIP3    H128781   5.250   4.594   0.518  2.2670 -0.3933  0.8621
 2430TIP3    H228782   5.250   4.466   0.598 -0.4423  0.0381  1.6367
 2431TIP3   OH228783   4.344   6.609   5.315  0.5431 -0.1842 -0.1294
 2431TIP3    H128784   4.390   6.664   5.251  0.3220 -1.2049 -1.1865
 2431TIP3    H228785   4.383   6.522   5.306 -0.6667 -0.7518 -0.0990
 2432TIP3   OH228786   5.547   1.983   0.798  0.5980 -0.6171  0.4213
 2432TIP3    H128787   5.486   2.037   0.848 -0.2371 -1.1911  0.0442
 2432TIP3    H228788   5.566   1.908   0.855 -0.6976 -1.4970 -0.2487
 2433TIP3   OH228789   2.124   5.361  16.871 -0.3734 -0.1751 -0.2447
 2433TIP3    H128790   2.132   5.416  16.949 -3.2940 -1.3543  1.0484
 2433TIP3    H228791   2.093   5.277  16.905  4.4816 -3.1027 -2.0007
 2434TIP3   OH228792   3.059   4.898  16.929 -0.5186  0.1821  0.5688
 2434TIP3    H128793   3.095   4.817  16.966  2.9211  1.0882 -0.4758
 2434TIP3    H228794   2.996   4.868  16.863 -0.1988 -1.6106  1.0211
 2435TIP3   OH228795   3.396   3.678   4.958  0.5858  0.6164  0.4485
 2435TIP3    H128796   3.336   3.726   4.901 -1.2437 -1.9004  0.0814
 2435TIP3    H228797   3.339   3.628   5.017  2.3656 -0.2765  1.5145
 2436TIP3   OH228798   0.007   3.316  16.757 -0.4965 -0.9221 -0.1545
 2436TIP3    H128799   0.047   3.401  16.738 -1.1061 -0.8144 -1.0881
 2436TIP3    H228800   0.052   3.284  16.835  0.1353 -0.0003 -0.1255
 2437TIP3   OH228801   0.913   4.030   1.632 -0.0598 -0.3286  0.3953
 2437TIP3    H128802   0.825   3.996   1.614 -0.5791  1.1005  0.0920
 2437TIP3    H228803   0.953   4.039   1.546  0.1725 -0.4138  0.4930
 2438TIP3   OH228804   2.250   0.561  12.400 -0.0652 -0.4870  0.0944
 2438TIP3    H128805   2.180   0.626  12.408  1.5410  1.8669 -2.9964
 2438TIP3    H228806   2.319   0.593  12.459  0.2973  0.0225 -0.5967
 2439TIP3   OH228807   2.413   2.466   2.199  0.1105 -0.2730  0.5148
 2439TIP3    H128808   2.476   2.534   2.223 -0.6366  1.1853 -1.4003
 2439TIP3    H228809   2.332   2.491   2.244  0.3455 -1.0210  1.3738
 2440TIP3   OH228810   5.674   1.525   3.047 -0.2908 -0.2117  0.1707
 2440TIP3    H128811   5.764   1.541   3.018  0.0457  0.0509  1.3059
 2440TIP3    H228812   5.624   1.597   3.010 -0.1554 -0.7152 -1.0087
 2441TIP3   OH228813   0.674   4.371   3.708 -0.5935 -0.1994  0.1328
 2441TIP3    H128814   0.706   4.454   3.744 -2.0443 -0.0650  1.1999
 2441TIP3    H228815   0.751   4.314   3.708  0.0839  0.6802  0.8418
 2442TIP3   OH228816   1.149   2.251  16.841 -0.0739  0.0357  0.5462
 2442TIP3    H128817   1.213   2.214  16.781  0.0773  0.8307  0.1990
 2442TIP3    H228818   1.109   2.175  16.884  0.9591 -0.4799  0.6303
 2443TIP3   OH228819   3.364   2.548  15.991  0.5528  0.2539  0.0555
 2443TIP3    H128820   3.346   2.581  16.079 -0.6134  1.9595 -0.7589
 2443TIP3    H228821   3.448   2.589  15.968  1.2305 -0.7748  0.6089
 2444TIP3   OH228822   2.189   5.123  15.629 -0.1194 -0.1174 -0.5170
 2444TIP3    H128823   2.100   5.089  15.640 -0.8944  0.8269 -3.0846
 2444TIP3    H228824   2.236   5.055  15.581 -0.2509  0.4125 -1.4264
 2445TIP3   OH228825   1.074   0.526   0.208 -0.2524 -0.4209  0.9934
 2445TIP3    H128826   1.094   0.556   0.297  0.9245 -1.1695  0.9983
 2445TIP3    H228827   0.978   0.525   0.204 -0.4532  3.2870  0.9871
 2446TIP3   OH228828   1.918   4.515   0.099 -0.6370 -0.1857 -0.0361
 2446TIP3    H128829   2.008   4.492   0.075 -0.8789 -1.8694  0.5600
 2446TIP3    H228830   1.864   4.474   0.032 -0.9876  0.7487 -0.3437
 2447TIP3   OH228831   2.792   2.691  13.494  0.1187  0.1447  0.5136
 2447TIP3    H128832   2.750   2.764  13.539 -1.6785  1.0149 -2.2943
 2447TIP3    H228833   2.886   2.712  13.497  0.0709  0.3364  3.3052
 2448TIP3   OH228834   4.442   5.322  15.312  0.8293  0.4950 -0.3294
 2448TIP3    H128835   4.410   5.347  15.225  0.1433  0.2620 -0.1541
 2448TIP3    H228836   4.443   5.403  15.362  1.0204  0.5937 -0.4937
 2449TIP3   OH228837   1.197   1.053  15.624 -0.2021  0.4374 -0.0184
 2449TIP3    H128838   1.218   0.961  15.611  1.9717  0.6479  1.3945
 2449TIP3    H228839   1.262   1.100  15.572 -2.2620  1.2570 -2.0299
 2450TIP3   OH228840   3.184   0.602   0.401 -0.2726  0.2282  0.3098
 2450TIP3    H128841   3.123   0.668   0.434 -0.2681  0.9785 -1.1209
 2450TIP3    H228842   3.174   0.528   0.462 -1.8333  0.7276  0.7175
 2451TIP3   OH228843   5.302   6.329  10.508 -0.1957 -0.3879  0.8501
 2451TIP3    H128844   5.354   6.260  10.547  0.9833 -0.8288 -1.3329
 2451TIP3    H228845   5.352   6.409  10.524 -0.2386 -0.4197  1.1384
 2452TIP3   OH228846   4.605   0.593  12.654 -0.0666 -0.0432  0.1237
 2452TIP3    H128847   4.687   0.544  12.658  0.2113  0.4791  1.0360
 2452TIP3    H228848   4.632   0.683  12.637 -0.4904  0.0431 -0.1161
 2453TIP3   OH228849   4.160   1.235   0.009 -0.6614  0.5193  0.1229
 2453TIP3    H128850   4.189   1.232   0.100 -0.1093  0.5155 -0.0473
 2453TIP3    H228851   4.186   1.150  -0.027  1.5956  1.4976 -0.7492
 2454TIP3   OH228852   4.025   0.299   1.001  0.2126  0.0841  0.1119
 2454TIP3    H128853   4.086   0.364   0.966  1.4932 -0.7794  0.6588
 2454TIP3    H228854   3.969   0.349   1.060  1.1961  0.7059  0.5601
 2455TIP3   OH228855   4.563   3.039   3.657  0.6716  0.6514 -0.1779
 2455TIP3    H128856   4.584   3.075   3.571  0.5357  2.1761  0.3963
 2455TIP3    H228857   4.609   3.096   3.719 -0.1856  0.3123  0.8062
 2456TIP3   OH228858   6.388   5.550  13.512  0.3925 -0.5312  0.1837
 2456TIP3    H128859   6.473   5.546  13.467  1.0484 -0.4646  1.3856
 2456TIP3    H228860   6.409   5.546  13.605 -0.8095  1.2046  0.5825
 2457TIP3   OH228861   5.911   3.641   1.705  0.3729  0.4200  0.2518
 2457TIP3    H128862   5.951   3.591   1.776  2.4454 -0.8342 -1.6549
 2457TIP3    H228863   5.923   3.732   1.730  1.7998  0.0195  1.1410
 2458TIP3   OH228864   6.250   4.012  13.786  0.5289 -0.7033  0.4828
 2458TIP3    H128865   6.272   3.939  13.729  0.0805  1.0279 -2.1270
 2458TIP3    H228866   6.315   4.079  13.764  0.2095  0.1027  1.9082
 2459TIP3   OH228867   2.875   5.707  11.854 -0.3760 -0.3787  0.1730
 2459TIP3    H128868   2.912   5.730  11.769 -0.4490  0.3198  0.3252
 2459TIP3    H228869   2.780   5.709  11.841 -0.3892 -1.1722  0.0459
 2460TIP3   OH228870   0.933   1.613   1.525  0.0561 -0.3387 -0.1834
 2460TIP3    H128871   0.948   1.599   1.619  0.3807  1.1664  0.0225
 2460TIP3    H228872   1.018   1.640   1.491 -0.0311 -1.0044 -0.9547
 2461TIP3   OH228873   2.596   4.637  13.511 -0.2771  0.4941  0.3317
 2461TIP3    H128874   2.598   4.727  13.542 -0.4922  1.2823 -1.8087
 2461TIP3    H228875   2.510   4.605  13.537 -0.6931  1.3287  0.0108
 2462TIP3   OH228876   3.948   5.695  11.550 -0.3710 -0.3383 -0.7684
 2462TIP3    H128877   3.864   5.666  11.515  0.3329 -1.7803 -1.3092
 2462TIP3    H228878   3.972   5.628  11.614  1.0374 -0.6957 -1.6492
 2463TIP3   OH228879   5.233   4.832   3.419 -0.3394  0.4290 -0.2976
 2463TIP3    H128880   5.244   4.919   3.458 -1.1339  0.0393  0.8233
 2463TIP3    H228881   5.139   4.825   3.401 -0.2894 -0.2329 -0.3205
 2464TIP3   OH228882   1.100   1.766   4.938 -0.0031  0.1548  0.8435
 2464TIP3    H128883   1.155   1.763   5.016  0.5453  1.8501  0.5729
 2464TIP3    H228884   1.070   1.857   4.934  1.5771  0.6445 -1.9782
 2465TIP3   OH228885   4.341   3.460   2.929 -0.1317  0.1466 -0.1158
 2465TIP3    H128886   4.322   3.508   3.009  0.5083  0.0551  0.1015
 2465TIP3    H228887   4.320   3.521   2.858  1.0654  0.9134  0.1631
 2466TIP3   OH228888   0.534   1.906   5.911  0.0203 -0.1153 -0.0253
 2466TIP3    H128889   0.530   1.854   5.991  0.4069  0.2445  0.2359
 2466TIP3    H228890   0.443   1.918   5.884 -0.0385 -2.2642 -0.9796
 2467TIP3   OH228891   6.585   1.929  16.841 -0.0481  0.6680 -0.0948
 2467TIP3    H128892   6.668   1.891  16.814  0.1777  0.5035  0.7823
 2467TIP3    H228893   6.582   2.014  16.797  1.0831  1.1323  0.6808
 2468TIP3   OH228894   0.129   1.794  13.461  0.4023  0.4152 -0.1266
 2468TIP3    H128895   0.186   1.861  13.497 -0.3017  0.7105  0.4755
 2468TIP3    H228896   0.042   1.835  13.458 -0.1433 -0.6233  0.7552
 2469TIP3   OH228897   6.353   3.352   1.858 -0.1706  0.0778  1.0540
 2469TIP3    H128898   6.295   3.373   1.931 -1.8787  2.4002 -0.8039
 2469TIP3    H228899   6.296   3.352   1.781  1.7535 -1.0280 -0.4622
 2470TIP3   OH228900   6.664   5.792  13.514 -0.2187 -0.5230  0.5355
 2470TIP3    H128901   6.651   5.716  13.458 -0.4820  0.0312 -0.1620
 2470TIP3    H228902   6.654   5.867  13.456  1.5055  0.0395  0.9049
 2471TIP3   OH228903   0.217   5.838  13.437  0.0443 -0.3097 -0.2457
 2471TIP3    H128904   0.162   5.877  13.504  0.0240  0.6624 -0.8126
 2471TIP3    H228905   0.296   5.811  13.484 -0.6294 -1.1041  0.4470
 2472TIP3   OH228906   4.321   1.171   0.593 -0.1791 -0.5149  0.0886
 2472TIP3    H128907   4.275   1.093   0.624 -1.1018 -0.1028 -0.2119
 2472TIP3    H228908   4.404   1.170   0.640  0.2712 -2.2383 -0.7037
 2473TIP3   OH228909   5.794   5.819  11.350 -1.1086 -0.2599 -0.3261
 2473TIP3    H128910   5.722   5.883  11.351 -0.0596  0.9770 -0.7451
 2473TIP3    H228911   5.826   5.821  11.260  0.4845  0.4252  0.2198
 2474TIP3   OH228912   5.929   1.297   4.377  0.1893  0.4277 -0.1941
 2474TIP3    H128913   6.019   1.297   4.345  0.6320 -1.5988  0.8834
 2474TIP3    H228914   5.936   1.322   4.469 -0.6594  2.5865 -0.6657
 2475TIP3   OH228915   6.476   4.409  14.880 -0.4308 -0.1167  0.5670
 2475TIP3    H128916   6.448   4.396  14.970 -1.4920 -0.4217  0.2101
 2475TIP3    H228917   6.476   4.504  14.868 -2.1544 -0.1063  0.3521
 2476TIP3   OH228918   4.789   6.170  13.038 -0.0176 -0.3463 -0.2987
 2476TIP3    H128919   4.817   6.182  13.129  1.3073  1.7307 -0.9179
 2476TIP3    H228920   4.802   6.077  13.021  2.6998 -0.2430  0.7216
 2477TIP3   OH228921   0.211   2.497   0.371  0.0126  0.0408  0.0884
 2477TIP3    H128922   0.243   2.543   0.294 -1.5261  1.4957  0.2480
 2477TIP3    H228923   0.222   2.560   0.443  0.1333 -0.7675  0.7967
 2478TIP3   OH228924   5.922   3.976  14.850  0.7070  0.0605 -0.0989
 2478TIP3    H128925   5.922   3.988  14.945  0.4371  0.2218 -0.1181
 2478TIP3    H228926   6.000   3.924  14.832 -1.3393 -3.5393  0.6435
 2479TIP3   OH228927   4.026   5.881   0.583 -1.1208 -0.0693  0.0685
 2479TIP3    H128928   4.120   5.870   0.593 -0.9652  1.4598  0.5977
 2479TIP3    H228929   3.995   5.903   0.671 -2.0506 -0.9440 -0.0166
 2480TIP3   OH228930   5.577   3.529   1.117 -0.1360  0.3106 -0.1317
 2480TIP3    H128931   5.506   3.593   1.125 -1.0530 -0.6041 -0.6086
 2480TIP3    H228932   5.617   3.547   1.032 -0.9311 -0.2449 -0.6419
 2481TIP3   OH228933   2.137   0.590   1.256 -0.3271 -0.3519  0.4493
 2481TIP3    H128934   2.201   0.519   1.263 -0.1969 -0.1290  1.8939
 2481TIP3    H228935   2.171   0.659   1.313 -0.5212  0.8470 -0.8218
 2482TIP3   OH228936   3.282   3.114  15.271  0.7050 -0.4945 -1.0556
 2482TIP3    H128937   3.230   3.130  15.349 -0.0774  0.3028 -1.7158
 2482TIP3    H228938   3.359   3.065  15.302  0.8496  0.5672  0.3262
 2483TIP3   OH228939   1.161   6.112   3.381 -0.1155 -0.2465 -0.1627
 2483TIP3    H128940   1.138   6.205   3.378 -0.3937 -0.2900  0.5204
 2483TIP3    H228941   1.115   6.073   3.307  0.9638  0.3638 -1.1831
 2484TIP3   OH228942   6.646   2.853   5.155  0.4495  0.1768  0.2143
 2484TIP3    H128943   6.612   2.805   5.230 -0.1740  1.2817  0.6483
 2484TIP3    H228944   6.709   2.915   5.192  1.9828 -0.9004 -0.4368
 2485TIP3   OH228945   5.170   3.746  14.941 -0.2006  0.1766 -0.2952
 2485TIP3    H128946   5.163   3.777  15.031  0.8814 -0.1656 -0.0787
 2485TIP3    H228947   5.216   3.816  14.895 -1.4051  0.6859 -0.7815
 2486TIP3   OH228948   2.745   3.024   1.035  0.2609 -0.0909  0.1549
 2486TIP3    H128949   2.817   3.057   1.089  0.0176  0.8973 -0.0962
 2486TIP3    H228950   2.740   3.086   0.962 -1.1184  0.0991  0.3870
 2487TIP3   OH228951   1.442   2.763   6.443 -0.0348 -0.2063  0.2472
 2487TIP3    H128952   1.405   2.675   6.441  0.3668 -0.3585 -0.7121
 2487TIP3    H228953   1.493   2.765   6.525 -0.1015 -0.8402  0.3105
 2488TIP3   OH228954   2.917   5.820  14.609  0.3257  0.3216  0.4071
 2488TIP3    H128955   2.945   5.741  14.655  1.5799  1.0303  0.8815
 2488TIP3    H228956   2.828   5.799  14.579 -0.0600 -0.6046  2.0675
 2489TIP3   OH228957   0.967   5.521   4.674 -0.2861  0.2258  0.2334
 2489TIP3    H128958   0.996   5.472   4.751 -1.4976 -0.0826  0.5148
 2489TIP3    H228959   1.045   5.566   4.643  0.4381 -0.4407  1.0580
 2490TIP3   OH228960   0.081   3.995   5.186  0.0893 -0.2203  0.0040
 2490TIP3    H128961   0.045   4.084   5.186  2.4875  0.8417  1.3370
 2490TIP3    H228962   0.080   3.969   5.278  1.3472 -0.6953 -0.0958
 2491TIP3   OH228963   6.171   6.027   4.493 -0.3333  0.1068  0.3791
 2491TIP3    H128964   6.226   5.949   4.487  0.8668  0.8821  1.0292
 2491TIP3    H228965   6.121   6.027   4.411  0.9139 -0.4105 -0.4093
 2492TIP3   OH228966   2.041   0.035   0.936  0.2326 -0.4383 -0.1970
 2492TIP3    H128967   1.947   0.051   0.929  0.5362  1.0341 -1.7321
 2492TIP3    H228968   2.066  -0.001   0.851  1.4652  1.8444 -0.8927
 2493TIP3   OH228969   1.440   6.599  14.162 -0.6648  0.3441  0.0294
 2493TIP3    H128970   1.511   6.537  14.147 -0.5336  0.4694  0.1213
 2493TIP3    H228971   1.393   6.603  14.079  0.3442  1.4053 -0.5338
 2494TIP3   OH228972   0.403   3.318  16.989  0.6655 -0.5628 -0.3522
 2494TIP3    H128973   0.472   3.252  16.999 -0.2602 -1.6088 -0.7379
 2494TIP3    H228974   0.329   3.284  17.039  0.4916  0.6740  0.2700
 2495TIP3   OH228975   5.801   5.926   4.954 -0.6954 -0.5441 -0.1188
 2495TIP3    H128976   5.787   5.843   5.001 -1.5953 -0.8559 -0.9153
 2495TIP3    H228977   5.760   5.992   5.010 -0.2826 -0.6687  0.3484
 2496TIP3   OH228978   2.680   2.767   5.091 -0.2388 -0.0707  0.5424
 2496TIP3    H128979   2.638   2.712   5.026  1.6573 -1.3063  0.2788
 2496TIP3    H228980   2.766   2.785   5.055 -0.1889  1.6454  1.4270
 2497TIP3   OH228981   3.490   1.701  13.478  0.0483 -0.7832  0.0891
 2497TIP3    H128982   3.417   1.697  13.415 -0.0090 -0.0272  0.0987
 2497TIP3    H228983   3.536   1.618  13.466  0.5262 -0.3298 -1.5595
 2498TIP3   OH228984   2.353   5.311  11.776  0.0020 -0.2196  0.0459
 2498TIP3    H128985   2.367   5.286  11.685  0.6727  2.1609 -0.5743
 2498TIP3    H228986   2.258   5.312  11.787 -0.0773 -0.6530 -0.5743
 2499TIP3   OH228987   3.946   5.460   2.544 -0.3031  0.3222  0.2417
 2499TIP3    H128988   4.002   5.414   2.606 -0.5499  0.2874  0.4367
 2499TIP3    H228989   3.955   5.410   2.462  0.1766  0.4847  0.1898
 2500TIP3   OH228990   5.936   2.761  14.673  0.5228 -0.0423  0.1496
 2500TIP3    H128991   5.964   2.781  14.584  0.4182  0.4977  0.2325
 2500TIP3    H228992   5.840   2.763  14.669  0.5183  0.7373  0.4305
 2501TIP3   OH228993   4.196   5.130  11.562 -0.4287  0.1709 -0.1813
 2501TIP3    H128994   4.184   5.109  11.655 -0.6871 -0.0152 -0.2544
 2501TIP3    H228995   4.275   5.184  11.559  1.8180 -2.8668 -0.2631
 2502TIP3   OH228996   5.090   0.580  16.767 -0.0025 -0.1651  0.2108
 2502TIP3    H128997   5.158   0.553  16.706  0.8242 -3.9252  2.5007
 2502TIP3    H228998   5.136   0.636  16.830 -0.2626  1.4818 -1.0048
 2503TIP3   OH228999   2.026   0.315   4.067 -0.0382 -0.1124  0.3249
 2503TIP3    H129000   2.003   0.353   3.982 -0.2807 -1.0992 -0.0686
 2503TIP3    H229001   2.035   0.390   4.125  2.0786  0.7481 -0.9965
 2504TIP3   OH229002   6.142   3.216  12.319 -0.1654  0.6879  0.0553
 2504TIP3    H129003   6.114   3.163  12.244 -0.8354 -0.3598  1.0087
 2504TIP3    H229004   6.187   3.154  12.377 -1.7154  0.9268  1.5973
 2505TIP3   OH229005   4.884   3.860  12.888 -0.7206  0.0334 -0.3515
 2505TIP3    H129006   4.801   3.880  12.844 -0.4008  1.2972 -0.4276
 2505TIP3    H229007   4.950   3.906  12.836  0.0929 -1.3234 -0.5435
 2506TIP3   OH229008   1.897   0.948   3.074 -0.0180 -0.0109 -0.0893
 2506TIP3    H129009   1.921   0.956   3.167 -0.2861 -1.3422  0.1086
 2506TIP3    H229010   1.828   1.013   3.062 -1.3269 -1.0903  1.1363
 2507TIP3   OH229011   5.724   4.162  11.381  0.1859 -0.0690  0.0210
 2507TIP3    H129012   5.765   4.149  11.466  1.2492  0.1954 -0.4286
 2507TIP3    H229013   5.657   4.229  11.396  1.8924  1.6791  0.2346
 2508TIP3   OH229014   2.427   2.892   5.057  0.3727  0.7122 -0.0388
 2508TIP3    H129015   2.374   2.812   5.057 -0.0690  0.9966  0.4608
 2508TIP3    H229016   2.517   2.860   5.065  0.4115  0.1702 -2.1013
 2509TIP3   OH229017   5.170   4.324   3.792 -0.0868 -0.1378  0.1629
 2509TIP3    H129018   5.215   4.277   3.862  1.5633  1.8452  0.4985
 2509TIP3    H229019   5.092   4.361   3.834  1.4857  2.0398  1.3681
 2510TIP3   OH229020   2.442   0.877  15.383  0.7957 -0.0395  0.0069
 2510TIP3    H129021   2.353   0.911  15.394  0.5690 -0.4681 -0.5263
 2510TIP3    H229022   2.434   0.807  15.319  1.1115 -1.7236  1.7272
 2511TIP3   OH229023   1.444   1.707   4.726  0.1518  0.4085  0.4230
 2511TIP3    H129024   1.492   1.749   4.655  0.3574 -2.2739 -1.1654
 2511TIP3    H229025   1.508   1.700   4.797  0.1286  2.5566  0.7188
 2512TIP3   OH229026   4.517   5.648  11.949  0.0496  0.2153 -0.7168
 2512TIP3    H129027   4.504   5.595  12.027 -1.8688 -0.8356 -1.6661
 2512TIP3    H229028   4.593   5.610  11.906 -0.9199 -1.4498 -1.0594
 2513TIP3   OH229029   6.589   5.510  14.381  0.1584  0.1032  0.2171
 2513TIP3    H129030   6.653   5.459  14.331 -0.2530  1.5486 -1.9549
 2513TIP3    H229031   6.512   5.514  14.324 -0.9966  0.4000  1.7471
 2514TIP3   OH229032   0.673   5.876   3.520 -0.2147 -0.1773 -0.0752
 2514TIP3    H129033   0.591   5.836   3.548 -0.0476 -0.8933 -0.5864
 2514TIP3    H229034   0.661   5.892   3.426 -0.8726  2.4362  0.3632
 2515TIP3   OH229035   6.259   4.348   4.634 -0.4322  0.3423 -0.1696
 2515TIP3    H129036   6.214   4.409   4.576 -1.3968 -0.0214  0.1850
 2515TIP3    H229037   6.191   4.315   4.693  0.6144  1.2170  1.6430
 2516TIP3   OH229038   3.746   1.080   1.601  0.0833  0.0751 -0.2556
 2516TIP3    H129039   3.735   1.161   1.651  1.6146  0.0988  0.1036
 2516TIP3    H229040   3.666   1.073   1.548 -0.1500  1.7361 -0.1771
 2517TIP3   OH229041   4.959   1.609   2.947  0.2418 -0.3473 -0.5975
 2517TIP3    H129042   4.960   1.701   2.919 -0.4254 -0.7022 -1.8438
 2517TIP3    H229043   4.949   1.559   2.866 -2.4813 -1.4021  0.2792
 2518TIP3   OH229044   3.509   0.406   1.984  0.1640 -0.1746  0.2464
 2518TIP3    H129045   3.444   0.352   1.939 -0.5584  1.0276 -0.1679
 2518TIP3    H229046   3.591   0.389   1.936 -0.2510 -0.1974 -0.4654
 2519TIP3   OH229047   0.823   4.273  12.308 -0.2972  0.0296  0.2709
 2519TIP3    H129048   0.766   4.197  12.303  0.5681 -0.6767  0.7516
 2519TIP3    H229049   0.856   4.284  12.218  1.0728 -1.3937  0.5436
 2520TIP3   OH229050   6.541   4.470  12.675 -0.5381  0.1297  0.6257
 2520TIP3    H129051   6.549   4.550  12.622 -0.5432  1.1862  2.1418
 2520TIP3    H229052   6.630   4.451  12.704 -0.3438 -1.1805 -0.7581
 2521TIP3   OH229053   2.981   5.368   4.955  0.5626 -0.0834  0.0200
 2521TIP3    H129054   2.906   5.413   4.915  1.2305  0.7806 -0.2959
 2521TIP3    H229055   3.014   5.429   5.020 -0.1585 -1.2529  1.5337
 2522TIP3   OH229056   1.849   6.475  11.696 -0.1038  0.3526 -0.2924
 2522TIP3    H129057   1.812   6.453  11.782  0.4746 -1.1298 -0.3916
 2522TIP3    H229058   1.870   6.568  11.701 -1.9043  0.7677  0.4774
 2523TIP3   OH229059   6.774   1.078  13.513  0.1484  0.7746  0.2366
 2523TIP3    H129060   6.832   1.136  13.562  0.4870 -1.2346  2.3779
 2523TIP3    H229061   6.704   1.056  13.574 -0.0143 -0.9712 -0.5135
 2524TIP3   OH229062   5.958   5.609   0.704 -0.5505 -0.2622 -0.1749
 2524TIP3    H129063   5.950   5.619   0.799  0.5252  1.3912 -0.2062
 2524TIP3    H229064   6.037   5.556   0.693  0.5000  1.2536 -0.1465
 2525TIP3   OH229065   4.699   0.953  11.116 -0.0335 -0.0504  0.0259
 2525TIP3    H129066   4.633   0.899  11.072  1.7823 -0.8183 -1.9121
 2525TIP3    H229067   4.739   1.003  11.045  1.7361  0.1104  1.0973
 2526TIP3   OH229068   2.602   4.069  16.639  0.1440  0.1918  0.0943
 2526TIP3    H129069   2.681   4.122  16.657  2.0635 -2.4527  0.0582
 2526TIP3    H229070   2.589   4.018  16.720 -0.5240 -0.6048 -0.4991
 2527TIP3   OH229071   2.306   3.878   4.512  0.7443 -0.0534 -0.0698
 2527TIP3    H129072   2.380   3.820   4.494  0.4260 -0.5657  0.2367
 2527TIP3    H229073   2.242   3.822   4.557  0.6498  0.6648  0.7145
 2528TIP3   OH229074   6.015   1.557   4.863  0.3277  0.1360 -0.1355
 2528TIP3    H129075   6.072   1.630   4.837  0.8441 -0.3550 -0.4135
 2528TIP3    H229076   6.054   1.480   4.821  0.4897 -0.4954  1.1022
 2529TIP3   OH229077   4.062   2.793  15.502  0.2856  0.2411  0.3616
 2529TIP3    H129078   4.138   2.737  15.520  0.3807 -0.2164 -1.3663
 2529TIP3    H229079   4.100   2.878  15.479  0.1529  0.9397  2.4951
 2530TIP3   OH229080   5.659   3.406   3.707  0.0675  0.2353 -0.3578
 2530TIP3    H129081   5.613   3.486   3.683  0.5598  0.5551 -0.2500
 2530TIP3    H229082   5.712   3.385   3.630  0.0053  0.0635 -0.3532
 2531TIP3   OH229083   4.923   4.764  13.991  0.3245 -0.0998  0.0174
 2531TIP3    H129084   4.869   4.745  14.068 -1.2117 -0.9195 -1.2139
 2531TIP3    H229085   4.866   4.748  13.916  1.7570  0.7283 -1.3249
 2532TIP3   OH229086   1.322   4.638   0.055 -0.1594  0.0377  0.0605
 2532TIP3    H129087   1.291   4.589  -0.021 -0.0127  1.2341 -0.7961
 2532TIP3    H229088   1.417   4.644   0.043 -0.2166  0.8680 -0.0759
 2533TIP3   OH229089   6.293   5.437  11.010 -0.2426 -0.5593 -0.2867
 2533TIP3    H129090   6.388   5.423  11.019 -0.2429 -1.5003 -1.4584
 2533TIP3    H229091   6.278   5.436  10.916 -1.5377 -1.2460 -0.0950
 2534TIP3   OH229092   4.212   3.538   5.904 -0.1011  0.1718 -0.0751
 2534TIP3    H129093   4.270   3.546   5.828 -1.0038  0.8125 -0.7321
 2534TIP3    H229094   4.228   3.450   5.937  0.8440  0.1430 -0.5674
 2535TIP3   OH229095   3.963   3.909   3.547  0.5088 -0.2531  0.3818
 2535TIP3    H129096   3.993   3.863   3.469 -0.9662 -0.2781 -0.1960
 2535TIP3    H229097   3.945   3.998   3.518  1.7843  0.2737  1.1355
 2536TIP3   OH229098   6.335   6.333  15.996 -0.0539  0.1234 -0.3203
 2536TIP3    H129099   6.404   6.291  16.047  0.2982  2.8452  1.7202
 2536TIP3    H229100   6.254   6.315  16.045  0.0734  1.4977  0.4580
 2537TIP3   OH229101   1.939   5.299  14.303  0.0842 -0.2892 -0.1641
 2537TIP3    H129102   1.876   5.230  14.280 -0.5251  0.4574 -0.8097
 2537TIP3    H229103   1.885   5.377  14.315  0.7406  0.0316  0.7911
 2538TIP3   OH229104   1.422   3.603   4.113 -0.6167  0.8676 -0.3338
 2538TIP3    H129105   1.504   3.587   4.160  0.6334  0.8684 -2.3725
 2538TIP3    H229106   1.441   3.680   4.059 -1.7385  0.4683 -1.3376
 2539TIP3   OH229107   0.665   1.966   1.345  0.3450  0.2393  0.6894
 2539TIP3    H129108   0.648   2.042   1.402  0.5381 -0.1377  1.2612
 2539TIP3    H229109   0.697   2.004   1.263 -3.7193  1.0959 -0.7717
 2540TIP3   OH229110   5.614   2.985   3.685  0.1160  0.2644  0.6563
 2540TIP3    H129111   5.602   3.050   3.754 -2.3260  0.1991  0.3745
 2540TIP3    H229112   5.587   2.902   3.725 -1.8405  0.3047 -0.4437
 2541TIP3   OH229113   3.722   3.923   0.367 -0.2225  0.3184  0.1266
 2541TIP3    H129114   3.803   3.876   0.349 -1.1510 -1.7228  0.9633
 2541TIP3    H229115   3.709   3.914   0.461 -1.7159  0.0590 -0.0717
 2542TIP3   OH229116   2.239   1.184  10.779  0.3919 -0.0579 -0.0730
 2542TIP3    H129117   2.189   1.124  10.834 -0.7270  0.3825 -0.5836
 2542TIP3    H229118   2.321   1.138  10.760  0.0765 -0.8945  0.5520
 2543TIP3   OH229119   5.617   4.255   2.472  0.0671  0.6020 -0.6486
 2543TIP3    H129120   5.650   4.173   2.508  1.1743  0.7345 -1.2865
 2543TIP3    H229121   5.554   4.286   2.536  1.1643  0.2875  0.6357
 2544TIP3   OH229122   5.031   4.400   5.405 -0.1609 -0.3288  0.2342
 2544TIP3    H129123   5.012   4.306   5.409  1.3405 -0.6214  1.2179
 2544TIP3    H229124   4.964   4.440   5.460 -0.2308 -0.9374  0.6047
 2545TIP3   OH229125   4.241   3.315   0.898 -0.0881  0.2133  0.2596
 2545TIP3    H129126   4.266   3.355   0.815 -0.7307 -0.8203 -0.4509
 2545TIP3    H229127   4.147   3.333   0.906  0.3029  1.9200  1.6967
 2546TIP3   OH229128   6.553   6.273   0.775  0.2212 -0.7383 -0.5823
 2546TIP3    H129129   6.498   6.338   0.817 -0.9275 -1.6989 -0.5571
 2546TIP3    H229130   6.635   6.276   0.824 -0.3015 -0.2777  0.2890
 2547TIP3   OH229131   3.328   5.878  16.717 -0.0689  0.0077 -0.0781
 2547TIP3    H129132   3.402   5.818  16.715 -1.6732 -2.2415  1.5151
 2547TIP3    H229133   3.303   5.891  16.626  2.3899  1.0942 -0.6652
 2548TIP3   OH229134   2.408   2.173  16.244 -0.3861  0.1176  0.0553
 2548TIP3    H129135   2.360   2.135  16.170  0.1294 -0.0994 -0.1743
 2548TIP3    H229136   2.468   2.236  16.203 -1.0137  0.9646  0.4072
 2549TIP3   OH229137   4.733   1.976   4.235 -0.1200 -0.0683  0.6116
 2549TIP3    H129138   4.807   2.004   4.182  0.1294 -0.5941  0.6738
 2549TIP3    H229139   4.663   1.960   4.172 -0.4626  1.2661  0.6259
 2550TIP3   OH229140   0.820   5.541   3.972  0.2909 -0.4468  0.2515
 2550TIP3    H129141   0.796   5.616   4.026  1.1207 -0.8546  1.2175
 2550TIP3    H229142   0.839   5.579   3.886 -0.4421  0.2900  0.4030
 2551TIP3   OH229143   3.429   0.678  15.880  0.5073 -0.3137 -0.0459
 2551TIP3    H129144   3.479   0.759  15.879  0.0076 -0.0026 -0.0061
 2551TIP3    H229145   3.487   0.614  15.837  0.1095  0.5442 -1.9549
 2552TIP3   OH229146   2.395   5.930  16.114 -0.2913  0.4786  0.3536
 2552TIP3    H129147   2.302   5.905  16.110 -0.2312  0.1005  1.1359
 2552TIP3    H229148   2.401   5.987  16.190  0.3629 -0.6322  1.1603
 2553TIP3   OH229149   2.343   0.101  15.538  0.0132 -0.0478  0.3806
 2553TIP3    H129150   2.265   0.046  15.543 -1.1616  1.4477 -0.6566
 2553TIP3    H229151   2.339   0.155  15.617  0.1452 -0.1472  0.4565
 2554TIP3   OH229152   2.163   1.216  11.732  0.1130  0.0165 -0.8487
 2554TIP3    H129153   2.138   1.124  11.737 -0.1174  0.0394 -1.5872
 2554TIP3    H229154   2.253   1.218  11.765  0.2315 -0.5190 -1.1287
 2555TIP3   OH229155   4.762   3.658  13.138  0.1296  0.3744  0.3410
 2555TIP3    H129156   4.684   3.642  13.192  0.7205 -1.9891  0.6105
 2555TIP3    H229157   4.770   3.579  13.084  0.6987  1.8232 -1.8353
 2556TIP3   OH229158   1.401   5.221  14.639  0.0623 -0.6233 -0.4224
 2556TIP3    H129159   1.490   5.185  14.644 -0.9129 -3.1177  0.8750
 2556TIP3    H229160   1.353   5.157  14.586 -0.9398  0.8236 -1.3224
 2557TIP3   OH229161   4.165   1.408   4.347 -0.5422 -0.4204  0.0637
 2557TIP3    H129162   4.179   1.502   4.352  1.4688 -0.7147  0.9168
 2557TIP3    H229163   4.249   1.370   4.371 -0.7895 -2.4478 -2.0017
 2558TIP3   OH229164   0.814   3.654   5.074 -0.0398  0.0382  0.1005
 2558TIP3    H129165   0.750   3.654   5.003  0.0740 -0.4513 -0.0066
 2558TIP3    H229166   0.783   3.721   5.135  0.0275  0.6805 -0.5538
 2559TIP3   OH229167   4.481   2.589   4.084  0.3175 -0.7417  0.6733
 2559TIP3    H129168   4.463   2.605   4.176 -2.2421  0.9176 -0.0042
 2559TIP3    H229169   4.420   2.519   4.060  1.2344 -1.4280  0.3027
 2560TIP3   OH229170   2.652   4.826   2.432 -0.4474 -0.4820  0.2579
 2560TIP3    H129171   2.650   4.897   2.495 -4.0767 -0.8332  0.7132
 2560TIP3    H229172   2.666   4.868   2.348  0.2603  0.4259  0.8170
 2561TIP3   OH229173   2.715   3.789  11.077 -0.0258  0.8769  0.7711
 2561TIP3    H129174   2.788   3.731  11.058  0.5647  1.0207  2.4593
 2561TIP3    H229175   2.734   3.868  11.027  0.4976  0.5638  0.4702
 2562TIP3   OH229176   3.972   3.871  15.129 -0.3701  0.1910  0.1439
 2562TIP3    H129177   3.979   3.960  15.165 -2.2148 -0.0796  1.3309
 2562TIP3    H229178   3.952   3.816  15.205 -1.3106 -0.9185 -0.8701
 2563TIP3   OH229179   1.411   2.539   5.754 -0.0568  0.5437 -0.5389
 2563TIP3    H129180   1.398   2.445   5.765 -0.7861  0.4921 -1.6825
 2563TIP3    H229181   1.487   2.547   5.697  0.5548  0.6823  0.2774
 2564TIP3   OH229182   5.305   5.724  13.815  0.0991 -0.1420 -0.1021
 2564TIP3    H129183   5.259   5.790  13.865  1.7429  1.9534 -1.1855
 2564TIP3    H229184   5.353   5.672  13.880  0.5635  1.1999  0.6499
 2565TIP3   OH229185   1.856   1.397   2.589 -0.0011 -0.5977  0.0073
 2565TIP3    H129186   1.929   1.446   2.629  0.1321 -0.3782 -0.5048
 2565TIP3    H229187   1.851   1.317   2.642 -0.1682 -0.0796  0.7999
 2566TIP3   OH229188   3.249   6.499   4.141 -0.2699 -0.1399 -0.2292
 2566TIP3    H129189   3.343   6.479   4.143 -0.0959  0.6744  0.0110
 2566TIP3    H229190   3.239   6.574   4.200 -0.4241  2.4082 -3.2593
 2567TIP3   OH229191   1.285   3.099   1.405 -0.0201  0.1594 -0.5658
 2567TIP3    H129192   1.287   3.185   1.446  0.9202 -0.2618  0.3339
 2567TIP3    H229193   1.312   3.038   1.474  0.5387 -0.7090 -1.5026
 2568TIP3   OH229194   1.247   5.279  11.215  0.8309 -0.3798 -0.1019
 2568TIP3    H129195   1.255   5.201  11.269 -0.5967  0.1862  0.9938
 2568TIP3    H229196   1.201   5.249  11.136 -1.0903 -0.3938  0.9783
 2569TIP3   OH229197   2.053   0.019  14.088 -0.0907  0.4504 -0.0876
 2569TIP3    H129198   2.094   0.058  14.165  0.6946 -0.9562  0.2442
 2569TIP3    H229199   2.094  -0.067  14.080 -0.5654  0.3406 -1.7504
 2570TIP3   OH229200   5.303   0.426  11.035 -0.0217  0.9859  0.1563
 2570TIP3    H129201   5.248   0.481  11.092  0.5200  0.1269  1.5555
 2570TIP3    H229202   5.356   0.374  11.096 -0.2902 -0.8572 -1.1142
 2571TIP3   OH229203   2.290   1.334  14.899 -1.3198  0.3401 -0.4722
 2571TIP3    H129204   2.254   1.335  14.988  0.8912  2.0803  0.4913
 2571TIP3    H229205   2.235   1.397  14.851 -1.1650  1.0578  0.2766
 2572TIP3   OH229206   1.490   0.881   5.961 -0.6102  0.4391  0.3365
 2572TIP3    H129207   1.570   0.874   6.012 -0.3142  0.1486 -0.1562
 2572TIP3    H229208   1.426   0.921   6.020  0.4911  2.6966  0.1123
 2573TIP3   OH229209   5.686   0.580  16.593  0.0962 -0.2553 -0.3309
 2573TIP3    H129210   5.703   0.541  16.507 -0.2969 -0.4321 -0.3366
 2573TIP3    H229211   5.712   0.512  16.656  0.8859  0.0792 -0.2944
 2574TIP3   OH229212   1.325   5.337  12.892 -0.4380  0.1869 -0.6402
 2574TIP3    H129213   1.353   5.259  12.938  0.9366  1.0910  0.1172
 2574TIP3    H229214   1.404   5.370  12.849 -0.8653  1.4570 -0.4942
 2575TIP3   OH229215   3.559   1.391   0.118  0.0432 -0.1181  0.1784
 2575TIP3    H129216   3.466   1.408   0.135 -0.1998  0.6164 -1.6759
 2575TIP3    H229217   3.605   1.434   0.190 -1.0214  0.1339  0.7263
 2576TIP3   OH229218   3.032   3.868   2.082  0.8613 -0.4557 -0.0797
 2576TIP3    H129219   3.122   3.839   2.069  1.6849  1.9750 -0.4636
 2576TIP3    H229220   2.978   3.794   2.055  2.6841 -2.8070  2.1897
 2577TIP3   OH229221   1.506   5.121   0.166  0.1639  0.8252  0.2624
 2577TIP3    H129222   1.496   5.204   0.213 -1.4134  0.6124  0.3444
 2577TIP3    H229223   1.515   5.055   0.235 -0.5779  0.7025  0.2506
 2578TIP3   OH229224   1.236   4.351   5.635  0.1427  0.7757  0.2475
 2578TIP3    H129225   1.249   4.257   5.621  2.4270  0.9994  0.4380
 2578TIP3    H229226   1.236   4.388   5.547 -1.9528  0.5300  0.0925
 2579TIP3   OH229227   3.452   3.300   0.550  0.0677 -0.2432 -0.0886
 2579TIP3    H129228   3.407   3.277   0.632  1.1810 -0.5859  0.4535
 2579TIP3    H229229   3.403   3.254   0.482 -0.7841 -0.0765  0.3906
 2580TIP3   OH229230   5.027   3.143   0.026 -0.0371  0.3666 -0.2437
 2580TIP3    H129231   5.035   3.105   0.113  2.4779  0.9083 -0.1726
 2580TIP3    H229232   5.017   3.068  -0.032  0.8580 -0.1609  0.2672
 2581TIP3   OH229233   0.906   5.018   6.687 -0.3315 -0.1194  0.3815
 2581TIP3    H129234   0.882   5.044   6.598 -0.4111  0.0169  0.4421
 2581TIP3    H229235   0.823   5.005   6.732 -0.2947  0.4584  0.6234
 2582TIP3   OH229236   0.686   1.884   1.683 -0.3773  0.2220 -0.2906
 2582TIP3    H129237   0.632   1.864   1.759 -0.6794  0.8816 -0.3267
 2582TIP3    H229238   0.664   1.974   1.660 -0.0276  0.1520 -0.9428
 2583TIP3   OH229239   2.480   4.199   0.048 -0.1002 -0.4608  0.2852
 2583TIP3    H129240   2.396   4.243   0.059  0.0139  0.0654 -0.8171
 2583TIP3    H229241   2.519   4.240  -0.029  1.1424 -0.7420  0.7351
 2584TIP3   OH229242   1.352   1.930   4.192  0.1060 -0.0116 -0.3372
 2584TIP3    H129243   1.406   2.008   4.196  1.5861 -1.0191  3.6907
 2584TIP3    H229244   1.413   1.857   4.203 -1.6471 -1.4531  0.3770
 2585TIP3   OH229245   2.906   0.500  13.945 -1.0062 -0.4143  0.0032
 2585TIP3    H129246   2.983   0.456  13.979 -1.4271 -0.8756  0.3659
 2585TIP3    H229247   2.909   0.485  13.851 -0.3830  0.0046 -0.0479
 2586TIP3   OH229248   5.670   5.043   2.070  0.3118 -0.2327  0.0798
 2586TIP3    H129249   5.764   5.045   2.088  0.7797  3.8618 -1.6592
 2586TIP3    H229250   5.663   5.026   1.976 -0.5920  0.3961  0.0130
 2587TIP3   OH229251   4.417   3.711   3.312 -0.2068 -0.1112  0.0212
 2587TIP3    H129252   4.498   3.687   3.267 -0.6860  1.1330 -1.5717
 2587TIP3    H229253   4.347   3.670   3.260 -0.6755 -0.4761  0.9031
 2588TIP3   OH229254   3.427   3.133   1.050  0.0555  0.4376 -0.1031
 2588TIP3    H129255   3.444   3.199   1.117  1.5945  0.2772 -0.2869
 2588TIP3    H229256   3.350   3.165   1.003 -0.0311  1.4050  0.6742
 2589TIP3   OH229257   5.086   6.784   2.512 -0.1331 -0.4963  0.3571
 2589TIP3    H129258   5.103   6.803   2.420  2.3156 -0.0910  0.8271
 2589TIP3    H229259   4.995   6.811   2.526  0.1337  1.5819 -1.4015
 2590TIP3   OH229260   1.340   4.748  10.795 -0.2958  0.3405  0.3328
 2590TIP3    H129261   1.413   4.801  10.762 -0.1277  0.0514  0.2351
 2590TIP3    H229262   1.371   4.716  10.880 -0.4870  0.5829  0.4953
 2591TIP3   OH229263   3.024   3.675  12.236 -0.3251  1.3653 -0.3702
 2591TIP3    H129264   3.072   3.673  12.153 -3.1953 -0.4107 -2.1585
 2591TIP3    H229265   3.032   3.585  12.270 -2.6808  0.8669 -0.9852
 2592TIP3   OH229266   5.128   5.044   5.377  0.0927 -0.3771 -0.1848
 2592TIP3    H129267   5.041   5.025   5.414 -0.7458  2.2443 -0.5735
 2592TIP3    H229268   5.188   5.029   5.450 -1.1297  1.2792  1.2505
 2593TIP3   OH229269   2.354   5.546  11.064  0.2895  0.2528 -0.4460
 2593TIP3    H129270   2.434   5.593  11.087 -0.5385  3.1260 -2.7277
 2593TIP3    H229271   2.373   5.504  10.980  0.7853 -3.1936  1.2297
 2594TIP3   OH229272   0.867   0.571  13.822  0.1355 -0.1890  0.0313
 2594TIP3    H129273   0.850   0.642  13.760 -0.1897  0.8264  1.2457
 2594TIP3    H229274   0.944   0.599  13.871 -0.9892  0.1929  1.6853
 2595TIP3   OH229275   5.446   6.627   5.015  0.6332  1.1251  0.0039
 2595TIP3    H129276   5.507   6.566   5.056  0.0193  0.5178  0.0317
 2595TIP3    H229277   5.371   6.629   5.075  0.0851  0.8791 -0.6642
 2596TIP3   OH229278   0.451   3.360   0.505 -0.3385 -0.7808  0.3523
 2596TIP3    H129279   0.535   3.323   0.533 -0.0189 -0.5724 -0.3062
 2596TIP3    H229280   0.473   3.419   0.433 -1.1025 -1.0925 -0.1563
 2597TIP3   OH229281   2.763   0.056  14.362 -0.5581 -0.0157  0.2965
 2597TIP3    H129282   2.857   0.075  14.365 -0.7065  0.6233  1.5320
 2597TIP3    H229283   2.734   0.063  14.453 -1.6159 -1.2365  0.0783
 2598TIP3   OH229284   4.617   1.394   2.821 -0.1683  0.3731 -1.1277
 2598TIP3    H129285   4.611   1.444   2.903 -0.0918  0.0241 -0.9102
 2598TIP3    H229286   4.596   1.304   2.846  1.1967 -0.0018 -1.2301
 2599TIP3   OH229287   1.988   3.536   3.388 -0.0826 -0.6658 -0.4151
 2599TIP3    H129288   1.903   3.527   3.346  0.3608 -0.6939 -1.3230
 2599TIP3    H229289   1.967   3.558   3.479 -1.0575 -1.0744 -0.5250
 2600TIP3   OH229290   6.664   3.355  11.076 -0.1066  0.0289  0.3375
 2600TIP3    H129291   6.752   3.389  11.060 -0.9380  2.5842  0.7632
 2600TIP3    H229292   6.672   3.303  11.156  1.4749 -2.0490 -1.0610
 2601TIP3   OH229293   4.325   1.403  10.917  0.7778  0.0393  0.3673
 2601TIP3    H129294   4.304   1.325  10.969  1.7987 -0.7652 -0.3801
 2601TIP3    H229295   4.388   1.371  10.852 -0.6232  0.9611 -1.5059
 2602TIP3   OH229296   4.399   1.361   2.401  0.8871 -0.3073 -0.7234
 2602TIP3    H129297   4.482   1.397   2.433 -0.4120  2.0948  0.1910
 2602TIP3    H229298   4.339   1.368   2.475 -0.3497 -1.3216 -1.5778
 2603TIP3   OH229299   2.961   6.383  14.091 -0.5101 -0.0734 -0.2873
 2603TIP3    H129300   2.889   6.445  14.106 -0.5778 -0.3783  0.6857
 2603TIP3    H229301   2.963   6.372  13.996 -1.2633  0.5161 -0.3835
 2604TIP3   OH229302   3.506   5.964  16.327 -0.1649 -0.3233 -0.1526
 2604TIP3    H129303   3.437   6.023  16.295  0.2358  0.4410  0.3707
 2604TIP3    H229304   3.587   6.014  16.317  0.2114 -0.8699  0.0982
 2605TIP3   OH229305   3.439   6.513  15.068  0.0131 -0.3357 -0.5763
 2605TIP3    H129306   3.476   6.577  15.129 -0.3304  0.3580 -1.0785
 2605TIP3    H229307   3.403   6.566  14.997  3.1038 -1.1638 -2.9653
 2606TIP3   OH229308   6.162   3.912   3.107 -0.2772  0.4056  0.0509
 2606TIP3    H129309   6.147   3.824   3.141  0.4352 -0.1240 -0.9329
 2606TIP3    H229310   6.255   3.928   3.123 -0.6345  1.4682  1.2677
 2607TIP3   OH229311   5.836   4.401   0.484  0.3052  0.1632  0.3582
 2607TIP3    H129312   5.913   4.403   0.428  0.1697  0.6210  0.1900
 2607TIP3    H229313   5.864   4.444   0.565  0.7584 -1.2279  0.9888
 2608TIP3   OH229314   4.478   2.999   4.693 -0.1407  0.5348  0.1752
 2608TIP3    H129315   4.550   3.027   4.637  0.4069  0.9847  1.0682
 2608TIP3    H229316   4.400   3.037   4.653 -0.0291 -0.7250 -1.3170
 2609TIP3   OH229317   4.109   6.844   4.436  0.0317  0.2489 -0.2233
 2609TIP3    H129318   4.054   6.794   4.375  0.0818  1.3679 -1.2431
 2609TIP3    H229319   4.168   6.779   4.474 -0.8628 -0.6942 -0.3977
 2610TIP3   OH229320   4.231   1.000   3.093  0.3596 -0.2682 -0.4863
 2610TIP3    H129321   4.189   1.006   3.179 -0.8035  0.6785 -1.0854
 2610TIP3    H229322   4.255   0.908   3.084 -0.5261 -0.5972  0.3810
 2611TIP3   OH229323   4.019   6.505   4.618  0.5880  0.2594  0.1145
 2611TIP3    H129324   4.096   6.542   4.576  0.0536  3.3074  1.4736
 2611TIP3    H229325   4.053   6.442   4.681  1.8341  0.3238 -0.4763
 2612TIP3   OH229326   2.215   1.107  16.136  0.1221 -0.5737 -0.4491
 2612TIP3    H129327   2.232   1.200  16.120  1.1234 -0.0953  2.7677
 2612TIP3    H229328   2.262   1.087  16.217 -0.5862 -3.7486 -0.6818
 2613TIP3   OH229329   0.150   6.092   3.860  0.2033  0.3184  0.0716
 2613TIP3    H129330   0.231   6.061   3.900  0.3348 -0.8997 -1.0619
 2613TIP3    H229331   0.178   6.160   3.798  0.5451 -0.9815 -1.2505
 2614TIP3   OH229332   0.412   1.148  13.649 -0.3725  0.2764  0.5897
 2614TIP3    H129333   0.455   1.105  13.576 -0.7923 -1.3653  1.2716
 2614TIP3    H229334   0.372   1.226  13.611 -0.6692 -0.5998 -0.9631
 2615TIP3   OH229335   5.989   2.350  13.339 -0.4001  0.1402  0.2239
 2615TIP3    H129336   5.999   2.274  13.282 -1.5513  0.5181 -0.5112
 2615TIP3    H229337   5.926   2.321  13.406 -1.7345  0.7745 -0.7151
 2616TIP3   OH229338   0.839   6.628   3.889 -0.0041 -0.3287  0.2806
 2616TIP3    H129339   0.929   6.606   3.912  0.2451  0.0390 -0.3110
 2616TIP3    H229340   0.804   6.549   3.847  1.1165  0.5388 -2.4941
 2617TIP3   OH229341   0.422   4.226   2.200  0.0773 -0.2095 -0.3285
 2617TIP3    H129342   0.372   4.306   2.187  0.5117 -0.1738 -2.1360
 2617TIP3    H229343   0.430   4.189   2.112  1.6402 -1.1644  0.1793
 2618TIP3   OH229344   3.350   3.840  11.398  0.0119 -0.1188 -0.2229
 2618TIP3    H129345   3.431   3.796  11.372  1.2229  0.5140  2.1218
 2618TIP3    H229346   3.364   3.932  11.377 -0.0450  0.0041  0.2565
 2619TIP3   OH229347   6.705   0.686  16.305 -0.5017 -0.1945  0.5219
 2619TIP3    H129348   6.630   0.724  16.351 -0.9449 -1.3589  0.7954
 2619TIP3    H229349   6.711   0.596  16.338  1.4369  0.0632  1.0222
 2620TIP3   OH229350   4.512   0.575  10.948 -0.1489 -0.5094 -0.0431
 2620TIP3    H129351   4.494   0.535  10.863 -1.1298 -0.2495  0.0362
 2620TIP3    H229352   4.459   0.524  11.010  1.0451 -1.1099  0.5166
 2621TIP3   OH229353   2.397   3.502   2.659  0.2038 -0.6733 -0.2297
 2621TIP3    H129354   2.450   3.426   2.634  0.8682 -0.2008 -0.2787
 2621TIP3    H229355   2.434   3.575   2.609  0.2861 -0.0990  0.6437
 2622TIP3   OH229356   6.364   2.450   0.865 -0.3721 -0.0793 -0.1185
 2622TIP3    H129357   6.360   2.545   0.857 -2.8872 -0.2587 -3.3089
 2622TIP3    H229358   6.286   2.427   0.916 -0.8740 -0.4584 -1.0228
 2623TIP3   OH229359   1.568   3.419   5.357 -0.1696 -0.2630 -0.5359
 2623TIP3    H129360   1.481   3.392   5.387 -0.0796 -2.3753 -1.9690
 2623TIP3    H229361   1.555   3.446   5.266  0.2724  2.0009  0.0149
 2624TIP3   OH229362   3.742   1.127  11.403 -0.1911 -0.4569  0.4177
 2624TIP3    H129363   3.652   1.134  11.434  0.0704  0.7275  0.9568
 2624TIP3    H229364   3.735   1.139  11.308 -0.7359 -1.7342  0.2794
 2625TIP3   OH229365   2.103   4.675   6.066  0.0036 -0.3464  0.3044
 2625TIP3    H129366   2.149   4.612   6.122  1.1710  1.5238  1.5807
 2625TIP3    H229367   2.093   4.753   6.121 -0.6125  0.8886 -1.4646
 2626TIP3   OH229368   1.158   1.693  13.964 -0.0281  0.2006  0.3661
 2626TIP3    H129369   1.154   1.598  13.952 -0.9131  0.3946 -1.2416
 2626TIP3    H229370   1.251   1.711  13.980  0.0897 -0.9668  1.1430
 2627TIP3   OH229371   6.693   0.068  16.324  0.6160 -0.1032 -0.0416
 2627TIP3    H129372   6.610   0.023  16.304 -0.7575  2.0650  0.4948
 2627TIP3    H229373   6.734   0.081  16.238 -1.3250  1.9006 -0.7429
 2628TIP3   OH229374   6.324   5.428   0.952  0.2610  0.8263 -1.5268
 2628TIP3    H129375   6.329   5.521   0.975 -0.1103  0.1652  1.8411
 2628TIP3    H229376   6.411   5.406   0.918  0.0413  2.5556 -3.3656
 2629TIP3   OH229377   0.533   3.884  15.278 -0.1558 -0.1688  0.0592
 2629TIP3    H129378   0.573   3.846  15.199 -0.7502  1.7285 -1.2341
 2629TIP3    H229379   0.606   3.925  15.324  0.3550 -2.1026  1.0531
 2630TIP3   OH229380   3.575   1.125   1.368 -0.3618  0.5749 -0.7859
 2630TIP3    H129381   3.529   1.047   1.337  0.0903  0.0207 -0.0956
 2630TIP3    H229382   3.508   1.177   1.412 -0.2380 -0.4965  0.7140
 2631TIP3   OH229383   5.143   2.018   2.689 -0.0629  0.3540  0.0723
 2631TIP3    H129384   5.085   2.034   2.615  0.3555  0.1577 -0.3042
 2631TIP3    H229385   5.223   1.984   2.650  0.3198  0.6497  0.5827
 2632TIP3   OH229386   4.868   4.428  10.734 -0.0213  0.4362 -0.4587
 2632TIP3    H129387   4.938   4.486  10.704 -0.3366  1.5869  0.9095
 2632TIP3    H229388   4.903   4.387  10.812  0.2355 -1.3643 -1.4701
 2633TIP3   OH229389   1.302   2.053  14.008 -0.3645 -0.4749 -0.2256
 2633TIP3    H129390   1.270   1.992  14.074  0.0570  0.1238  0.5591
 2633TIP3    H229391   1.397   2.055  14.021 -0.4926  1.4855  0.8274
 2634TIP3   OH229392   2.176   0.755   4.969  0.0832  0.4736 -0.1373
 2634TIP3    H129393   2.161   0.704   5.049  0.7852 -0.4061 -0.5489
 2634TIP3    H229394   2.088   0.775   4.937 -0.2051  0.4076  0.5816
 2635TIP3   OH229395   2.779   1.733   1.807  0.1690 -0.0766  0.3530
 2635TIP3    H129396   2.769   1.807   1.868  1.0188  0.7184 -0.4429
 2635TIP3    H229397   2.835   1.672   1.854 -0.9476 -0.4885  1.2244
 2636TIP3   OH229398   4.098   6.441  17.079 -0.6481  0.0059  1.0038
 2636TIP3    H129399   4.045   6.484  17.011  2.2940  1.2110 -0.7163
 2636TIP3    H229400   4.073   6.349  17.073 -1.2898  0.2504 -0.9553
 2637TIP3   OH229401   4.883   0.613  14.309 -0.5503  0.0087 -0.2631
 2637TIP3    H129402   4.793   0.620  14.341 -0.5570  1.0409 -0.4558
 2637TIP3    H229403   4.874   0.590  14.216 -0.6133  0.0557 -0.2684
 2638TIP3   OH229404   0.751   2.431  16.605  0.2097 -0.0150  0.3580
 2638TIP3    H129405   0.778   2.432  16.697 -1.8518 -1.4969  1.0666
 2638TIP3    H229406   0.819   2.381  16.560  0.3616 -0.8051  1.4348
 2639TIP3   OH229407   2.762   3.511   5.772  0.5361  0.5241  0.0061
 2639TIP3    H129408   2.708   3.435   5.791  0.1228  0.3163 -1.8408
 2639TIP3    H229409   2.762   3.561   5.854  0.5915 -1.2885  1.1679
 2640TIP3   OH229410   6.047   6.819   4.259 -0.2388 -0.2245 -0.4919
 2640TIP3    H129411   5.952   6.823   4.251 -0.2982  1.3483  0.5770
 2640TIP3    H229412   6.062   6.794   4.350  0.3690  0.6721 -0.3436
 2641TIP3   OH229413   1.708   3.238   2.747 -0.2045 -0.2575  0.5719
 2641TIP3    H129414   1.756   3.204   2.822  0.4080 -1.3840 -0.2883
 2641TIP3    H229415   1.766   3.306   2.710 -0.2685 -0.0738  0.8088
 2642TIP3   OH229416   5.078   3.112  11.297 -0.7994 -0.2258  0.4359
 2642TIP3    H129417   5.041   3.042  11.350 -5.2612  2.3489  1.2811
 2642TIP3    H229418   5.047   3.093  11.208 -2.8819  1.0014  0.8337
 2643TIP3   OH229419   2.051   0.871  15.186 -0.1446 -0.1369  0.6112
 2643TIP3    H129420   1.971   0.869  15.237 -0.2730 -0.7582  0.3983
 2643TIP3    H229421   2.025   0.844  15.098  0.4707 -1.5162  0.8133
 2644TIP3   OH229422   5.364   3.950  13.372 -0.7083  0.2498  0.3032
 2644TIP3    H129423   5.451   3.912  13.388 -0.9472 -1.2015 -1.5136
 2644TIP3    H229424   5.343   3.995  13.454  1.5770  0.3178  0.9414
 2645TIP3   OH229425   4.585   0.136   3.893 -0.0242 -0.2858  0.6565
 2645TIP3    H129426   4.526   0.209   3.879  0.3228  0.0463  0.9088
 2645TIP3    H229427   4.534   0.074   3.946 -1.1496 -1.3030 -1.4931
 2646TIP3   OH229428   4.166   4.010   4.660 -0.2322  0.1610  0.1893
 2646TIP3    H129429   4.207   3.995   4.575 -1.5022  1.0800 -0.6301
 2646TIP3    H229430   4.183   4.103   4.678  0.0463 -0.0323  0.9688
 2647TIP3   OH229431   2.499   3.829  14.481 -0.1184  0.2835  0.4451
 2647TIP3    H129432   2.524   3.869  14.397 -0.0131  0.5076  0.5814
 2647TIP3    H229433   2.580   3.828  14.532  0.0659 -0.8495  0.1522
 2648TIP3   OH229434   1.681   2.383  11.839  0.0754 -0.2559  0.2865
 2648TIP3    H129435   1.703   2.367  11.747 -1.2747 -0.1823 -0.0792
 2648TIP3    H229436   1.697   2.477  11.851  0.6486 -0.3442  0.2564
 2649TIP3   OH229437   0.169   4.822  13.413 -0.1373  0.1710 -0.5145
 2649TIP3    H129438   0.158   4.853  13.502  1.0088  0.9571 -0.6309
 2649TIP3    H229439   0.159   4.727  13.419 -0.4420  0.2537  0.3760
 2650TIP3   OH229440   0.212   1.986   2.502 -0.2147 -0.3191 -0.1946
 2650TIP3    H129441   0.231   1.892   2.504  2.7812  0.1858 -0.5770
 2650TIP3    H229442   0.192   2.004   2.410 -2.9248 -0.8484  0.2044
 2651TIP3   OH229443   4.077   0.095   3.102  0.4380  0.3666  1.0255
 2651TIP3    H129444   4.021   0.058   3.033  1.2663  0.4680  0.2780
 2651TIP3    H229445   4.037   0.179   3.123  2.1499  2.1280 -2.0127
 2652TIP3   OH229446   4.808   0.950   3.069  0.8473 -0.1127 -0.4803
 2652TIP3    H129447   4.794   1.039   3.037 -1.0734 -0.0540  0.3944
 2652TIP3    H229448   4.740   0.897   3.026  1.1412 -0.9033 -0.0019
 2653TIP3   OH229449   2.865   4.700   1.611  0.2269  0.0593  0.7356
 2653TIP3    H129450   2.924   4.639   1.567 -0.1948 -1.2337  1.8834
 2653TIP3    H229451   2.781   4.654   1.615 -0.4397  1.2140  0.5585
 2654TIP3   OH229452   6.008   4.125   2.938  0.3937  0.0795 -0.0638
 2654TIP3    H129453   5.937   4.086   2.888  1.4337 -2.3601  0.2283
 2654TIP3    H229454   6.046   4.052   2.988  0.8415  1.9435  2.5687
 2655TIP3   OH229455   4.180   6.435   6.016  0.6387  0.8411  0.1710
 2655TIP3    H129456   4.165   6.381   6.094  0.6604  0.7553  0.1163
 2655TIP3    H229457   4.212   6.518   6.050 -3.0103  2.2569  0.5269
 2656TIP3   OH229458   2.360   6.375  10.550  0.1496 -0.4346  0.1294
 2656TIP3    H129459   2.363   6.454  10.605 -1.8855 -0.9793  1.1271
 2656TIP3    H229460   2.421   6.314  10.592  1.6594  0.5418 -0.5879
 2657TIP3   OH229461   3.597   1.617  14.844 -0.6349  0.4341 -0.3800
 2657TIP3    H129462   3.541   1.586  14.915 -0.7669  0.7185 -0.3630
 2657TIP3    H229463   3.618   1.537  14.795 -2.1295  0.4766 -1.1628
 2658TIP3   OH229464   6.448   2.214   0.447  0.5585  0.8756  0.1447
 2658TIP3    H129465   6.366   2.251   0.480 -0.0330  0.5567 -0.9095
 2658TIP3    H229466   6.465   2.139   0.504 -1.2733 -0.6168 -1.1209
 2659TIP3   OH229467   0.412   2.222  15.952 -0.1570 -0.5013 -0.3723
 2659TIP3    H129468   0.469   2.231  16.029  1.3297 -2.2637 -1.1715
 2659TIP3    H229469   0.344   2.161  15.979 -1.0087  0.6689  0.2118
 2660TIP3   OH229470   2.484   2.157   2.189  1.0681 -0.2162  0.4595
 2660TIP3    H129471   2.452   2.071   2.164 -1.9444  0.5087  1.3087
 2660TIP3    H229472   2.420   2.189   2.253  0.5521  3.5963 -1.6027
 2661TIP3   OH229473   5.602   4.877  14.403 -0.2776  0.3553 -0.2131
 2661TIP3    H129474   5.508   4.895  14.411 -0.2558  0.2436  0.3148
 2661TIP3    H229475   5.625   4.832  14.484  0.0251 -0.5317 -0.7683
 2662TIP3   OH229476   5.998   6.506   5.553  0.4063  0.2104  0.5593
 2662TIP3    H129477   5.906   6.498   5.577  0.2396  0.2239 -0.0370
 2662TIP3    H229478   6.045   6.505   5.636 -0.1728  0.8262  0.9116
 2663TIP3   OH229479   1.063   5.283  11.772  0.4817  0.2104 -0.5968
 2663TIP3    H129480   1.079   5.284  11.866  0.6078 -1.0492 -0.5884
 2663TIP3    H229481   1.024   5.197  11.755  1.3675  0.0227 -1.8268
 2664TIP3   OH229482   3.738   3.984   1.547  0.0927 -0.6916  0.7357
 2664TIP3    H129483   3.743   4.079   1.562  0.0551 -0.3687 -1.1435
 2664TIP3    H229484   3.662   3.972   1.491  0.6029 -1.7388  0.2396
 2665TIP3   OH229485   1.071   2.808   4.302 -0.0190  0.2746 -0.6964
 2665TIP3    H129486   1.049   2.866   4.375  1.1881 -1.8650  1.5398
 2665TIP3    H229487   1.098   2.867   4.232 -1.8008  2.4698  0.3167
 2666TIP3   OH229488   0.351   4.625   3.623 -0.3508  0.5545 -0.3448
 2666TIP3    H129489   0.352   4.535   3.591 -2.7662  0.2899  0.1228
 2666TIP3    H229490   0.396   4.620   3.707 -0.6971 -0.2988 -0.1899
 2667TIP3   OH229491   0.285   1.526  11.552 -0.1028  0.5558  0.5822
 2667TIP3    H129492   0.366   1.512  11.599 -0.4511  0.7933  1.2599
 2667TIP3    H229493   0.246   1.603  11.592  0.1702  1.5173 -0.8975
 2668TIP3   OH229494   4.858   2.181  15.393  0.1481 -0.0868  0.1166
 2668TIP3    H129495   4.845   2.165  15.299  0.2759  0.4144  0.0105
 2668TIP3    H229496   4.771   2.172  15.431  0.2934 -1.5601  0.1541
 2669TIP3   OH229497   2.128   3.316   1.314 -0.0247 -0.0759  0.1114
 2669TIP3    H129498   2.113   3.224   1.333 -0.8696  0.1972  0.8220
 2669TIP3    H229499   2.223   3.324   1.304  0.0006 -1.1288 -0.5822
 2670TIP3   OH229500   5.441   3.672  10.996 -0.1832  0.2574  0.6727
 2670TIP3    H129501   5.496   3.673  10.917 -1.0889  1.9565  0.0172
 2670TIP3    H229502   5.501   3.651  11.067  0.8678 -0.1623 -0.3101
 2671TIP3   OH229503   3.777   4.529  16.778  0.2717  0.1882 -0.1061
 2671TIP3    H129504   3.783   4.487  16.692  0.3293  0.4607 -0.2369
 2671TIP3    H229505   3.731   4.611  16.760 -0.6615 -0.2278  0.2952
 2672TIP3   OH229506   2.190   6.470   1.025 -0.0968  0.6055  0.2542
 2672TIP3    H129507   2.142   6.492   0.946  0.4061  0.3218 -0.1375
 2672TIP3    H229508   2.266   6.529   1.025  1.5918 -1.3913 -1.1230
 2673TIP3   OH229509   2.849   2.107  12.323 -0.0326 -1.0465  0.2808
 2673TIP3    H129510   2.788   2.069  12.259 -0.4418 -0.3545  0.2463
 2673TIP3    H229511   2.797   2.173  12.368  0.6962 -0.4446  0.2486
 2674TIP3   OH229512   4.473   2.704  13.937 -0.0444 -0.4098 -0.1544
 2674TIP3    H129513   4.410   2.726  14.006 -0.3931  0.6687 -0.7945
 2674TIP3    H229514   4.420   2.700  13.857  0.6514  0.2711 -0.6632
 2675TIP3   OH229515   4.286   5.641   0.807 -0.1221  0.4872  0.1941
 2675TIP3    H129516   4.268   5.712   0.747  1.7130  1.8659  1.1852
 2675TIP3    H229517   4.272   5.561   0.755 -1.1803  1.5536 -1.2356
 2676TIP3   OH229518   6.070   2.092  14.802  0.6783 -0.8067  0.5962
 2676TIP3    H129519   6.072   2.008  14.756  0.3850  0.5435 -2.1172
 2676TIP3    H229520   6.003   2.143  14.756  1.8016  1.3862  1.2337
 2677TIP3   OH229521   0.871   4.583  11.009  0.4680  0.4141  0.3796
 2677TIP3    H129522   0.814   4.621  11.077 -0.0899  1.0133 -0.4064
 2677TIP3    H229523   0.949   4.639  11.009 -1.3865  3.3358 -2.5266
 2678TIP3   OH229524   6.027   0.497   1.921 -0.3074  0.2809 -0.0935
 2678TIP3    H129525   5.962   0.524   1.986 -0.4704 -2.0686  0.8122
 2678TIP3    H229526   6.058   0.412   1.951  0.4888 -0.3637 -2.4754
 2679TIP3   OH229527   3.399   2.901  16.693  0.1774  0.2012 -0.0116
 2679TIP3    H129528   3.433   2.819  16.657  1.3028  0.2780  0.8010
 2679TIP3    H229529   3.478   2.949  16.720 -0.5595  0.7242  1.2795
 2680TIP3   OH229530   5.861   2.248   6.444 -0.1520 -0.3754 -0.1432
 2680TIP3    H129531   5.886   2.235   6.535  0.9768 -0.5207 -0.4571
 2680TIP3    H229532   5.826   2.163   6.416  0.6253 -0.6846 -0.1856
 2681TIP3   OH229533   3.174   6.145   4.980  0.6838  0.0223 -0.2386
 2681TIP3    H129534   3.138   6.222   4.936 -0.1953 -0.2536 -0.0234
 2681TIP3    H229535   3.267   6.144   4.956 -0.2256 -1.7984 -4.6731
 2682TIP3   OH229536   5.549   1.891  13.847  0.4131 -0.1237  0.3038
 2682TIP3    H129537   5.575   1.927  13.931 -0.3357  1.1377  0.0226
 2682TIP3    H229538   5.496   1.815  13.869 -0.6351  0.7839  1.0273
 2683TIP3   OH229539   4.190   3.540  15.469  0.7644 -0.0988 -0.6253
 2683TIP3    H129540   4.201   3.584  15.553 -1.0838  3.2116 -1.9101
 2683TIP3    H229541   4.272   3.556  15.423  0.7589  0.5634 -0.4212
 2684TIP3   OH229542   3.552   4.423  10.668  0.1255  0.2231  0.1620
 2684TIP3    H129543   3.572   4.359  10.736  0.1563  0.8461  0.7554
 2684TIP3    H229544   3.538   4.371  10.589  1.2988 -0.4297  0.3665
 2685TIP3   OH229545   1.535   2.513  12.953  0.1105  0.4292  0.1123
 2685TIP3    H129546   1.583   2.531  13.034  0.1604  0.3694  0.0958
 2685TIP3    H229547   1.601   2.520  12.884  0.4240 -1.1292  0.2127
 2686TIP3   OH229548   6.392   6.692  14.211  0.5040  0.4887 -0.3632
 2686TIP3    H129549   6.479   6.667  14.180  0.2480 -2.2984  0.9207
 2686TIP3    H229550   6.333   6.626  14.174 -1.0510  1.9900 -0.7278
 2687TIP3   OH229551   2.863   6.785   5.782  0.0774 -0.4409 -0.2175
 2687TIP3    H129552   2.867   6.703   5.832 -1.0069 -1.2378 -1.3813
 2687TIP3    H229553   2.834   6.850   5.846 -0.4947 -1.2684  0.3855
 2688TIP3   OH229554   1.282   4.277   2.296 -0.5353 -0.6246  0.4435
 2688TIP3    H129555   1.265   4.185   2.276 -2.5510 -0.6621  2.0031
 2688TIP3    H229556   1.361   4.298   2.247 -0.4811 -2.9536 -0.5940
 2689TIP3   OH229557   4.990   2.843   4.270  0.6987 -0.3141  0.3950
 2689TIP3    H129558   4.908   2.795   4.279  1.2687 -0.9561  2.5011
 2689TIP3    H229559   4.970   2.931   4.300  0.3469  0.0770 -0.8968
 2690TIP3   OH229560   5.161   2.803   0.815 -0.2689  0.4004  0.3154
 2690TIP3    H129561   5.110   2.832   0.891  1.6823  1.1053  1.4198
 2690TIP3    H229562   5.172   2.709   0.829  2.0968  0.8679  2.2877
 2691TIP3   OH229563   6.720   3.876  11.496 -0.3260  0.4598 -0.0100
 2691TIP3    H129564   6.633   3.867  11.457 -0.6937 -1.1939  1.0976
 2691TIP3    H229565   6.704   3.887  11.590  0.6291  1.0203  0.1033
 2692TIP3   OH229566   5.275   5.071   3.557 -0.6263 -0.1627  0.0336
 2692TIP3    H129567   5.362   5.070   3.598 -0.4040 -1.3917 -0.4193
 2692TIP3    H229568   5.224   5.130   3.612 -0.3594 -1.7891  2.2127
 2693TIP3   OH229569   5.377   2.263   0.851  0.1273 -0.0293 -0.7989
 2693TIP3    H129570   5.292   2.253   0.808 -0.6113  0.9642  0.3624
 2693TIP3    H229571   5.355   2.275   0.943  1.4209  1.9696 -0.7136
 2694TIP3   OH229572   5.994   2.743  12.015 -0.4573  0.5718 -0.2880
 2694TIP3    H129573   5.936   2.768  12.086 -0.9987  1.0321 -0.8907
 2694TIP3    H229574   5.999   2.647  12.021 -0.1785  0.6282  0.6049
 2695TIP3   OH229575   1.350   4.438  16.707 -0.2179  0.0140 -0.3548
 2695TIP3    H129576   1.255   4.435  16.722 -0.2256  1.2728 -0.0319
 2695TIP3    H229577   1.361   4.501  16.636  0.3549 -0.5204 -0.7500
 2696TIP3   OH229578   5.149   3.615  12.257 -0.0852  0.0671  0.0512
 2696TIP3    H129579   5.196   3.698  12.257  0.9979 -0.5198  1.2867
 2696TIP3    H229580   5.216   3.549  12.270 -1.0420 -0.9355  0.0584
 2697TIP3   OH229581   1.044   5.623   5.120 -0.1240 -0.2532 -0.1866
 2697TIP3    H129582   0.984   5.584   5.056  1.5683 -1.3714 -1.1740
 2697TIP3    H229583   1.084   5.696   5.073  0.5910 -0.6264 -0.1647
 2698TIP3   OH229584   0.734   1.424   1.395  0.1044  0.1217  0.5841
 2698TIP3    H129585   0.802   1.484   1.426  1.1942 -0.5002 -0.5121
 2698TIP3    H229586   0.669   1.481   1.354  1.1940  0.5687 -0.5818
 2699TIP3   OH229587   5.791   3.572  14.072  0.8778 -0.0595  0.4044
 2699TIP3    H129588   5.800   3.622  13.991  1.4210 -1.1905 -0.2646
 2699TIP3    H229589   5.765   3.485  14.043 -0.6846 -0.0130  1.5803
 2700TIP3   OH229590   6.493   4.386  16.126 -0.3157 -0.0540 -0.1572
 2700TIP3    H129591   6.500   4.430  16.211  1.0397  1.9088 -1.1864
 2700TIP3    H229592   6.583   4.358  16.106 -0.4184  0.4102 -1.3654
 2701TIP3   OH229593   5.862   1.143  13.638 -0.1424  0.3854  0.1011
 2701TIP3    H129594   5.820   1.103  13.562  0.2428 -0.6588  0.4250
 2701TIP3    H229595   5.915   1.214  13.602  0.6813 -0.6068 -0.7218
 2702TIP3   OH229596   2.143   5.705   3.703 -0.0744 -0.0021  0.2614
 2702TIP3    H129597   2.127   5.735   3.793  1.5671  1.5031  0.1105
 2702TIP3    H229598   2.083   5.758   3.650  0.2474  0.4397  0.3278
 2703TIP3   OH229599   2.849   1.999  15.566  0.2340 -0.3766 -0.0608
 2703TIP3    H129600   2.775   2.059  15.571 -0.4811 -1.3454  1.6366
 2703TIP3    H229601   2.920   2.044  15.612 -1.5412 -2.4033  5.4247
 2704TIP3   OH229602   4.626   1.640   6.357  0.3148  0.3843  0.4774
 2704TIP3    H129603   4.603   1.547   6.359 -1.2844  0.7544  0.7882
 2704TIP3    H229604   4.542   1.685   6.354  1.0747  1.8014 -1.1594
 2705TIP3   OH229605   1.475   4.942  16.400  0.5762  0.2645  0.1760
 2705TIP3    H129606   1.545   4.883  16.373 -0.4331 -1.3154  0.9039
 2705TIP3    H229607   1.395   4.891  16.392 -0.6755  2.2962 -1.5438
 2706TIP3   OH229608   3.812   2.324  13.941  0.0224  0.2511 -0.1525
 2706TIP3    H129609   3.886   2.327  13.881 -1.0942  1.7551 -1.5211
 2706TIP3    H229610   3.803   2.231  13.963  1.4367 -0.1189 -1.0346
 2707TIP3   OH229611   5.741   3.431  12.631 -0.0405  0.2200 -0.3571
 2707TIP3    H129612   5.783   3.345  12.629 -1.9079 -0.7572  0.1569
 2707TIP3    H229613   5.801   3.486  12.682  0.5991 -1.1053  0.3852
 2708TIP3   OH229614   0.364   5.815  13.089 -0.2617 -0.3031  0.1878
 2708TIP3    H129615   0.450   5.845  13.061  0.2242 -1.2226  0.6508
 2708TIP3    H229616   0.368   5.817  13.184 -0.3115 -1.5329  0.2267
 2709TIP3   OH229617   1.199   2.703   2.733 -0.0333 -0.0146 -0.8490
 2709TIP3    H129618   1.105   2.720   2.731  0.0493  0.4246 -1.6783
 2709TIP3    H229619   1.210   2.632   2.796 -0.8014  0.6566  0.0670
 2710TIP3   OH229620   0.265   1.760   0.458  0.1169  0.0655 -0.2789
 2710TIP3    H129621   0.305   1.762   0.544  0.0075  0.7903 -0.2339
 2710TIP3    H229622   0.235   1.850   0.444  0.6331  0.0979 -1.2988
 2711TIP3   OH229623   5.149   4.094  11.769  0.1684 -0.1856 -0.2877
 2711TIP3    H129624   5.192   4.163  11.719 -0.6726  1.1073  0.7237
 2711TIP3    H229625   5.113   4.138  11.846 -1.1381 -1.5957 -0.0383
 2712TIP3   OH229626   6.132   1.154   1.374 -0.0754  0.0854 -0.4426
 2712TIP3    H129627   6.049   1.111   1.394  0.2506  0.6731  2.7262
 2712TIP3    H229628   6.143   1.220   1.443  2.4524  0.8552 -1.4392
 2713TIP3   OH229629   0.350   6.583   2.309  0.2496  0.1970  0.3472
 2713TIP3    H129630   0.395   6.511   2.353 -1.7435 -1.7877 -0.6532
 2713TIP3    H229631   0.258   6.561   2.315 -0.5554  3.2358  0.8466
 2714TIP3   OH229632   5.499   2.691  12.749  0.2978 -0.1276 -0.3561
 2714TIP3    H129633   5.506   2.649  12.664  0.8806  0.1551 -0.4490
 2714TIP3    H229634   5.545   2.633  12.809  1.0576  0.3359 -0.4747
 2715TIP3   OH229635   0.464   6.774   6.332 -0.1245  0.7417 -0.2522
 2715TIP3    H129636   0.370   6.781   6.344 -0.2703  0.8974 -1.3811
 2715TIP3    H229637   0.486   6.844   6.271  0.6799  0.5200 -0.2360
 2716TIP3   OH229638   4.213   2.538  11.451  0.2376  0.1034 -0.3214
 2716TIP3    H129639   4.253   2.496  11.527 -0.8165  1.1593  0.8810
 2716TIP3    H229640   4.126   2.564  11.481 -0.9235 -1.0097 -2.4516
 2717TIP3   OH229641   6.682   0.540  12.940  0.0350 -0.4232 -0.0400
 2717TIP3    H129642   6.660   0.533  13.033 -0.3045 -2.0477 -0.2057
 2717TIP3    H229643   6.768   0.582  12.939 -0.9529  1.7900  0.8597
 2718TIP3   OH229644   6.703   5.767   2.707  0.3391 -0.0527  0.7807
 2718TIP3    H129645   6.615   5.758   2.745 -0.2127 -0.2659 -0.4815
 2718TIP3    H229646   6.726   5.678   2.679  0.7593  0.0869  0.6810
 2719TIP3   OH229647   5.629   2.474  15.207  0.2208  0.1612  0.4621
 2719TIP3    H129648   5.564   2.449  15.142  1.0564  0.8438 -0.6642
 2719TIP3    H229649   5.669   2.391  15.233  2.0773  0.0506 -2.2991
 2720TIP3   OH229650   3.244   1.782  16.261 -0.5887  0.1950  0.2522
 2720TIP3    H129651   3.268   1.874  16.267  0.8878 -0.0530 -1.0575
 2720TIP3    H229652   3.282   1.753  16.178 -0.0551 -1.8478  1.1309
 2721TIP3   OH229653   4.957   1.690  13.762 -0.0543  0.3210  0.0621
 2721TIP3    H129654   4.992   1.775  13.738  1.8122 -0.9174 -2.0305
 2721TIP3    H229655   5.034   1.637  13.785 -0.9782 -1.2576 -0.2900
 2722TIP3   OH229656   0.294   2.950   3.744  0.1410 -0.2049 -0.0595
 2722TIP3    H129657   0.324   2.860   3.728 -2.0182 -0.7978 -1.1058
 2722TIP3    H229658   0.199   2.944   3.744 -0.0498  1.9058  1.1212
 2723TIP3   OH229659   5.835   3.665  15.595 -0.2394 -0.6551  0.5765
 2723TIP3    H129660   5.774   3.607  15.549 -0.3328 -0.3591  0.3278
 2723TIP3    H229661   5.884   3.708  15.526  1.5091 -2.2096  0.7693
 2724TIP3   OH229662   6.380   0.409   2.917  0.0501 -0.2119 -0.3304
 2724TIP3    H129663   6.336   0.493   2.927 -0.0467 -0.1667 -1.0480
 2724TIP3    H229664   6.395   0.378   3.006  2.5319  1.8364  0.0885
 2725TIP3   OH229665   0.155   5.750   0.105 -0.3563  0.8048  0.1467
 2725TIP3    H129666   0.063   5.751   0.079 -0.3088  0.1636 -0.0686
 2725TIP3    H229667   0.153   5.743   0.200 -0.5320  0.8216  0.1448
 2726TIP3   OH229668   2.358   5.780   1.515 -0.4374 -0.3174  0.0251
 2726TIP3    H129669   2.392   5.773   1.426 -0.9191 -1.0995 -0.1046
 2726TIP3    H229670   2.278   5.728   1.515 -0.3427 -0.4919  0.9637
 2727TIP3   OH229671   4.266   0.598  12.511  0.4604  0.0964  0.1144
 2727TIP3    H129672   4.198   0.585  12.446  0.1409  0.2670  0.4154
 2727TIP3    H229673   4.347   0.572  12.466  0.3207  0.7618 -0.5396
 2728TIP3   OH229674   5.635   1.814  11.446  0.1209  0.5515 -0.1261
 2728TIP3    H129675   5.541   1.831  11.434  0.0536  0.8558  0.7363
 2728TIP3    H229676   5.646   1.808  11.541  1.3193  2.5278 -0.0893
 2729TIP3   OH229677   5.344   1.682   3.511  0.3365 -0.3414 -0.4415
 2729TIP3    H129678   5.272   1.740   3.486  0.7928  0.2606 -0.4126
 2729TIP3    H229679   5.378   1.649   3.428 -0.9768 -1.9299 -0.4017
 2730TIP3   OH229680   4.434   6.469  11.225  0.6543  0.1972 -0.1829
 2730TIP3    H129681   4.430   6.413  11.147  0.2755 -2.0107  1.3244
 2730TIP3    H229682   4.347   6.509  11.230 -0.7031 -2.6321  1.0684
 2731TIP3   OH229683   1.382   2.054   5.377 -0.5560  0.2017 -0.9427
 2731TIP3    H129684   1.472   2.029   5.355 -0.0295 -0.1316  1.2950
 2731TIP3    H229685   1.352   1.986   5.437 -0.9512  2.1806  1.2515
 2732TIP3   OH229686   3.579   4.750  13.934  0.0716 -0.0623  0.0801
 2732TIP3    H129687   3.630   4.827  13.960  1.7514 -0.3128 -2.1672
 2732TIP3    H229688   3.488   4.772  13.957  0.7249  1.8672  1.0044
 2733TIP3   OH229689   2.313   3.037   0.542  0.1039 -0.4377 -0.2741
 2733TIP3    H129690   2.283   2.963   0.488  1.2352 -1.5143  0.5288
 2733TIP3    H229691   2.353   2.997   0.618  0.0819  1.0431  0.5547
 2734TIP3   OH229692   5.318   4.032  16.679 -0.1054 -0.4347  0.0289
 2734TIP3    H129693   5.294   3.956  16.626 -1.7014  0.7317 -1.0154
 2734TIP3    H229694   5.301   4.004  16.769  0.7905 -1.8045 -0.1955
 2735TIP3   OH229695   0.439   1.838   3.682  0.1266 -0.5307  0.5655
 2735TIP3    H129696   0.423   1.919   3.634 -1.7408 -0.6129  0.9834
 2735TIP3    H229697   0.352   1.800   3.694  0.5672 -0.7988  3.4826
 2736TIP3   OH229698   2.792   2.481  15.563  0.0347 -0.2610 -0.0226
 2736TIP3    H129699   2.741   2.445  15.636  1.1300  0.3431  1.0703
 2736TIP3    H229700   2.766   2.573  15.559 -0.1775 -0.3389 -0.5500
 2737TIP3   OH229701   5.946   5.492  12.872  0.0537  0.1520 -0.1830
 2737TIP3    H129702   6.006   5.561  12.902 -0.2981  0.7679 -0.8522
 2737TIP3    H229703   5.928   5.440  12.950  0.1128  0.9919  0.4082
 2738TIP3   OH229704   2.169   2.115  13.198  0.7036 -0.4589  0.7572
 2738TIP3    H129705   2.102   2.050  13.176  0.8680 -0.4772  0.2928
 2738TIP3    H229706   2.237   2.065  13.243  1.4144 -0.8638 -0.7056
 2739TIP3   OH229707   3.175   2.628   2.409 -0.5303 -0.4209 -0.2930
 2739TIP3    H129708   3.264   2.603   2.430  0.0770  1.8694  0.1678
 2739TIP3    H229709   3.161   2.711   2.455 -2.8843 -0.6765 -0.3837
 2740TIP3   OH229710   2.260   1.499   0.356 -0.0099  0.3514 -0.1490
 2740TIP3    H129711   2.239   1.449   0.435 -0.0280 -0.0921 -0.4300
 2740TIP3    H229712   2.179   1.502   0.306  0.1686  0.0658 -0.4575
 2741TIP3   OH229713   6.235   6.417   2.690  0.8474 -0.0141  0.6254
 2741TIP3    H129714   6.316   6.464   2.706  2.6972 -2.7937  0.1084
 2741TIP3    H229715   6.185   6.427   2.771  0.6528  3.4551  0.2335
 2742TIP3   OH229716   5.875   3.972  15.771  0.6057 -0.4326 -0.6848
 2742TIP3    H129717   5.908   3.928  15.693  1.5681  2.8494 -2.3180
 2742TIP3    H229718   5.786   4.000  15.747  0.8923  0.5548 -0.6228
 2743TIP3   OH229719   4.783   1.470   0.332 -0.3830  0.0228 -0.5321
 2743TIP3    H129720   4.804   1.392   0.280 -0.8644  0.4102 -1.3380
 2743TIP3    H229721   4.689   1.463   0.347 -0.1969 -0.2302  0.5507
 2744TIP3   OH229722   1.293   1.116  11.897 -0.3357 -0.6338  0.0187
 2744TIP3    H129723   1.212   1.090  11.854 -0.5245 -1.7450  0.9975
 2744TIP3    H229724   1.335   1.175  11.835 -1.8254 -0.1387 -0.5604
 2745TIP3   OH229725   5.946   4.372   1.329 -0.0469  0.4838  0.3965
 2745TIP3    H129726   5.972   4.440   1.268 -0.1593 -0.4183 -0.6810
 2745TIP3    H229727   5.926   4.420   1.410  0.9017  1.6072  0.0037
 2746TIP3   OH229728   4.380   3.894  16.969  0.6686 -0.4455  0.0081
 2746TIP3    H129729   4.358   3.947  17.045 -1.7819 -1.4363  0.0942
 2746TIP3    H229730   4.297   3.856  16.941  1.4227 -0.0506 -3.2672
 2747TIP3   OH229731   4.356   4.646   4.516  0.0303 -0.2165 -0.0197
 2747TIP3    H129732   4.333   4.570   4.569  1.1202  0.0062  0.7993
 2747TIP3    H229733   4.368   4.611   4.428  0.9654 -1.0840  0.4380
 2748TIP3   OH229734   0.113   5.753   6.482 -0.2102  0.6478  0.2225
 2748TIP3    H129735   0.174   5.826   6.483 -0.2844  0.7642 -1.2594
 2748TIP3    H229736   0.069   5.760   6.397 -0.6242 -0.7769  0.2970
 2749TIP3   OH229737   2.486   1.556   2.638  0.3182  0.3760 -0.0059
 2749TIP3    H129738   2.497   1.509   2.721  1.9952  0.6792 -0.0225
 2749TIP3    H229739   2.431   1.631   2.659 -0.3945 -0.2815  0.5261
 2750TIP3   OH229740   1.775   4.117  14.090  0.2673  0.5453 -0.3277
 2750TIP3    H129741   1.781   4.094  13.998 -1.2087  1.6524 -0.7335
 2750TIP3    H229742   1.721   4.047  14.129 -3.4171  2.5117 -1.3784
 2751TIP3   OH229743   1.381   1.702   1.625  0.3215 -0.2771  0.0482
 2751TIP3    H129744   1.389   1.696   1.720  2.3642  0.3505 -0.0187
 2751TIP3    H229745   1.436   1.631   1.592  0.4608  0.1437 -0.6586
 2752TIP3   OH229746   4.966   3.039  13.365  0.4052  0.5850 -0.7563
 2752TIP3    H129747   5.021   3.107  13.326  3.0690 -0.0009  1.5599
 2752TIP3    H229748   4.949   3.071  13.454 -1.2125 -0.2792 -0.7206
 2753TIP3   OH229749   0.823   6.449   5.480  0.2240 -0.8048 -0.8799
 2753TIP3    H129750   0.915   6.473   5.489 -0.3944  1.7487 -0.6332
 2753TIP3    H229751   0.777   6.505   5.542 -1.7245 -0.3859 -2.5966
 2754TIP3   OH229752   6.391   1.652  11.013  0.2565 -0.0118 -0.2557
 2754TIP3    H129753   6.297   1.641  10.998  0.4311  0.8723 -2.3098
 2754TIP3    H229754   6.397   1.683  11.104 -1.3565 -0.7430  0.1436
 2755TIP3   OH229755   0.378   0.859  13.467  0.7505  0.6607 -0.9929
 2755TIP3    H129756   0.374   0.782  13.410 -0.8500  1.7602 -2.4903
 2755TIP3    H229757   0.345   0.830  13.551  2.5810 -0.8632 -0.7281
 2756TIP3   OH229758   6.562   5.306  15.041 -0.1484 -0.7202  0.5982
 2756TIP3    H129759   6.562   5.380  15.101 -2.6232  0.5551 -0.7836
 2756TIP3    H229760   6.595   5.341  14.959  0.6537 -1.7391  0.4576
 2757TIP3   OH229761   0.785   3.215   3.813 -0.0143 -0.2608 -0.4972
 2757TIP3    H129762   0.875   3.246   3.813 -0.2586  0.6079  1.2620
 2757TIP3    H229763   0.738   3.274   3.754 -0.7878  4.1381  3.8075
 2758TIP3   OH229764   5.865   6.673   1.794 -0.4400 -0.1440 -0.8303
 2758TIP3    H129765   5.790   6.617   1.813 -0.6199  0.4475  0.2997
 2758TIP3    H229766   5.937   6.611   1.778 -1.2176 -0.7167 -2.2823
 2759TIP3   OH229767   5.545   2.639  16.120 -0.2266 -0.0226  0.6206
 2759TIP3    H129768   5.515   2.551  16.097 -2.9985  0.8121  0.7952
 2759TIP3    H229769   5.596   2.626  16.200  0.1549 -1.5549  0.1713
 2760TIP3   OH229770   0.485   2.280  11.243 -0.3806 -0.6275  0.2070
 2760TIP3    H129771   0.484   2.259  11.150  1.8805 -0.3239  0.0548
 2760TIP3    H229772   0.558   2.229  11.279  0.8020  1.5973  1.1710
 2761TIP3   OH229773   3.242   0.324  15.486  0.0407 -0.0238 -0.2449
 2761TIP3    H129774   3.205   0.375  15.414  0.1261 -1.5077 -1.3948
 2761TIP3    H229775   3.306   0.382  15.526 -1.4432  1.5489 -0.0750
 2762TIP3   OH229776   3.166   2.935  14.879 -0.1384 -0.0750 -0.1955
 2762TIP3    H129777   3.219   3.013  14.895  0.3104 -0.9588  3.3160
 2762TIP3    H229778   3.207   2.894  14.803  0.4080  2.3380 -1.3194
 2763TIP3   OH229779   5.133   1.237  13.767  0.5311 -0.1552  0.2120
 2763TIP3    H129780   5.140   1.142  13.774 -1.9107 -0.4076  0.0182
 2763TIP3    H229781   5.146   1.256  13.674 -0.1662 -0.4482  0.0500
 2764TIP3   OH229782   5.841   6.776   5.280  0.3888  0.6951 -0.4206
 2764TIP3    H129783   5.838   6.781   5.376 -0.7727 -0.4231 -0.3748
 2764TIP3    H229784   5.839   6.867   5.252 -1.2548  1.0128  0.5991
 2765TIP3   OH229785   2.911   1.251   4.619  0.1599 -0.0344 -0.1125
 2765TIP3    H129786   2.821   1.266   4.649  0.0033 -0.4741 -0.3437
 2765TIP3    H229787   2.947   1.338   4.604 -0.7922  0.1189 -1.6813
 2766TIP3   OH229788   2.269   2.675  16.619 -0.1972  0.4834 -0.3633
 2766TIP3    H129789   2.302   2.617  16.550 -3.3541 -1.1994 -0.6290
 2766TIP3    H229790   2.219   2.742  16.572 -0.1158  0.9208  0.1629
 2767TIP3   OH229791   2.157   0.021   1.615 -0.5538  0.6346  0.4220
 2767TIP3    H129792   2.092   0.011   1.545 -0.1206  3.0841 -0.4378
 2767TIP3    H229793   2.237  -0.016   1.578 -0.4541  1.4527 -0.2093
 2768TIP3   OH229794   4.423   4.655   6.338  0.4018  0.1424 -0.1848
 2768TIP3    H129795   4.426   4.748   6.358  0.9777  0.3744 -1.2431
 2768TIP3    H229796   4.485   4.615   6.398 -0.7426  0.2453  1.1197
 2769TIP3   OH229797   1.917   2.042   3.671 -0.2632  0.2064 -0.4054
 2769TIP3    H129798   1.841   2.019   3.617 -2.0887 -1.3419  2.5715
 2769TIP3    H229799   1.967   1.961   3.678 -1.5163 -0.4408  2.2642
 2770TIP3   OH229800   6.815   2.889  15.373 -0.2913 -0.0366  0.4625
 2770TIP3    H129801   6.851   2.839  15.446  1.4596 -0.0469 -0.3589
 2770TIP3    H229802   6.863   2.972  15.374 -0.1771 -0.0618 -0.7011
 2771TIP3   OH229803   6.606   0.557   0.169  0.1706 -0.0317 -0.2430
 2771TIP3    H129804   6.647   0.551   0.082 -0.1145  1.5146 -0.5149
 2771TIP3    H229805   6.608   0.467   0.202 -0.1730 -0.7548 -2.0588
 2772TIP3   OH229806   5.129   3.740   1.982  0.1310  0.2752 -0.0670
 2772TIP3    H129807   5.047   3.693   1.966  0.1055  0.2618  0.1035
 2772TIP3    H229808   5.179   3.728   1.901  0.5133 -0.8512  0.3071
 2773TIP3   OH229809   3.191   3.609   1.911 -0.1043 -0.1439  0.1834
 2773TIP3    H129810   3.186   3.516   1.932  0.3888 -0.6337 -1.6932
 2773TIP3    H229811   3.282   3.632   1.930 -1.0590  0.9701  4.2556
 2774TIP3   OH229812   1.025   4.987  11.661 -0.2157 -0.5207 -0.5781
 2774TIP3    H129813   0.943   5.034  11.679  0.2887 -0.2567  1.2036
 2774TIP3    H229814   1.012   4.900  11.698  0.8793  0.0544  1.2733
 2775TIP3   OH229815   6.029   4.492  14.973 -0.5377  0.3780  0.4315
 2775TIP3    H129816   6.110   4.501  15.023  0.3950 -1.1772 -0.6979
 2775TIP3    H229817   5.980   4.424  15.019  0.2248 -0.8960 -0.5252
 2776TIP3   OH229818   3.203   1.356   2.553  0.6213 -0.1546  0.5826
 2776TIP3    H129819   3.126   1.309   2.586  0.6185 -0.5938 -0.0232
 2776TIP3    H229820   3.210   1.328   2.461 -0.1324  1.9778 -0.1861
 2777TIP3   OH229821   0.234   3.010  14.780  0.2008 -0.1894  0.1703
 2777TIP3    H129822   0.212   3.061  14.702  0.4465 -0.4420 -0.0666
 2777TIP3    H229823   0.327   2.992  14.772  0.2984  0.0501  0.6852
 2778TIP3   OH229824   5.604   3.198  12.858  0.8049 -0.7732  0.2744
 2778TIP3    H129825   5.582   3.122  12.805  0.0545  1.1915 -2.4141
 2778TIP3    H229826   5.524   3.217  12.908  0.6047 -1.0613  0.0596
 2779TIP3   OH229827   5.692   1.498   0.878  0.7721 -0.6839 -0.5755
 2779TIP3    H129828   5.637   1.426   0.912 -0.4583  0.9123  1.0337
 2779TIP3    H229829   5.781   1.470   0.895  0.2960 -1.6390  0.5041
 2780TIP3   OH229830   2.095   3.137  14.899  0.0116 -0.1725  0.2311
 2780TIP3    H129831   2.112   3.065  14.960  0.9602  0.4909  0.7818
 2780TIP3    H229832   2.109   3.216  14.951 -1.2626  0.4214 -0.3002
 2781TIP3   OH229833   6.018   0.740  11.670  0.0503  0.2604  0.5510
 2781TIP3    H129834   6.065   0.727  11.752  0.5201 -2.9009 -0.1063
 2781TIP3    H229835   5.925   0.731  11.694  0.1795 -0.5479  0.7765
 2782TIP3   OH229836   6.725   2.490   0.898 -0.3994  0.2540  0.1786
 2782TIP3    H129837   6.782   2.522   0.968 -0.2256  1.8990 -0.6723
 2782TIP3    H229838   6.736   2.395   0.901  4.7700  0.4726 -1.8028
 2783TIP3   OH229839   0.471   0.396   5.531 -0.1504 -0.1573  0.1797
 2783TIP3    H129840   0.553   0.392   5.580 -0.6166 -0.0147  0.9985
 2783TIP3    H229841   0.404   0.369   5.595 -0.7121 -0.4973 -0.5385
 2784TIP3   OH229842   2.798   3.589  13.194 -0.1573  0.2160 -0.1352
 2784TIP3    H129843   2.866   3.653  13.172  0.9543 -1.0179 -0.4090
 2784TIP3    H229844   2.838   3.535  13.263 -1.1964 -0.0012  0.3167
 2785TIP3   OH229845   1.668   0.646   4.602  0.2493  0.0387 -0.0149
 2785TIP3    H129846   1.605   0.696   4.549 -0.1940 -0.9218 -0.4117
 2785TIP3    H229847   1.647   0.670   4.692 -1.1309 -0.7569 -0.0996
 2786TIP3   OH229848   4.536   2.874   0.474  0.1268 -0.4190  0.0532
 2786TIP3    H129849   4.443   2.855   0.461 -0.0505 -0.7315  1.5922
 2786TIP3    H229850   4.578   2.789   0.476  0.5408 -0.2602 -1.1259
 2787TIP3   OH229851   0.970   6.141  16.102  0.4275  0.0187  0.5336
 2787TIP3    H129852   0.947   6.157  16.010 -1.0452 -0.2927  0.8313
 2787TIP3    H229853   1.011   6.055  16.101  0.4700  0.0378  0.1592
 2788TIP3   OH229854   1.471   5.093   1.524 -0.1372 -0.0872 -0.2399
 2788TIP3    H129855   1.408   5.121   1.458 -0.7435  0.9823  0.7605
 2788TIP3    H229856   1.428   5.110   1.607  0.8459 -0.8652  0.4561
 2789TIP3   OH229857   5.761   5.333   1.946  0.4587  0.0286  0.1295
 2789TIP3    H129858   5.762   5.404   1.882  0.0057  0.5268  0.6600
 2789TIP3    H229859   5.715   5.370   2.022 -0.4477 -1.0696  0.1453
 2790TIP3   OH229860   2.745   2.536  14.415 -0.2658  0.0324  0.0506
 2790TIP3    H129861   2.838   2.516  14.427 -0.7999 -3.2862 -0.3237
 2790TIP3    H229862   2.702   2.497  14.491 -1.5620 -1.1474 -1.2165
 2791TIP3   OH229863   0.586   1.030  14.290  0.1722  0.0631 -0.2957
 2791TIP3    H129864   0.509   1.008  14.342 -0.8919  0.3886 -1.6741
 2791TIP3    H229865   0.644   1.076  14.351 -1.6305  1.6722  0.2892
 2792TIP3   OH229866   4.196   3.142   3.765 -0.3940  0.2570  0.3626
 2792TIP3    H129867   4.237   3.157   3.850  0.1656 -0.6082  0.2621
 2792TIP3    H229868   4.114   3.192   3.768  0.9168  2.5840  0.3512
 2793TIP3   OH229869   4.783   6.844  15.669 -0.3420 -0.2486 -0.3506
 2793TIP3    H129870   4.715   6.811  15.610 -1.5541  1.6998 -0.1359
 2793TIP3    H229871   4.742   6.846  15.755  0.8469 -1.4036  0.2895
 2794TIP3   OH229872   6.562   5.183  13.968  0.7744 -0.0173  1.0158
 2794TIP3    H129873   6.530   5.237  13.896  0.8589  1.8805  2.3405
 2794TIP3    H229874   6.639   5.138  13.932 -0.0839 -0.3240 -0.5177
 2795TIP3   OH229875   2.583   2.858   2.662 -1.0443  0.0154 -1.2060
 2795TIP3    H129876   2.518   2.896   2.603 -0.5849 -0.3332 -1.9516
 2795TIP3    H229877   2.659   2.841   2.607 -0.6540 -0.4573 -0.5442
 2796TIP3   OH229878   4.281   0.058  14.963  0.1647  0.5149 -0.2908
 2796TIP3    H129879   4.292  -0.028  14.922 -0.0185  0.1273  0.4411
 2796TIP3    H229880   4.368   0.098  14.959  0.0712  0.6347 -1.3574
 2797TIP3   OH229881   0.257   1.460   3.708  0.0409 -0.2485 -0.5280
 2797TIP3    H129882   0.187   1.395   3.710 -0.8690  0.7129  0.1611
 2797TIP3    H229883   0.336   1.411   3.683 -0.8724 -1.3483 -1.3428
 2798TIP3   OH229884   1.815   2.644  14.557  0.2033  0.7544 -1.0688
 2798TIP3    H129885   1.732   2.611  14.524 -1.2481  2.4433  0.6610
 2798TIP3    H229886   1.818   2.735  14.529 -0.3329  1.7816  1.8574
 2799TIP3   OH229887   5.709   0.595  13.214 -0.1975  0.2388 -0.1894
 2799TIP3    H129888   5.678   0.521  13.163  2.9395  0.3862 -2.6145
 2799TIP3    H229889   5.653   0.668  13.188 -0.3170 -0.2770 -1.4443
 2800TIP3   OH229890   5.157   4.087   5.853 -0.2689 -0.2619 -0.0982
 2800TIP3    H129891   5.096   4.013   5.853 -0.2926 -0.2788 -1.5833
 2800TIP3    H229892   5.241   4.049   5.878 -0.7217 -0.3512  1.3715
 2801TIP3   OH229893   2.820   1.860   3.573 -0.0143  0.1307 -0.3501
 2801TIP3    H129894   2.751   1.912   3.615  0.0797 -0.6274  0.7745
 2801TIP3    H229895   2.901   1.907   3.591 -0.1541  0.6963 -1.1471
 2802TIP3   OH229896   4.887   2.606   2.612  0.0221 -0.3492 -0.6543
 2802TIP3    H129897   4.838   2.580   2.535 -3.2855 -0.0237  1.1814
 2802TIP3    H229898   4.848   2.557   2.685  1.3283  1.1726  1.2033
 2803TIP3   OH229899   6.456   3.510  11.055 -0.1610 -0.3976 -0.1786
 2803TIP3    H129900   6.404   3.481  11.130 -1.2887  0.5495 -0.5593
 2803TIP3    H229901   6.535   3.457  11.058 -1.2537 -2.0670  0.2960
 2804TIP3   OH229902   0.673   0.280   3.914  0.3256 -0.7459  0.2692
 2804TIP3    H129903   0.728   0.333   3.972  1.5031 -2.5834  0.9398
 2804TIP3    H229904   0.622   0.225   3.973 -1.3325  0.0316 -0.3900
 2805TIP3   OH229905   5.338   4.007   3.247 -0.4270 -0.8348  0.0950
 2805TIP3    H129906   5.414   4.057   3.217 -0.6538 -0.3732  0.2790
 2805TIP3    H229907   5.281   4.002   3.170 -0.2477 -1.1138 -0.0212
 2806TIP3   OH229908   6.355   1.672  12.128 -0.2664 -0.2862  0.2239
 2806TIP3    H129909   6.382   1.646  12.040 -0.1497  0.5022  0.0252
 2806TIP3    H229910   6.416   1.741  12.152 -1.5192  0.8841  0.1430
 2807TIP3   OH229911   5.343   3.301   6.573 -0.2253  0.5218 -0.5483
 2807TIP3    H129912   5.370   3.388   6.545  0.4451  0.1714 -1.0372
 2807TIP3    H229913   5.423   3.263   6.612 -0.6347  0.2987  0.0997
 2808TIP3   OH229914   5.415   2.548   0.466 -0.8696  0.4862 -0.4249
 2808TIP3    H129915   5.493   2.603   0.470 -0.7716  0.3228  0.0777
 2808TIP3    H229916   5.371   2.574   0.386 -0.2851  0.5621 -0.7253
 2809TIP3   OH229917   6.239   0.139  12.180  0.7841 -0.7121  0.1542
 2809TIP3    H129918   6.266   0.049  12.199  1.2317 -0.4647  0.7589
 2809TIP3    H229919   6.247   0.184  12.264 -1.8805 -0.6725  0.4802
 2810TIP3   OH229920   2.202   0.999  15.363 -0.2809  0.2883  0.0182
 2810TIP3    H129921   2.165   0.962  15.282 -0.4541 -1.0629  0.6884
 2810TIP3    H229922   2.133   0.987  15.428  0.6669 -0.6897  0.8830
 2811TIP3   OH229923   6.460   1.995  15.184  0.9194 -0.0378  0.5172
 2811TIP3    H129924   6.378   2.017  15.229 -1.2141 -4.5772 -0.5264
 2811TIP3    H229925   6.456   2.044  15.102 -0.8993 -0.2622  0.4210
 2812TIP3   OH229926   1.911   2.483   2.741 -0.4498  0.3247 -0.4407
 2812TIP3    H129927   1.837   2.537   2.769 -1.1837 -1.5903  1.5674
 2812TIP3    H229928   1.988   2.530   2.772 -0.7230  2.3346 -2.5354
 2813TIP3   OH229929   4.178   3.816   5.971 -0.1059 -0.0974 -0.1661
 2813TIP3    H129930   4.184   3.722   5.952  0.7298  0.2420 -1.8289
 2813TIP3    H229931   4.262   3.837   6.012 -0.4453 -0.1275  0.5645
 2814TIP3   OH229932   6.045   3.586  14.156  0.0497  0.0524 -0.1095
 2814TIP3    H129933   5.957   3.592  14.120 -0.1730 -2.6425 -0.1984
 2814TIP3    H229934   6.102   3.599  14.080 -0.2874  0.2896 -0.3273
 2815TIP3   OH229935   6.543   5.621  16.069  0.0970  0.7878  0.0400
 2815TIP3    H129936   6.564   5.596  16.159  1.5186  0.1241 -0.4481
 2815TIP3    H229937   6.624   5.605  16.020 -1.2462 -0.9797 -1.7900
 2816TIP3   OH229938   5.887   2.936   5.787 -0.1059 -0.0263  0.3851
 2816TIP3    H129939   5.911   2.929   5.879 -0.7130  0.1242  0.5613
 2816TIP3    H229940   5.807   2.884   5.779  0.1664 -0.3642 -0.1421
 2817TIP3   OH229941   6.425   1.511   4.287  0.3271  0.2168  0.1801
 2817TIP3    H129942   6.371   1.433   4.273  0.8713  0.1864 -2.1562
 2817TIP3    H229943   6.370   1.583   4.255  1.5175  0.2046 -2.0787
 2818TIP3   OH229944   3.803   4.606   5.851 -0.0589 -0.1335 -0.4545
 2818TIP3    H129945   3.822   4.545   5.923 -0.3492  2.2099  1.7532
 2818TIP3    H229946   3.828   4.692   5.885  0.4471  1.0369 -3.4730
 2819TIP3   OH229947   6.725   3.487  12.317 -1.3899 -0.4555 -0.0533
 2819TIP3    H129948   6.794   3.423  12.335  0.9965  2.1299  0.7114
 2819TIP3    H229949   6.769   3.571  12.319 -4.1634  1.2252 -2.0659
 2820TIP3   OH229950   2.265   0.786   6.328 -0.4589 -0.2734 -0.8729
 2820TIP3    H129951   2.192   0.839   6.360 -1.2367  0.1287 -3.1091
 2820TIP3    H229952   2.330   0.851   6.299  0.3077 -0.6199  0.0213
 2821TIP3   OH229953   0.239   3.027  12.364  0.0476  0.5674 -0.0758
 2821TIP3    H129954   0.260   2.982  12.283  3.6602  0.5921  0.6723
 2821TIP3    H229955   0.271   3.117  12.351  0.6712  0.5812  1.3242
 2822TIP3   OH229956   0.840   1.228   1.247  0.1563  0.4954  0.0481
 2822TIP3    H129957   0.796   1.245   1.164 -1.1627  0.2998  0.6797
 2822TIP3    H229958   0.789   1.277   1.312 -0.3738 -1.3768  1.0998
 2823TIP3   OH229959   4.918   4.601   0.539  0.3925 -0.1479 -0.2667
 2823TIP3    H129960   4.948   4.690   0.522 -0.3788  0.1661  0.0222
 2823TIP3    H229961   4.995   4.557   0.576  1.1964  0.0043 -1.6599
 2824TIP3   OH229962   6.784   0.930  12.229  0.0621 -0.3655 -0.4000
 2824TIP3    H129963   6.741   1.015  12.229 -1.7274 -1.2231 -1.6141
 2824TIP3    H229964   6.860   0.942  12.288 -0.9741  1.6069  0.6455
 2825TIP3   OH229965   5.941   3.075  14.238  0.8810 -0.2878  0.7730
 2825TIP3    H129966   6.000   3.115  14.174  0.9347 -3.4348 -1.3813
 2825TIP3    H229967   5.865   3.046  14.186 -0.4256 -0.4818  2.6694
 2826TIP3   OH229968   2.552   4.525  16.851  0.3649 -0.2335  0.1986
 2826TIP3    H129969   2.600   4.546  16.770 -2.1725  1.4738 -1.0061
 2826TIP3    H229970   2.576   4.596  16.911 -1.3014  1.2357 -0.7661
 2827TIP3   OH229971   2.121   6.833  15.441  0.9879  0.2111 -0.3466
 2827TIP3    H129972   2.117   6.740  15.466  5.1780 -0.0938  0.0314
 2827TIP3    H229973   2.141   6.832  15.348 -2.4158  0.9759 -1.1929
 2828TIP3   OH229974   1.300   0.637   6.109 -0.3944 -0.4887  0.7582
 2828TIP3    H129975   1.307   0.657   6.016  0.2511  0.1910  0.9423
 2828TIP3    H229976   1.262   0.716   6.148  1.3195  0.0920  1.3564
 2829TIP3   OH229977   3.195   6.228  11.532  0.1815  0.2001  0.2726
 2829TIP3    H129978   3.245   6.273  11.465  1.4203 -0.6059  0.6137
 2829TIP3    H229979   3.260   6.176  11.580 -0.4693  1.4775  2.7418
 2830TIP3   OH229980   3.487   5.503  13.012 -0.1171  0.5325  0.6932
 2830TIP3    H129981   3.575   5.536  12.993 -0.3406  1.3226  0.9623
 2830TIP3    H229982   3.498   5.447  13.089  0.2619  0.0225  0.2723
 2831TIP3   OH229983   4.515   0.436  12.087  0.3119 -0.3878 -0.2114
 2831TIP3    H129984   4.430   0.476  12.103  0.6074 -0.8896  3.3601
 2831TIP3    H229985   4.494   0.349  12.051 -0.6866 -0.3899  0.3290
 2832TIP3   OH229986   6.145   0.226  11.897  0.7750 -0.0168  0.6720
 2832TIP3    H129987   6.182   0.142  11.870  1.3155  0.0187  1.2877
 2832TIP3    H229988   6.202   0.256  11.967 -0.0516  0.3495  1.2012
 2833TIP3   OH229989   5.637   5.895   5.351  0.0070  0.1841  0.4017
 2833TIP3    H129990   5.724   5.936   5.355 -0.8594  2.0820  1.2246
 2833TIP3    H229991   5.638   5.842   5.271  1.5652  0.9885 -0.1421
 2834TIP3   OH229992   5.702   3.353  14.933  0.0347  0.2191 -0.7760
 2834TIP3    H129993   5.747   3.436  14.949 -0.5444  0.8902 -2.3752
 2834TIP3    H229994   5.640   3.373  14.862 -1.2840 -1.1811 -0.0777
 2835TIP3   OH229995   4.721   6.563   0.699  0.7754 -0.0344 -0.0668
 2835TIP3    H129996   4.687   6.591   0.784 -0.7565  0.5447 -0.8365
 2835TIP3    H229997   4.789   6.499   0.720 -1.0258 -1.5032  1.5446
 2836TIP3   OH229998   6.798   4.345  14.920  0.1725 -0.0428  0.1168
 2836TIP3    H129999   6.714   4.324  14.961  0.8338 -3.7888 -0.0967
 2836TIP3    H230000   6.826   4.427  14.961 -2.5940  0.2066  1.6815
 2837TIP3   OH230001   5.807   1.229  14.695 -0.1727 -0.1333 -0.2554
 2837TIP3    H130002   5.851   1.284  14.760 -0.2873 -1.8851  1.4022
 2837TIP3    H230003   5.868   1.158  14.678 -0.9190 -0.7089 -0.5924
 2838TIP3   OH230004   4.067   0.971  14.975  0.2500 -0.0683 -0.1459
 2838TIP3    H130005   4.000   0.977  14.907 -1.0185 -0.2103  1.0402
 2838TIP3    H230006   4.150   0.989  14.929 -0.5245 -0.3853 -1.7454
 2839TIP3   OH230007   6.311   1.321  10.953  0.1782 -0.4462 -0.5616
 2839TIP3    H130008   6.265   1.327  10.869  0.1069 -2.6681 -0.7423
 2839TIP3    H230009   6.242   1.311  11.018  0.1536  2.5534  0.0161
 2840TIP3   OH230010   6.753   0.866  14.021 -0.1763 -0.0522 -0.1536
 2840TIP3    H130011   6.713   0.779  14.012 -0.0075 -0.1656  0.1445
 2840TIP3    H230012   6.825   0.852  14.083  0.5128  0.0820 -0.9140
 2841TIP3   OH230013   0.359   0.038  11.848  0.4192 -0.2411 -0.4363
 2841TIP3    H130014   0.348  -0.055  11.828  0.7595 -0.5481  0.7276
 2841TIP3    H230015   0.450   0.046  11.875  0.3985  0.4453 -0.5593
 2842TIP3   OH230016   6.494   0.637   1.396  0.1817  0.0545 -0.0063
 2842TIP3    H130017   6.440   0.695   1.450 -0.2473 -0.5831  0.2548
 2842TIP3    H230018   6.522   0.568   1.456  3.0791  1.4647  0.4514
 2843TIP3   OH230019   2.648   0.916  15.178  0.3453  0.0015 -0.7270
 2843TIP3    H130020   2.596   0.884  15.252 -0.0340  1.4229 -0.3564
 2843TIP3    H230021   2.711   0.845  15.161  0.8165 -0.1281  1.3193
 2844TIP3   OH230022   3.883   5.796   5.236 -0.4296 -0.2047 -0.3482
 2844TIP3    H130023   3.945   5.867   5.249 -0.3214 -0.2328 -0.6872
 2844TIP3    H230024   3.835   5.821   5.156 -0.8829 -0.1601 -0.0657
 2845TIP3   OH230025   0.849   4.567  15.121  0.6306  0.0466 -0.7347
 2845TIP3    H130026   0.913   4.531  15.182 -0.8193 -1.6871 -0.1736
 2845TIP3    H230027   0.894   4.567  15.036  1.8264  0.1646 -0.1209
 2846TIP3   OH230028   4.812   6.293  16.498  0.3437  0.0736 -0.0825
 2846TIP3    H130029   4.830   6.347  16.421  0.5410  0.5287  0.2767
 2846TIP3    H230030   4.751   6.344  16.550  2.8456  1.4025  1.7658
 2847TIP3   OH230031   0.264   1.540  13.108  0.0045  0.1744 -0.3056
 2847TIP3    H130032   0.209   1.618  13.119 -1.1055 -0.6609  0.1786
 2847TIP3    H230033   0.202   1.468  13.099  0.9943 -0.5172 -2.0838
 2848TIP3   OH230034   3.451   1.490   4.987 -0.2048 -0.5981  0.7683
 2848TIP3    H130035   3.441   1.403   4.948 -0.0149 -0.4064  0.2864
 2848TIP3    H230036   3.368   1.505   5.032 -0.1763 -1.0977  0.9965
 2849TIP3   OH230037   4.048   0.347  16.584 -0.4012 -0.0781  0.1022
 2849TIP3    H130038   4.039   0.301  16.500 -1.7772 -1.2698  0.8735
 2849TIP3    H230039   4.129   0.313  16.621  0.3610  0.6484 -0.8276
 2850TIP3   OH230040   5.464   1.317   3.950 -0.3389  0.0665  0.2776
 2850TIP3    H130041   5.436   1.313   3.859  0.4266  1.0453 -0.0196
 2850TIP3    H230042   5.439   1.405   3.980 -0.0692 -0.0359  0.8332
 2851TIP3   OH230043   4.802   2.070  15.696 -0.2114  0.0377  0.0304
 2851TIP3    H130044   4.861   2.002  15.665 -0.8402  0.1970 -1.5936
 2851TIP3    H230045   4.739   2.023  15.752  0.3035 -0.4310  0.2223
 2852TIP3   OH230046   1.380   0.527  14.026  0.6695  0.2586 -0.7313
 2852TIP3    H130047   1.450   0.464  14.009  0.8340  0.6294 -1.4620
 2852TIP3    H230048   1.410   0.608  13.986 -0.0356  0.5093 -0.7689
 2853TIP3   OH230049   2.244   3.563  16.429  0.2949 -0.6383  0.0002
 2853TIP3    H130050   2.211   3.520  16.351  1.7403 -0.5246 -0.7154
 2853TIP3    H230051   2.251   3.655  16.405  1.1340 -0.6652  0.1008
 2854TIP3   OH230052   2.385   0.610  15.985  0.0100  0.0146  0.9131
 2854TIP3    H130053   2.456   0.662  16.021  0.4761 -0.6313  0.9487
 2854TIP3    H230054   2.412   0.592  15.895 -1.5497  2.3770 -0.1428
 2855TIP3   OH230055   4.849   4.209   2.527  0.1484 -0.3772  0.4591
 2855TIP3    H130056   4.789   4.282   2.514 -1.3464 -1.3326  1.6175
 2855TIP3    H230057   4.879   4.218   2.617  0.5356 -0.7825  0.3764
 2856TIP3   OH230058   0.232   3.595   3.041  0.2541 -0.7870 -0.0577
 2856TIP3    H130059   0.253   3.651   2.966  1.5105 -0.3434  0.5890
 2856TIP3    H230060   0.219   3.656   3.114 -0.7770 -1.2216  0.1444
 2857TIP3   OH230061   2.877   2.974   3.728 -0.2182  0.6350 -0.2735
 2857TIP3    H130062   2.784   2.955   3.722 -0.5809  2.0228  0.4681
 2857TIP3    H230063   2.900   3.006   3.641 -0.9128  2.1488  0.0695
 2858TIP3   OH230064   0.808   6.714   5.577 -0.0675 -1.0072 -0.5875
 2858TIP3    H130065   0.880   6.741   5.635 -1.3228 -0.5881  0.8556
 2858TIP3    H230066   0.846   6.716   5.489  1.6064 -0.5504  0.0949
 2859TIP3   OH230067   5.859   5.471  16.822 -0.1653 -0.4681 -0.0103
 2859TIP3    H130068   5.797   5.536  16.789 -0.4744 -0.2160  1.0436
 2859TIP3    H230069   5.941   5.490  16.775 -0.7708 -0.5714 -1.1313
 2860TIP3   OH230070   3.018   2.587  11.442  0.5589  0.0602  0.2792
 2860TIP3    H130071   2.946   2.645  11.417 -0.7290 -0.7403  1.8921
 2860TIP3    H230072   3.076   2.643  11.494 -0.3359  0.0941  1.2767
 2861TIP3   OH230073   2.581   0.281  14.363 -0.1163  0.2916  0.0103
 2861TIP3    H130074   2.504   0.240  14.404 -0.9442 -1.9560 -3.3028
 2861TIP3    H230075   2.635   0.207  14.335  2.2001  1.7849  0.2858
 2862TIP3   OH230076   2.136   0.819  12.450  0.0879  0.3112 -0.0204
 2862TIP3    H130077   2.185   0.880  12.395  2.6603 -1.6691 -0.0702
 2862TIP3    H230078   2.070   0.874  12.493 -0.0586  2.4556 -2.7025
 2863TIP3   OH230079   6.315   5.162   0.132 -0.6194 -0.7087 -0.1142
 2863TIP3    H130080   6.249   5.148   0.199  1.1974 -1.5181  1.6221
 2863TIP3    H230081   6.383   5.213   0.176 -0.9584  2.0407 -2.4467
 2864TIP3   OH230082   3.245   2.845  11.783  0.1099  0.4748 -0.1575
 2864TIP3    H130083   3.224   2.797  11.703 -1.7758 -0.5343  0.8732
 2864TIP3    H230084   3.182   2.813  11.848  1.4765  1.3738  1.7071
 2865TIP3   OH230085   4.967   3.581   5.898  0.0133 -0.0684 -0.9197
 2865TIP3    H130086   5.015   3.567   5.980  0.3229 -1.2906 -1.2958
 2865TIP3    H230087   4.875   3.582   5.925  0.1531  0.4992 -0.4357
 2866TIP3   OH230088   2.442   5.859   4.936  0.2745 -0.0355 -0.3947
 2866TIP3    H130089   2.481   5.877   4.850 -0.0883  0.3728 -0.4742
 2866TIP3    H230090   2.503   5.899   4.998  0.1344  0.3553 -0.5051
 2867TIP3   OH230091   6.797   4.688   1.160 -0.3758  0.1953 -0.5896
 2867TIP3    H130092   6.774   4.767   1.209  2.7300  1.0468 -0.3257
 2867TIP3    H230093   6.891   4.678   1.173 -0.1894 -1.9849 -2.9111
 2868TIP3   OH230094   0.508   1.310   4.071  0.6549 -0.2665 -0.3172
 2868TIP3    H130095   0.443   1.263   4.018 -1.6347  0.3725  1.7227
 2868TIP3    H230096   0.509   1.399   4.034 -0.1118 -0.1212 -0.0191
 2869TIP3   OH230097   5.623   5.372  11.680 -0.3594 -0.0736 -0.0414
 2869TIP3    H130098   5.687   5.382  11.750 -0.7994  0.4432  0.2992
 2869TIP3    H230099   5.645   5.440  11.617 -1.5582  1.2108  0.8665
 2870TIP3   OH230100   3.122   0.972   4.491 -0.0402  0.1092  0.1907
 2870TIP3    H130101   3.060   0.977   4.418 -1.6806 -0.3098  1.4869
 2870TIP3    H230102   3.185   0.905   4.464 -0.7344 -0.1892 -0.7688
 2871TIP3   OH230103   2.661   2.459  13.975  0.5717  0.5293  0.2653
 2871TIP3    H130104   2.586   2.466  13.915  1.2170 -0.9401 -0.7750
 2871TIP3    H230105   2.649   2.531  14.037 -1.3763  0.6917 -0.2337
 2872TIP3   OH230106   6.630   2.494  15.671  0.3117 -0.2398  0.1426
 2872TIP3    H130107   6.537   2.494  15.648  0.2046 -0.6996  0.5496
 2872TIP3    H230108   6.640   2.417  15.728  1.4746 -1.7669 -1.9822
 2873TIP3   OH230109   4.203   1.187  12.456 -0.5876 -0.4892  0.3056
 2873TIP3    H130110   4.156   1.250  12.401  2.6911  1.4897 -0.5239
 2873TIP3    H230111   4.223   1.115  12.396 -0.9807 -0.5077  0.1899
 2874TIP3   OH230112   6.314   0.895  16.771  0.1043  0.8691  0.5362
 2874TIP3    H130113   6.394   0.850  16.800  0.1782  0.1102 -0.7922
 2874TIP3    H230114   6.345   0.977  16.734  0.4065  0.1303 -0.9226
 2875TIP3   OH230115   0.324   1.840  11.201  0.1840  0.1632  0.0497
 2875TIP3    H130116   0.408   1.829  11.156  2.4078  0.6632  3.6616
 2875TIP3    H230117   0.301   1.932  11.186  0.3440  0.0693 -0.8198
 2876TIP3   OH230118   6.120   6.133   5.521  0.1358 -0.3403  0.0193
 2876TIP3    H130119   6.093   6.041   5.527 -0.9379 -0.3091 -2.7731
 2876TIP3    H230120   6.040   6.183   5.538  0.6605  0.1174  1.2652
 2877TIP3   OH230121   4.196   5.640  12.319  0.1019  0.1135  0.3265
 2877TIP3    H130122   4.252   5.718  12.317  0.2865 -0.0328 -0.3944
 2877TIP3    H230123   4.143   5.651  12.397  0.2070  0.9112  0.2915
 2878TIP3   OH230124   3.601   6.145  12.324 -0.2788  0.7025  0.1310
 2878TIP3    H130125   3.558   6.182  12.247 -0.7068 -1.3263 -0.6598
 2878TIP3    H230126   3.529   6.131  12.386 -0.3874 -0.2486 -0.1924
 2879TIP3   OH230127   5.795   1.138   5.813 -0.5628 -0.1588  0.7132
 2879TIP3    H130128   5.790   1.056   5.763  0.0925  0.5459 -0.5561
 2879TIP3    H230129   5.735   1.125   5.886 -2.6128 -0.7384 -0.9742
 2880TIP3   OH230130   4.725   0.515   5.803 -0.3288  0.7327 -0.0312
 2880TIP3    H130131   4.730   0.433   5.852 -1.3352  1.3025  1.0992
 2880TIP3    H230132   4.632   0.528   5.787 -0.1267  1.3129 -0.8196
 2881TIP3   OH230133   4.582   4.875  11.761  0.1029 -0.0481 -0.0686
 2881TIP3    H130134   4.566   4.790  11.803  0.9061 -1.7823 -2.9420
 2881TIP3    H230135   4.677   4.879  11.751  0.3527  2.5349  2.3922
 2882TIP3   OH230136   4.011   3.802   3.289  0.1612  0.0022 -0.1597
 2882TIP3    H130137   4.010   3.712   3.256  1.1068  0.6925 -2.2435
 2882TIP3    H230138   3.949   3.849   3.232  2.4404  1.4083 -1.6427
 2883TIP3   OH230139   2.153   1.976   0.188  0.3391  0.2070 -0.3903
 2883TIP3    H130140   2.058   1.980   0.184  0.3529  1.7904  0.4506
 2883TIP3    H230141   2.183   2.060   0.153  1.4563 -0.4462 -1.0712
 2884TIP3   OH230142   4.819   5.823   5.446  0.0401 -0.4539  0.1526
 2884TIP3    H130143   4.731   5.798   5.473 -0.3335 -0.0494 -0.6595
 2884TIP3    H230144   4.823   5.918   5.461  0.5109 -0.5473  0.6500
 2885TIP3   OH230145   0.547   6.309  14.476 -0.4763  0.1014  0.4175
 2885TIP3    H130146   0.571   6.351  14.558  0.1922 -0.7390  0.6709
 2885TIP3    H230147   0.631   6.287  14.434 -0.8080  0.4228 -0.4371
 2886TIP3   OH230148   1.815   6.086   3.174  0.4305 -0.3963  0.7157
 2886TIP3    H130149   1.764   6.059   3.251  0.8596  0.4220  1.3065
 2886TIP3    H230150   1.781   6.172   3.151 -2.4991 -2.1553 -2.5539
 2887TIP3   OH230151   6.464   5.358   5.992 -0.6151  0.3685  0.0062
 2887TIP3    H130152   6.414   5.290   5.946 -0.2576 -0.7609  1.2174
 2887TIP3    H230153   6.477   5.323   6.080  2.7122  0.3511 -0.3510
 2888TIP3   OH230154   0.448   2.288   1.347  0.1283 -0.5928  0.1370
 2888TIP3    H130155   0.368   2.276   1.398 -0.1326 -1.6800 -0.5007
 2888TIP3    H230156   0.425   2.356   1.283  0.1162 -0.0082  0.7509
 2889TIP3   OH230157   2.622   2.193   2.702  0.1481  0.2064 -0.3953
 2889TIP3    H130158   2.538   2.228   2.731  0.0484  1.2711 -1.8683
 2889TIP3    H230159   2.659   2.261   2.647  1.9139 -0.3233  0.0749
 2890TIP3   OH230160   0.216   1.257   1.379  0.4244 -0.5180 -0.3926
 2890TIP3    H130161   0.148   1.313   1.342  0.4799  0.5191  1.0060
 2890TIP3    H230162   0.191   1.168   1.352 -0.7594 -0.0292 -0.9777
 2891TIP3   OH230163   0.846   6.485  13.732  0.2619  0.0335 -0.2208
 2891TIP3    H130164   0.879   6.434  13.658  0.8162  0.3812 -0.2238
 2891TIP3    H230165   0.890   6.447  13.808 -0.4680 -0.4606 -0.0405
 2892TIP3   OH230166   3.789   1.537   4.579  0.6104 -0.2955  0.1709
 2892TIP3    H130167   3.746   1.538   4.664  1.0468  1.4297  0.4068
 2892TIP3    H230168   3.719   1.552   4.516  0.0597 -2.9353  0.0468
 2893TIP3   OH230169   1.579   6.658  15.085 -0.0280 -0.7784 -0.0962
 2893TIP3    H130170   1.659   6.688  15.040  0.2426 -1.1683  0.1249
 2893TIP3    H230171   1.580   6.563  15.076  1.1916 -1.1155  2.6233
 2894TIP3   OH230172   6.605   5.181   6.200 -0.4375 -0.0631  0.3004
 2894TIP3    H130173   6.698   5.184   6.181 -0.3662 -0.4910  0.5819
 2894TIP3    H230174   6.591   5.253   6.263 -0.0166 -0.9521  1.4464
 2895TIP3   OH230175   1.037   3.345  15.940  0.2147  0.0628  0.3369
 2895TIP3    H130176   1.106   3.340  16.006 -0.9617  0.2385  1.6262
 2895TIP3    H230177   1.049   3.431  15.899 -0.1280  0.7139  1.5751
 2896TIP3   OH230178   0.562   0.665  14.319  0.6637 -0.7918  0.4020
 2896TIP3    H130179   0.600   0.638  14.402 -0.0025  0.3874  1.1199
 2896TIP3    H230180   0.617   0.737  14.289 -0.9840  1.0693  1.5504
 2897TIP3   OH230181   0.081   2.106  13.257  0.6087 -0.3663  0.5817
 2897TIP3    H130182   0.022   2.063  13.196  0.7917  1.2073 -0.7870
 2897TIP3    H230183   0.040   2.094  13.343 -0.8631 -0.6920 -0.1323
 2898TIP3   OH230184   5.213   2.233  10.835  0.2120  0.0415 -0.7587
 2898TIP3    H130185   5.138   2.239  10.895 -0.0675  1.8174 -1.2199
 2898TIP3    H230186   5.177   2.197  10.754  0.7786 -3.3151  0.3305
 2899TIP3   OH230187   6.019   5.175  17.110  0.3490 -0.3889  0.2832
 2899TIP3    H130188   6.062   5.136  17.034  1.2298 -0.6649  0.9042
 2899TIP3    H230189   6.052   5.125  17.185 -0.8408 -0.4142  0.8158
 2900TIP3   OH230190   3.716   6.261  11.918  0.0179  0.4942 -0.5415
 2900TIP3    H130191   3.740   6.344  11.958 -0.7740  0.2415  0.5085
 2900TIP3    H230192   3.798   6.212  11.911  0.6102  1.6099 -1.8179
 2901TIP3   OH230193   0.348   1.054  10.257  0.1976  0.0636  0.3928
 2901TIP3    H130194   0.340   1.149  10.247 -1.2913 -0.1134 -0.3496
 2901TIP3    H230195   0.441   1.039  10.272  0.4688  1.6278  0.4085
 2902TIP3   OH230196   3.016   1.015   3.257  0.3209  0.3048 -0.1579
 2902TIP3    H130197   3.058   1.100   3.267  0.8406  0.0503 -0.1544
 2902TIP3    H230198   2.935   1.033   3.209 -1.3082  1.3080  2.7233
 2903TIP3   OH230199   1.891   5.481   6.386  0.1268 -0.0388  0.1548
 2903TIP3    H130200   1.924   5.437   6.307 -1.0562 -2.4781  0.9042
 2903TIP3    H230201   1.866   5.568   6.357  1.7398 -0.1194 -1.6633
 2904TIP3   OH230202   3.439   6.389  17.078  0.2860 -0.1818 -0.1989
 2904TIP3    H130203   3.434   6.470  17.129 -1.0085 -1.4788  1.8713
 2904TIP3    H230204   3.516   6.401  17.021 -1.0954  3.3555 -1.6299
 2905TIP3   OH230205   2.633   2.596   5.937  0.1701  0.5171  0.6683
 2905TIP3    H130206   2.573   2.668   5.956  1.5929  1.9448 -0.0314
 2905TIP3    H230207   2.715   2.639   5.914  0.8604 -1.3152 -0.5048
 2906TIP3   OH230208   2.800   2.456  12.257  0.3443 -0.5894  0.2855
 2906TIP3    H130209   2.749   2.385  12.297  1.2040 -0.9905  0.6975
 2906TIP3    H230210   2.879   2.414  12.224  0.5934  0.0832 -0.0027
 2907TIP3   OH230211   0.506   5.452  11.600  0.0877  0.3151  0.2948
 2907TIP3    H130212   0.568   5.421  11.535  0.8571  1.6470  0.3556
 2907TIP3    H230213   0.553   5.521  11.647 -1.1018  0.6784  0.9936
 2908TIP3   OH230214   1.527   2.507  11.540 -0.1566 -0.0423 -0.0065
 2908TIP3    H130215   1.461   2.444  11.511  0.0102 -1.3412  2.1960
 2908TIP3    H230216   1.484   2.558  11.609  0.7513 -0.1287  0.6503
 2909TIP3   OH230217   1.899   2.499   0.159 -0.0277 -0.3459  0.3878
 2909TIP3    H130218   1.806   2.517   0.161  0.0286  0.3988 -1.7862
 2909TIP3    H230219   1.906   2.413   0.116  0.3515  0.6618 -1.6724
 2910TIP3   OH230220   5.738   4.376   4.543  0.4090 -0.0156  0.4197
 2910TIP3    H130221   5.786   4.402   4.622  0.3898 -0.6807  0.6628
 2910TIP3    H230222   5.794   4.309   4.503  0.4347  0.3440 -0.1512
 2911TIP3   OH230223   5.155   4.890   6.612 -0.4671 -0.7788  0.1211
 2911TIP3    H130224   5.235   4.935   6.640 -0.4683 -0.5323 -0.2714
 2911TIP3    H230225   5.084   4.939   6.654 -0.3653 -1.7028  1.4407
 2912TIP3   OH230226   2.683   0.817  15.665  0.7471 -0.7856  0.8498
 2912TIP3    H130227   2.761   0.797  15.716  0.2952 -2.4873  0.9060
 2912TIP3    H230228   2.713   0.815  15.574  1.0622  0.0379  0.9216
 2913TIP3   OH230229   3.249   5.588  11.556 -0.0338 -0.0747 -0.1460
 2913TIP3    H130230   3.320   5.529  11.531 -1.2729 -1.6242 -0.1753
 2913TIP3    H230231   3.197   5.597  11.476 -0.2040  0.5464  0.0362
 2914TIP3   OH230232   1.295   2.108   2.279  0.3128 -0.5752 -0.2373
 2914TIP3    H130233   1.308   2.202   2.294  1.7203 -0.6041 -1.0855
 2914TIP3    H230234   1.267   2.074   2.364  0.8428  0.4328  0.3673
 2915TIP3   OH230235   5.877   5.805   4.702 -0.0562  0.1208  0.1778
 2915TIP3    H130236   5.857   5.833   4.791  0.5357  0.7865  0.1118
 2915TIP3    H230237   5.870   5.885   4.649 -1.3388 -0.4435 -0.5428
 2916TIP3   OH230238   2.314   2.124  12.558  0.0315  0.0687  0.0176
 2916TIP3    H130239   2.268   2.105  12.639 -0.9130 -2.7668 -1.0755
 2916TIP3    H230240   2.244   2.142  12.494  0.6858  0.6734 -0.5508
 2917TIP3   OH230241   5.873   3.506  16.882 -0.0407  0.1142 -0.2384
 2917TIP3    H130242   5.804   3.570  16.898  1.0399  1.0110  1.0007
 2917TIP3    H230243   5.940   3.554  16.834  0.3479 -0.3643 -0.1806
 2918TIP3   OH230244   5.049   3.092   4.849  0.1531 -0.0569 -0.0982
 2918TIP3    H130245   4.969   3.143   4.851  0.1930 -0.0258  1.2075
 2918TIP3    H230246   5.084   3.105   4.760 -0.5326  1.0770 -0.2113
 2919TIP3   OH230247   1.895   1.986  15.042  0.6114  0.8692 -0.4897
 2919TIP3    H130248   1.934   1.960  15.126  2.4569  1.8017 -1.0065
 2919TIP3    H230249   1.835   2.057  15.065 -0.4425 -0.2183  0.2578
 2920TIP3   OH230250   0.293   0.194  11.185 -0.0844  0.3911 -0.0815
 2920TIP3    H130251   0.297   0.116  11.130 -0.5786 -0.5988  1.2405
 2920TIP3    H230252   0.259   0.263  11.126  2.2775  0.1843 -1.8195
 2921TIP3   OH230253   1.081   2.807  16.225  0.6219 -0.1799  0.4045
 2921TIP3    H130254   1.069   2.718  16.192  0.9444 -1.1996  2.8205
 2921TIP3    H230255   1.175   2.825  16.213  0.1665  0.9048 -2.3588
 2922TIP3   OH230256   6.235   3.070   4.674 -0.0424 -0.0963  0.2450
 2922TIP3    H130257   6.179   2.993   4.680 -0.1266 -0.0339  0.2637
 2922TIP3    H230258   6.303   3.055   4.739  0.3982 -0.5262 -0.3039
 2923TIP3   OH230259   0.094   2.329  15.235  1.1104  0.7174  0.0264
 2923TIP3    H130260   0.028   2.299  15.298  1.9373 -0.4586  0.3739
 2923TIP3    H230261   0.141   2.398  15.281 -0.0135  1.7381 -0.3136
 2924TIP3   OH230262   3.659   1.297   3.799  0.3440 -0.2534  0.4311
 2924TIP3    H130263   3.726   1.240   3.761  0.8983 -0.3831  1.5805
 2924TIP3    H230264   3.670   1.381   3.753  0.0245 -0.8190 -0.7270
 2925TIP3   OH230265   4.702   1.137   3.572  0.4482 -0.6230 -0.4222
 2925TIP3    H130266   4.628   1.077   3.581  0.2108 -0.1820  0.9210
 2925TIP3    H230267   4.724   1.135   3.479  0.9536 -3.3614 -0.3029
 2926TIP3   OH230268   2.178   0.307  13.950 -0.0735  0.3377 -0.1675
 2926TIP3    H130269   2.203   0.219  13.976  1.5758  0.2683 -1.8254
 2926TIP3    H230270   2.260   0.356  13.947 -0.7730  1.5384 -0.6824
 2927TIP3   OH230271   1.866   6.833   0.489  0.6835 -0.3477 -0.2395
 2927TIP3    H130272   1.774   6.850   0.471  0.5156 -1.6223 -0.6281
 2927TIP3    H230273   1.866   6.762   0.553  1.3968  0.3802  0.6216
 2928TIP3   OH230274   1.050   2.046  10.872  0.4445  0.1147  0.5154
 2928TIP3    H130275   1.099   2.028  10.791 -1.6740 -0.6559 -0.6675
 2928TIP3    H230276   1.096   2.122  10.910  3.0912 -1.1095  0.0311
 2929TIP3   OH230277   3.568   2.070  12.640  0.0600  0.1105  0.1993
 2929TIP3    H130278   3.550   1.996  12.582  0.9513  0.4357 -0.5358
 2929TIP3    H230279   3.543   2.040  12.727 -1.0359 -0.5023 -0.3049
 2930TIP3   OH230280   2.659   3.164  16.661  0.0069  0.0734 -0.0587
 2930TIP3    H130281   2.622   3.169  16.749 -0.3179  1.5837 -0.2599
 2930TIP3    H230282   2.601   3.104  16.614 -0.2360 -0.1672  0.5362
 2931TIP3   OH230283   4.968   5.128   4.165 -0.2585  0.3825 -0.4806
 2931TIP3    H130284   4.883   5.093   4.191 -0.4126  0.4221 -0.9222
 2931TIP3    H230285   4.990   5.190   4.234  0.8313 -1.7905  1.2548
 2932TIP3   OH230286   4.423   0.241  13.651  0.1663  0.0445 -0.0348
 2932TIP3    H130287   4.478   0.312  13.684 -1.1737  1.3448 -0.5198
 2932TIP3    H230288   4.378   0.207  13.728  0.3011  0.1524  0.0921
 2933TIP3   OH230289   6.275   4.863   5.115  0.1411  0.6705  0.1047
 2933TIP3    H130290   6.229   4.947   5.123 -0.8928  0.0404  1.2601
 2933TIP3    H230291   6.241   4.810   5.188  1.4972 -0.4172 -0.0074
 2934TIP3   OH230292   1.878   6.010   2.827 -0.3076 -0.1888  0.0647
 2934TIP3    H130293   1.968   5.995   2.798 -0.6541 -0.8269 -0.7406
 2934TIP3    H230294   1.884   6.019   2.922  0.7527  1.0145 -0.0851
 2935TIP3   OH230295   6.672   4.106   2.790 -0.1234  0.1690 -0.2289
 2935TIP3    H130296   6.642   4.119   2.700 -2.3543  1.5438  0.6209
 2935TIP3    H230297   6.742   4.042   2.783 -1.2718 -0.9468 -2.7901
 2936TIP3   OH230298   2.850   0.337   5.811  0.6891 -0.5355 -0.2731
 2936TIP3    H130299   2.875   0.373   5.725  0.3813  0.1028 -0.1051
 2936TIP3    H230300   2.854   0.413   5.870 -0.8611 -0.5600 -0.0810
 2937TIP3   OH230301   2.029   4.085   2.918  0.2785 -0.3799  0.0133
 2937TIP3    H130302   1.974   4.144   2.969  0.1024  0.0893 -0.7081
 2937TIP3    H230303   2.097   4.056   2.980 -0.7557 -0.9727  0.9150
 2938TIP3   OH230304   6.848   2.323  15.836  0.3900  0.0914 -0.5341
 2938TIP3    H130305   6.761   2.284  15.824  0.0834  0.5045  0.2720
 2938TIP3    H230306   6.861   2.323  15.931  1.3376 -0.1063 -0.6611
 2939TIP3   OH230307   5.125   4.578  14.721 -0.7274 -0.7601  0.3049
 2939TIP3    H130308   5.153   4.646  14.783 -0.9928  0.1837 -0.5722
 2939TIP3    H230309   5.032   4.566  14.739 -1.0261  0.1943 -0.4998
 2940TIP3   OH230310   1.273   6.602   6.337 -0.0056 -0.2675  0.5662
 2940TIP3    H130311   1.360   6.603   6.299 -1.1371 -1.1615 -2.2971
 2940TIP3    H230312   1.269   6.522   6.389  0.7188 -0.4449  0.3492
 2941TIP3   OH230313   6.589   6.129  13.922  0.1826  0.1076 -0.0025
 2941TIP3    H130314   6.500   6.094  13.925  0.6457 -1.0500  1.0551
 2941TIP3    H230315   6.643   6.061  13.962  1.6185  0.5886 -1.0559
 2942TIP3   OH230316   5.009   4.772   1.493  0.1457 -0.1807  0.1414
 2942TIP3    H130317   4.992   4.679   1.478 -2.1277  0.0535  0.8917
 2942TIP3    H230318   5.049   4.776   1.580  2.3430 -0.5809 -0.7893
 2943TIP3   OH230319   2.258   2.671   5.072 -0.7841  0.0494 -0.6107
 2943TIP3    H130320   2.242   2.580   5.097  0.0803 -0.6558 -2.4536
 2943TIP3    H230321   2.242   2.673   4.978 -1.1796  1.9135 -0.5350
 2944TIP3   OH230322   4.545   3.821   0.431 -0.0756  0.3875  0.0190
 2944TIP3    H130323   4.534   3.889   0.364  1.8298  0.5024 -0.2383
 2944TIP3    H230324   4.521   3.863   0.513  2.5792  1.9590  0.0968
 2945TIP3   OH230325   1.542   5.801   4.290  0.4994 -0.1604 -0.0639
 2945TIP3    H130326   1.506   5.798   4.379 -0.1858 -1.7858 -0.3408
 2945TIP3    H230327   1.585   5.716   4.280  0.7020  0.0691 -1.2225
 2946TIP3   OH230328   5.183   5.735   2.884  0.4057  0.1784  0.0008
 2946TIP3    H130329   5.201   5.815   2.835  0.3076  0.4261  0.3670
 2946TIP3    H230330   5.239   5.740   2.961  1.1400 -0.5815 -0.4700
 2947TIP3   OH230331   5.230   4.507  16.510  0.1537  0.7020  0.4999
 2947TIP3    H130332   5.182   4.434  16.470 -1.7710  1.7415  0.8079
 2947TIP3    H230333   5.306   4.520  16.453  2.1496 -3.1879  1.8232
 2948TIP3   OH230334   4.215   0.811   4.268  0.2973  0.4163 -0.2762
 2948TIP3    H130335   4.182   0.726   4.239  0.6100  0.4958 -0.8963
 2948TIP3    H230336   4.219   0.864   4.188 -1.9247  1.7306  0.3829
 2949TIP3   OH230337   4.662   2.813  15.633  0.2707  0.6250 -0.0542
 2949TIP3    H130338   4.597   2.808  15.704 -0.8777  0.9633 -1.0360
 2949TIP3    H230339   4.615   2.856  15.561  1.5818  0.8173 -0.8289
 2950TIP3   OH230340   5.712   1.413  12.078 -0.0244 -0.2236  0.2343
 2950TIP3    H130341   5.790   1.469  12.078 -0.8613  1.0509 -1.8097
 2950TIP3    H230342   5.747   1.324  12.066  1.1730  0.1186  0.9525
 2951TIP3   OH230343   4.567   3.002   1.680  0.5619 -0.1512 -0.8677
 2951TIP3    H130344   4.638   3.062   1.658  1.9496 -2.4397 -3.0728
 2951TIP3    H230345   4.515   2.996   1.600 -2.4554  1.6701  0.7493
 2952TIP3   OH230346   6.094   3.461   0.434 -0.7410  0.0342 -0.1031
 2952TIP3    H130347   6.184   3.475   0.464 -0.0488  0.4666 -2.2330
 2952TIP3    H230348   6.040   3.479   0.512  0.7472  3.6155  0.2995
 2953TIP3   OH230349   2.225   3.085   3.177  0.3674 -0.0827  0.1629
 2953TIP3    H130350   2.208   3.018   3.244 -0.0911 -0.7455 -0.5949
 2953TIP3    H230351   2.174   3.160   3.206 -0.3417 -0.5766  0.2385
 2954TIP3   OH230352   4.406   6.563   0.318  0.3414  0.2518  0.1945
 2954TIP3    H130353   4.365   6.581   0.234 -0.6405 -0.2587  0.5580
 2954TIP3    H230354   4.354   6.612   0.382  1.0681  0.6222  0.5258
 2955TIP3   OH230355   2.818   1.173   0.790  0.2255  0.1865  0.9922
 2955TIP3    H130356   2.765   1.117   0.847  0.7473 -1.0217  0.3243
 2955TIP3    H230357   2.877   1.219   0.850 -2.1500  2.3589  1.8890
 2956TIP3   OH230358   0.688   4.479  14.782 -0.2316  0.0277  0.2298
 2956TIP3    H130359   0.609   4.530  14.764  0.6225  1.0062 -0.9119
 2956TIP3    H230360   0.677   4.449  14.872 -1.7088  0.4855  0.2256
 2957TIP3   OH230361   1.279   6.150  12.492  1.2174 -0.0876  0.7591
 2957TIP3    H130362   1.306   6.241  12.474 -0.6882  0.4997  0.7217
 2957TIP3    H230363   1.184   6.152  12.487  1.1635 -2.2118  0.3217
 2958TIP3   OH230364   2.953   1.584   1.981 -0.0773  0.9542 -0.5261
 2958TIP3    H130365   2.947   1.495   2.017  0.9033  0.6416 -1.1181
 2958TIP3    H230366   2.979   1.638   2.056  2.3749  0.2399 -0.7809
 2959TIP3   OH230367   4.696   0.356  16.406 -0.4128  0.3800  0.3807
 2959TIP3    H130368   4.661   0.437  16.442 -0.4413  0.3783  0.3575
 2959TIP3    H230369   4.790   0.359  16.426  0.2115  1.8790 -2.3015
 2960TIP3   OH230370   3.860   6.435   1.843  0.2178  0.1597  0.1715
 2960TIP3    H130371   3.832   6.403   1.928 -0.8211  1.7935  0.4837
 2960TIP3    H230372   3.841   6.363   1.783 -1.1233 -0.1842  0.9821
 2961TIP3   OH230373   0.025   5.419   5.067 -0.3148 -0.0415 -0.4691
 2961TIP3    H130374   0.049   5.418   5.160  0.6816  0.4092 -0.7104
 2961TIP3    H230375   0.074   5.346   5.029 -0.9000 -0.3709 -0.6087
 2962TIP3   OH230376   2.236   6.794  17.015 -0.6031 -0.2312  0.0375
 2962TIP3    H130377   2.257   6.790  17.109  1.3085  1.1962 -0.2682
 2962TIP3    H230378   2.239   6.887  16.994 -1.5601 -0.4919 -1.3645
 2963TIP3   OH230379   0.715   5.647  15.885 -0.0910  0.2369  0.1678
 2963TIP3    H130380   0.755   5.625  15.801  0.1859 -0.6867  0.5287
 2963TIP3    H230381   0.639   5.589  15.891  1.1317 -1.3158  1.5159
 2964TIP3   OH230382   6.234   1.990  14.074  0.6101 -0.3663 -0.3252
 2964TIP3    H130383   6.316   1.953  14.040  0.8502 -0.5629  0.4387
 2964TIP3    H230384   6.251   2.004  14.167 -0.4407 -1.0459 -0.0114
 2965TIP3   OH230385   4.930   6.820   0.804  0.4795  0.1575 -0.8740
 2965TIP3    H130386   4.876   6.747   0.776  0.2196 -0.0750  0.1884
 2965TIP3    H230387   4.872   6.871   0.861  0.4305  1.5778 -2.1269
 2966TIP3   OH230388   5.162   6.379  15.453 -0.7237  0.1282 -0.5535
 2966TIP3    H130389   5.229   6.316  15.429 -1.1535 -0.0473 -1.3334
 2966TIP3    H230390   5.157   6.438  15.377 -2.7214 -0.9535 -1.3416
 2967TIP3   OH230391   3.185   5.606   0.149 -0.0498  0.1942 -0.3694
 2967TIP3    H130392   3.103   5.557   0.145  0.5457 -0.8458 -0.0695
 2967TIP3    H230393   3.183   5.663   0.072  0.1044 -1.6907 -1.8351
 2968TIP3   OH230394   5.251   4.113   4.760  0.1365  0.1779 -0.0718
 2968TIP3    H130395   5.337   4.151   4.740 -0.2536 -0.2704 -2.9782
 2968TIP3    H230396   5.271   4.021   4.781  0.6807  0.9259  3.3466
 2969TIP3   OH230397   1.590   0.118  12.469  0.2270  0.4675 -0.5514
 2969TIP3    H130398   1.568   0.059  12.397 -1.1238 -0.0978  0.2929
 2969TIP3    H230399   1.635   0.191  12.426 -0.1573 -0.0579 -1.9163
 2970TIP3   OH230400   0.620   6.460  12.012  0.4417 -0.0925  0.2465
 2970TIP3    H130401   0.618   6.511  11.931  0.0484 -0.4604  0.0143
 2970TIP3    H230402   0.711   6.461  12.039  0.7073 -0.5513 -0.5898
 2971TIP3   OH230403   1.073   3.633   1.340  0.2222 -0.3492 -0.1428
 2971TIP3    H130404   1.052   3.666   1.252 -0.1457 -1.6478 -0.5662
 2971TIP3    H230405   0.989   3.605   1.375 -0.1097  2.6385  1.7587
 2972TIP3   OH230406   4.310   1.575  11.390 -0.3330 -0.2923  0.2341
 2972TIP3    H130407   4.255   1.604  11.318  0.4310 -0.5864 -0.4820
 2972TIP3    H230408   4.262   1.501  11.428 -0.9715  0.1735  0.3525
 2973TIP3   OH230409   5.973   3.717   4.779 -0.1875 -0.1274 -0.3420
 2973TIP3    H130410   5.958   3.703   4.872 -0.0679  1.0782 -0.1354
 2973TIP3    H230411   6.069   3.714   4.770 -0.1797  0.1629 -0.3585
 2974TIP3   OH230412   2.940   0.556   2.231 -0.0824 -0.3274  0.1578
 2974TIP3    H130413   2.954   0.494   2.159 -1.2899  0.5389 -0.8604
 2974TIP3    H230414   3.017   0.612   2.230 -0.8238  0.7679 -1.6340
 2975TIP3   OH230415   4.330   0.028  16.838 -0.2430 -0.4039  0.1836
 2975TIP3    H130416   4.381   0.005  16.915 -0.9829  1.8403  1.4527
 2975TIP3    H230417   4.243   0.049  16.872 -0.6945  0.3000 -1.3023
 2976TIP3   OH230418   5.049   5.008   1.959 -0.6949  0.3009 -0.1980
 2976TIP3    H130419   4.963   5.017   2.001 -2.3887  0.3226 -3.3207
 2976TIP3    H230420   5.111   5.004   2.032 -3.2366  1.0470  2.2052
 2977TIP3   OH230421   0.187   0.062  16.476 -0.2016 -0.3213  0.5935
 2977TIP3    H130422   0.256   0.126  16.493 -0.7253  1.1097 -2.1750
 2977TIP3    H230423   0.213  -0.015  16.528  3.5266  0.0795 -0.3918
 2978TIP3   OH230424   5.011   0.243  14.768  0.3134 -0.3468  0.0662
 2978TIP3    H130425   5.094   0.279  14.738  2.0152 -3.2457  0.9462
 2978TIP3    H230426   5.028   0.210  14.856 -1.6729 -1.2321  0.1871
 2979TIP3   OH230427   5.079   6.247  11.448 -0.2857 -0.3234  0.0188
 2979TIP3    H130428   5.102   6.340  11.442  0.5325 -0.6069 -1.6968
 2979TIP3    H230429   5.125   6.217  11.527  3.2134 -0.2105 -1.7606
 2980TIP3   OH230430   6.407   1.018  10.780 -0.6178 -0.0563 -0.4363
 2980TIP3    H130431   6.449   1.077  10.717 -1.0398  0.8412  0.0946
 2980TIP3    H230432   6.448   1.041  10.864 -1.0582 -0.2597 -0.1615
 2981TIP3   OH230433   0.241   0.795  11.464  0.4185 -0.4041 -0.3892
 2981TIP3    H130434   0.220   0.758  11.378  0.9469  0.0110 -0.6979
 2981TIP3    H230435   0.156   0.808  11.505  0.1646 -0.7064 -0.8074
 2982TIP3   OH230436   2.564   0.612  15.117 -0.7932 -0.0721 -0.7597
 2982TIP3    H130437   2.555   0.585  15.208 -1.2461 -2.2227 -1.3899
 2982TIP3    H230438   2.475   0.633  15.089 -0.7244  0.1209 -0.8334
 2983TIP3   OH230439   5.938   1.645  14.733  0.5220 -0.4560 -0.0259
 2983TIP3    H130440   5.967   1.555  14.748 -0.0581 -0.9173 -1.5590
 2983TIP3    H230441   5.875   1.662  14.803  0.7079 -1.1974  0.3293
 2984TIP3   OH230442   3.917   1.325   1.466 -0.3123 -0.9469 -0.0057
 2984TIP3    H130443   3.988   1.322   1.530  0.2150 -1.6920 -0.6112
 2984TIP3    H230444   3.863   1.248   1.485 -0.1592 -1.1668 -0.4366
 2985TIP3   OH230445   6.137   3.074  15.034  0.0353  0.4131  0.3959
 2985TIP3    H130446   6.130   2.983  15.063  1.7450 -0.3388 -1.3678
 2985TIP3    H230447   6.133   3.125  15.115  0.5049 -1.3118  1.5647
 2986TIP3   OH230448   3.873   1.789  10.428 -0.1320  0.0540  0.2362
 2986TIP3    H130449   3.898   1.716  10.484 -0.6140  0.7471  1.3877
 2986TIP3    H230450   3.827   1.748  10.354  1.0720 -0.9133  0.0019
 2987TIP3   OH230451   0.980   1.496  13.355 -0.0627 -0.1024  0.7022
 2987TIP3    H130452   0.991   1.427  13.420 -0.8144  0.1248  1.0896
 2987TIP3    H230453   1.065   1.502  13.311  0.3663 -0.4617  1.4649
 2988TIP3   OH230454   2.981   0.666  11.066  0.2397  0.1862  0.2615
 2988TIP3    H130455   3.064   0.674  11.019 -1.3979  4.1843 -2.5706
 2988TIP3    H230456   2.994   0.715  11.147  0.9489 -0.1793  0.3729
 2989TIP3   OH230457   2.485   3.523   6.302 -0.2856 -0.1332  0.3115
 2989TIP3    H130458   2.398   3.484   6.311  0.1364 -0.8979  1.2260
 2989TIP3    H230459   2.470   3.602   6.250 -1.4836 -0.3915  0.2291
 2990TIP3   OH230460   6.491   2.414  16.017 -0.4512  0.3611 -0.5138
 2990TIP3    H130461   6.469   2.507  16.026 -1.1103  0.3772 -2.0335
 2990TIP3    H230462   6.412   2.368  16.045  0.6860  0.1126  2.7015
 2991TIP3   OH230463   5.353   6.515  12.874 -0.1290  0.3150  0.1874
 2991TIP3    H130464   5.261   6.542  12.875 -0.0900  0.5084 -0.5442
 2991TIP3    H230465   5.401   6.596  12.863 -0.0006  0.0119 -1.8860
 2992TIP3   OH230466   2.589   2.915   3.830  0.4674 -0.3334 -0.5227
 2992TIP3    H130467   2.641   2.850   3.877 -0.6198 -1.5514 -0.9430
 2992TIP3    H230468   2.559   2.975   3.898 -0.1793 -1.4403  0.1982
 2993TIP3   OH230469   5.652   1.187   4.756  0.1096 -0.2873 -0.1919
 2993TIP3    H130470   5.569   1.161   4.715 -1.9304  1.6055  2.3982
 2993TIP3    H230471   5.677   1.112   4.810 -0.8041 -0.3156  0.2160
 2994TIP3   OH230472   4.752   2.158   3.108 -0.3671 -0.1537 -0.0854
 2994TIP3    H130473   4.711   2.071   3.101  0.4110 -0.5020 -0.4009
 2994TIP3    H230474   4.691   2.208   3.162 -2.0352 -0.1459 -1.8755
 2995TIP3   OH230475   5.382   2.857   4.770 -0.0593  0.3760  0.6274
 2995TIP3    H130476   5.292   2.844   4.740 -0.5469  0.0999  2.1351
 2995TIP3    H230477   5.380   2.940   4.818  0.6209  0.6429  0.2075
 2996TIP3   OH230478   1.178   1.855   4.410  0.7493 -0.7399 -0.0000
 2996TIP3    H130479   1.197   1.834   4.502  0.9252 -1.4427 -0.1911
 2996TIP3    H230480   1.261   1.889   4.376  0.0404  2.0473  0.7634
 2997TIP3   OH230481   0.566   2.344  12.946  0.4933 -0.4702  0.0590
 2997TIP3    H130482   0.619   2.264  12.953  2.3365  0.7098  0.2085
 2997TIP3    H230483   0.514   2.344  13.027  0.8854 -1.2292  0.3321
 2998TIP3   OH230484   3.546   0.641   6.090 -0.6525  0.3552 -0.3582
 2998TIP3    H130485   3.595   0.656   6.010 -0.8358  0.0496 -0.5293
 2998TIP3    H230486   3.607   0.596   6.149 -0.7179  0.0013 -0.5597
 2999TIP3   OH230487   5.929   5.362   4.358 -0.1830  0.0579 -0.3927
 2999TIP3    H130488   5.894   5.406   4.436 -0.9931 -1.7662  0.3373
 2999TIP3    H230489   5.911   5.422   4.286 -2.1235  0.5055  0.4122
 3000TIP3   OH230490   4.300   5.499   1.654  0.5434  0.3928 -0.2700
 3000TIP3    H130491   4.270   5.589   1.637  1.7197  0.9101  0.3153
 3000TIP3    H230492   4.295   5.489   1.749 -0.5625 -0.5321 -0.4081
 3001TIP3   OH230493   3.701   1.324   0.764 -0.4871  0.1411 -0.3748
 3001TIP3    H130494   3.709   1.246   0.709 -0.6263  1.1170 -1.8048
 3001TIP3    H230495   3.778   1.376   0.744 -1.2542  1.1676 -0.7063
 3002TIP3   OH230496   4.619   1.143  16.827  0.4503  0.8222 -0.6582
 3002TIP3    H130497   4.688   1.081  16.851 -1.6520 -1.6551 -0.5474
 3002TIP3    H230498   4.571   1.159  16.909 -1.7034 -1.0674 -1.4272
 3003TIP3   OH230499   0.714   1.289   3.816 -0.3650  0.4586 -0.2704
 3003TIP3    H130500   0.703   1.206   3.770 -0.1953 -0.5147  1.3834
 3003TIP3    H230501   0.731   1.265   3.906  0.1909  2.2988  0.1623
 3004TIP3   OH230502   4.060   6.305   4.130  0.0530 -0.0324  0.0911
 3004TIP3    H130503   4.099   6.360   4.198 -0.0375 -0.8564  0.8386
 3004TIP3    H230504   3.979   6.349   4.107  0.4364  0.6292  0.0005
 3005TIP3   OH230505   2.420   5.331  12.473 -0.2270  0.1705  0.5024
 3005TIP3    H130506   2.360   5.373  12.412  0.5190  1.3181  0.5361
 3005TIP3    H230507   2.462   5.262  12.421 -1.5265 -0.6304  0.4727
 3006TIP3   OH230508   5.712   4.271   0.688  0.3259  0.1210  0.0774
 3006TIP3    H130509   5.770   4.272   0.612 -0.0624  0.7065 -0.2182
 3006TIP3    H230510   5.671   4.185   0.686 -1.4450  0.9285 -1.7372
 3007TIP3   OH230511   3.426   0.386   4.868  0.0416  0.2755  0.0875
 3007TIP3    H130512   3.387   0.462   4.826  2.1560  1.0129 -0.7198
 3007TIP3    H230513   3.379   0.311   4.832  0.4801  1.0156 -2.1764
 3008TIP3   OH230514   6.627   0.444   1.828  0.3808  0.2037 -0.2122
 3008TIP3    H130515   6.538   0.425   1.798  0.1643 -2.4371  1.7077
 3008TIP3    H230516   6.616   0.518   1.888 -0.8056 -0.8760  0.9834
 3009TIP3   OH230517   2.205   0.348   5.888  0.6012 -0.1762  0.4582
 3009TIP3    H130518   2.154   0.405   5.946  1.7717  0.9980  0.3772
 3009TIP3    H230519   2.205   0.394   5.804 -1.6041 -2.1485 -0.7655
 3010TIP3   OH230520   5.191   2.361   1.343  0.2913  0.3319  0.6948
 3010TIP3    H130521   5.246   2.405   1.407  0.1049  0.2813  0.8911
 3010TIP3    H230522   5.101   2.378   1.373  0.1691  1.1463 -0.0990
 3011TIP3   OH230523   5.668   0.455   5.421  0.3985 -0.1857  0.7178
 3011TIP3    H130524   5.693   0.527   5.363  1.9613 -1.0536  0.2640
 3011TIP3    H230525   5.613   0.496   5.487 -1.7315  0.7906 -1.5126
 3012TIP3   OH230526   6.236   2.918  10.662 -0.6714 -0.6485 -0.2385
 3012TIP3    H130527   6.279   2.839  10.695  1.1619 -0.2906 -1.6329
 3012TIP3    H230528   6.235   2.908  10.567  0.5094  1.4200 -0.5262
 3013TIP3   OH230529   1.105   4.848  14.754 -0.0311  0.1752  0.0350
 3013TIP3    H130530   1.138   4.933  14.784  1.0980 -0.3632  0.3544
 3013TIP3    H230531   1.021   4.838  14.799  0.0986  0.8590  0.4496
 3014TIP3   OH230532   6.104   2.193  11.459 -0.6497 -0.1667 -0.0128
 3014TIP3    H130533   6.174   2.138  11.491  0.6702  2.4730  2.0252
 3014TIP3    H230534   6.146   2.277  11.438 -2.8148  0.7462 -1.1042
 3015TIP3   OH230535   3.324   0.328  12.308  0.5143  0.2146 -0.3552
 3015TIP3    H130536   3.242   0.281  12.293  0.7598 -0.3811  0.1458
 3015TIP3    H230537   3.296   0.412  12.344  0.1867 -1.0443  2.5609
 3016TIP3   OH230538   3.094   2.885   1.070 -0.6661 -0.9131 -0.0257
 3016TIP3    H130539   3.134   2.907   1.153 -2.1984  3.1338 -0.1378
 3016TIP3    H230540   3.037   2.811   1.089  1.2678 -2.0325  1.7335
 3017TIP3   OH230541   4.345   3.095  14.061 -0.5560  0.0813 -0.3156
 3017TIP3    H130542   4.413   3.162  14.060 -1.1371  0.7337  0.8282
 3017TIP3    H230543   4.291   3.114  13.984 -0.4737  0.6922 -0.2316
 3018TIP3   OH230544   4.287   4.154  14.375 -0.4570  0.9365 -0.5133
 3018TIP3    H130545   4.325   4.118  14.296  0.9473 -2.9452  1.6577
 3018TIP3    H230546   4.344   4.227  14.399  0.6865  0.4414 -1.6633
 3019TIP3   OH230547   0.609   6.427  10.128 -0.7244 -0.1123  0.2258
 3019TIP3    H130548   0.611   6.373  10.207 -0.4312 -1.6898 -0.8162
 3019TIP3    H230549   0.682   6.488  10.138 -0.1140 -0.9150  0.7594
 3020TIP3   OH230550   3.015   4.316   4.976 -0.2349 -0.0538  0.1072
 3020TIP3    H130551   3.064   4.395   4.954  0.1083 -0.3946 -0.3670
 3020TIP3    H230552   2.993   4.277   4.891 -1.9071  0.4414  0.2812
 3021TIP3   OH230553   0.458   2.131  16.777  0.1075  0.6696 -0.0244
 3021TIP3    H130554   0.528   2.155  16.838  1.1716 -0.1913 -0.8608
 3021TIP3    H230555   0.444   2.210  16.725 -0.2957  1.1789  0.8254
 3022TIP3   OH230556   0.380   5.599  12.025  0.0013 -0.3795  0.1206
 3022TIP3    H130557   0.445   5.637  12.085  0.4609 -0.5192 -0.2828
 3022TIP3    H230558   0.298   5.640  12.050  0.1459 -0.5871  0.9905
 3023TIP3   OH230559   1.544   2.169   5.814  0.1079 -0.1327 -0.5257
 3023TIP3    H130560   1.541   2.089   5.867  1.6874  0.0283 -0.1330
 3023TIP3    H230561   1.452   2.194   5.802 -0.3628 -1.4162  0.2411
 3024TIP3   OH230562   2.914   6.130   5.111 -0.0191 -0.0119 -0.5278
 3024TIP3    H130563   2.860   6.197   5.070 -1.5191 -1.3277 -0.8320
 3024TIP3    H230564   3.000   6.141   5.071 -0.3270  1.4608 -0.8472
 3025TIP3   OH230565   5.183   0.412   3.054  0.4943  0.2588 -0.1827
 3025TIP3    H130566   5.141   0.341   3.102  0.2563  1.4191  1.3912
 3025TIP3    H230567   5.204   0.373   2.969 -0.2718 -1.4728  0.3599
 3026TIP3   OH230568   6.182   1.987   4.885 -0.2348  0.0476  0.6406
 3026TIP3    H130569   6.144   2.000   4.798  0.5891  0.3350  0.3087
 3026TIP3    H230570   6.267   1.946   4.867  0.2397  0.7459  1.2638
 3027TIP3   OH230571   5.052   3.113  11.814  0.6985  0.0093  0.0802
 3027TIP3    H130572   5.096   3.036  11.850  1.4583  0.0259 -0.7731
 3027TIP3    H230573   5.104   3.187  11.846  0.9221  0.0677 -0.4113
 3028TIP3   OH230574   1.987   1.279  13.178  0.3291  0.1693  0.6980
 3028TIP3    H130575   2.076   1.259  13.149 -0.3031 -0.7389 -0.7604
 3028TIP3    H230576   1.998   1.342  13.249  2.1278 -0.0009  0.6169
 3029TIP3   OH230577   3.132   2.527   0.330 -0.0359  0.3810 -0.2575
 3029TIP3    H130578   3.178   2.461   0.381 -0.9463  0.7298  1.0921
 3029TIP3    H230579   3.127   2.492   0.242  1.9590 -0.0655 -0.2188
 3030TIP3   OH230580   4.092   4.224   4.277 -0.5332 -0.2406 -0.3907
 3030TIP3    H130581   4.059   4.154   4.333  0.1155  0.2958  0.6963
 3030TIP3    H230582   4.032   4.297   4.291  1.5160  1.1070  2.4174
 3031TIP3   OH230583   6.432   1.390  11.343  0.4172 -0.3490  0.2520
 3031TIP3    H130584   6.487   1.365  11.417  0.7262 -0.4198  0.0036
 3031TIP3    H230585   6.435   1.313  11.285 -0.2605 -0.5035  0.4213
 3032TIP3   OH230586   5.582   0.975  14.989  0.3708  0.1111  0.5579
 3032TIP3    H130587   5.657   1.032  14.970  0.9736 -0.9631 -0.3782
 3032TIP3    H230588   5.584   0.964  15.084  3.4628 -2.5596  0.3306
 3033TIP3   OH230589   0.628   5.760   1.794 -0.4636  0.0237 -0.0116
 3033TIP3    H130590   0.537   5.789   1.796 -0.3964  0.1859  0.7147
 3033TIP3    H230591   0.660   5.771   1.883  0.1441 -0.4424 -0.1610
 3034TIP3   OH230592   0.279   5.076  12.997  0.1970 -0.1265  0.3457
 3034TIP3    H130593   0.279   4.997  13.052  0.4382 -0.4904 -0.1684
 3034TIP3    H230594   0.188   5.107  13.000 -0.0532 -0.8089  0.0153
 3035TIP3   OH230595   5.502   4.189  16.296  0.0934 -0.1617  0.1196
 3035TIP3    H130596   5.480   4.244  16.221 -0.4958  1.9838  1.7584
 3035TIP3    H230597   5.576   4.135  16.266 -1.0885 -0.5097 -2.4317
 3036TIP3   OH230598   4.887   4.480  15.482 -0.3178 -0.2189  0.0559
 3036TIP3    H130599   4.902   4.386  15.470  0.1704 -0.2316  0.7041
 3036TIP3    H230600   4.975   4.517  15.491 -0.4877  0.3640 -0.6058
 3037TIP3   OH230601   2.315   1.190   2.466  0.2689 -0.4848  0.5424
 3037TIP3    H130602   2.329   1.169   2.558  0.4014  2.7544  1.3659
 3037TIP3    H230603   2.275   1.277   2.466  0.1835 -0.3970 -2.4748
 3038TIP3   OH230604   0.378   3.920  12.377 -0.0018 -0.0047 -0.3284
 3038TIP3    H130605   0.304   3.948  12.324  0.6902 -0.0480 -1.3330
 3038TIP3    H230606   0.424   3.855  12.323  0.8476  0.1241  0.2218
 3039TIP3   OH230607   6.477   0.326  12.837 -0.0609  0.0456  0.2981
 3039TIP3    H130608   6.398   0.379  12.825 -0.8768 -0.6103  2.3487
 3039TIP3    H230609   6.534   0.381  12.892  0.3198 -0.0563  0.0117
 3040TIP3   OH230610   5.484   5.700   5.735  0.2604  0.6572  0.1164
 3040TIP3    H130611   5.483   5.630   5.670 -1.5416  0.0732  0.7068
 3040TIP3    H230612   5.393   5.727   5.743  0.6663  1.8180  1.2402
 3041TIP3   OH230613   0.011   3.187   1.650 -0.2255  0.4857 -0.9080
 3041TIP3    H130614  -0.064   3.189   1.591 -1.9740 -1.1619  1.0589
 3041TIP3    H230615  -0.018   3.235   1.728  0.7143 -0.2475 -0.0691
 3042TIP3   OH230616   1.304   5.570  15.385  0.3145  0.4806  0.3692
 3042TIP3    H130617   1.288   5.503  15.451  1.4099 -0.1311  0.0450
 3042TIP3    H230618   1.336   5.645  15.434 -0.2652  0.5370  0.6680
 3043TIP3   OH230619   1.098   0.733   3.769  0.3649  0.2186 -0.0914
 3043TIP3    H130620   1.088   0.793   3.842  1.7196  1.4626 -0.8606
 3043TIP3    H230621   1.010   0.719   3.736 -0.3371 -0.7478  2.0159
 3044TIP3   OH230622   3.302   4.654  13.805 -0.1548  0.6037  0.1961
 3044TIP3    H130623   3.299   4.743  13.770 -1.0656  0.6946  0.4794
 3044TIP3    H230624   3.212   4.635  13.830 -0.0652 -0.5903 -0.3294
 3045TIP3   OH230625   2.036   6.266  11.581 -0.4285  0.0712  0.0709
 3045TIP3    H130626   2.000   6.308  11.503 -0.7333 -2.7003 -1.4155
 3045TIP3    H230627   1.969   6.276  11.648 -1.4995 -0.0792 -0.9516
 3046TIP3   OH230628   2.034   5.256   0.751 -0.1072 -0.2271 -0.2663
 3046TIP3    H130629   2.062   5.167   0.773 -0.0182 -0.1029  0.1378
 3046TIP3    H230630   2.095   5.284   0.683  0.5913 -0.0608  0.4157
 3047TIP3   OH230631   6.527   2.562   1.276  1.0650  0.0565 -0.2050
 3047TIP3    H130632   6.546   2.653   1.256  2.6538 -0.0754  0.6191
 3047TIP3    H230633   6.469   2.566   1.353 -0.2251  0.3767 -1.1479
 3048TIP3   OH230634   5.902   4.840   3.314 -0.2929  0.4026 -0.8565
 3048TIP3    H130635   5.919   4.749   3.340  0.0622  0.4018 -1.0818
 3048TIP3    H230636   5.935   4.892   3.387  1.0921  0.4188 -1.4564
 3049TIP3   OH230637   3.251   3.047   1.371 -0.0197 -0.2880  0.4166
 3049TIP3    H130638   3.339   3.082   1.361 -0.2931  0.7839  1.5363
 3049TIP3    H230639   3.194   3.115   1.335 -0.3533 -1.9021 -2.4283
 3050TIP3   OH230640   5.993   6.726   3.417 -0.5226 -0.4111  0.3260
 3050TIP3    H130641   5.973   6.677   3.337  1.7655  1.0065 -1.2320
 3050TIP3    H230642   6.053   6.669   3.465  0.3021 -0.1342 -0.3544
 3051TIP3   OH230643   3.966   6.280  11.408 -1.2333  0.2246 -0.2280
 3051TIP3    H130644   3.972   6.355  11.348 -1.5416  0.6822  0.3078
 3051TIP3    H230645   3.963   6.204  11.350  2.7654  0.2761 -0.7945
 3052TIP3   OH230646   6.463   4.029  11.494  0.6083 -0.1453  0.0103
 3052TIP3    H130647   6.512   4.053  11.415  2.1244 -0.2417  0.8867
 3052TIP3    H230648   6.512   4.069  11.566 -0.1923 -0.8835  0.9898
 3053TIP3   OH230649   2.691   0.615   2.497 -0.2644  0.0873  0.2799
 3053TIP3    H130650   2.725   0.582   2.580 -0.0962  1.3995  0.7502
 3053TIP3    H230651   2.596   0.617   2.509 -0.3939 -1.3432 -0.2028
 3054TIP3   OH230652   3.566   6.615   1.905 -0.1426  0.6759 -0.3732
 3054TIP3    H130653   3.586   6.563   1.827  1.9088 -0.2537  0.6709
 3054TIP3    H230654   3.567   6.551   1.976  0.1212  1.7971  0.6595
 3055TIP3   OH230655   3.952   5.221   2.083 -0.0513  0.0456  0.2999
 3055TIP3    H130656   3.882   5.285   2.073 -1.0406 -1.0635 -0.1494
 3055TIP3    H230657   3.949   5.194   2.175 -1.3718 -1.2311 -0.0803
 3056TIP3   OH230658   6.334   4.140  13.468 -0.7065  0.2501  0.0895
 3056TIP3    H130659   6.346   4.149  13.563 -0.9299 -1.9320  0.3658
 3056TIP3    H230660   6.241   4.157  13.454 -0.5412  1.2747  0.1370
 3057TIP3   OH230661   4.019   2.034   2.279  0.0931 -0.3032  0.2512
 3057TIP3    H130662   4.079   1.969   2.243 -0.1955  0.1328 -1.1000
 3057TIP3    H230663   3.936   1.988   2.289  0.0284 -0.2944 -0.2024
 3058TIP3   OH230664   4.865   0.582   2.468 -0.0954  0.7326 -0.2863
 3058TIP3    H130665   4.885   0.541   2.553  0.8134  1.3886 -0.1582
 3058TIP3    H230666   4.875   0.676   2.485 -1.2065  0.9527 -0.8037
 3059TIP3   OH230667   6.184   1.196   2.172 -0.4451 -0.5216 -0.1241
 3059TIP3    H130668   6.109   1.247   2.144 -0.0624  0.7886  1.1372
 3059TIP3    H230669   6.255   1.224   2.115 -0.2964  0.2105  0.4035
 3060TIP3   OH230670   4.842   4.305   3.580 -0.7969 -0.3250  0.7258
 3060TIP3    H130671   4.763   4.358   3.590 -0.5177 -0.1304  2.1066
 3060TIP3    H230672   4.880   4.334   3.496 -1.6459  0.3007  0.5466
 3061TIP3   OH230673   3.118   3.650  15.985 -0.4499 -0.3225 -0.1434
 3061TIP3    H130674   3.191   3.686  16.035  0.0899 -0.3315 -0.9147
 3061TIP3    H230675   3.052   3.628  16.051 -0.1703  0.6364  0.4619
 3062TIP3   OH230676   4.693   0.346  14.055  0.3189  0.1351 -0.1772
 3062TIP3    H130677   4.699   0.299  13.972 -0.0702  0.6253 -0.4912
 3062TIP3    H230678   4.658   0.432  14.032  0.4489  0.3702  0.4634
 3063TIP3   OH230679   0.123   2.828  16.905 -0.8199 -0.3774 -0.4193
 3063TIP3    H130680   0.052   2.847  16.966 -0.1302  0.6435  0.0964
 3063TIP3    H230681   0.203   2.847  16.954 -0.2396  0.0221 -1.4889
 3064TIP3   OH230682   3.699   0.951  15.412  0.6000  0.3064 -0.2115
 3064TIP3    H130683   3.704   0.992  15.498  0.2113  1.0877 -0.5560
 3064TIP3    H230684   3.737   0.864  15.425  2.3066  1.0780  0.3178
 3065TIP3   OH230685   2.125   2.845  13.537 -0.3339 -0.1025 -0.0905
 3065TIP3    H130686   2.107   2.939  13.542 -0.4691 -0.2116  2.0848
 3065TIP3    H230687   2.219   2.837  13.554 -0.1179 -0.3112 -1.2859
 3066TIP3   OH230688   5.995   2.731   5.594  0.7415  0.2479 -0.3323
 3066TIP3    H130689   5.933   2.803   5.586  1.6985  0.9489 -1.8572
 3066TIP3    H230690   5.941   2.652   5.582 -0.8338  0.3812  4.1608
 3067TIP3   OH230691   4.439   2.736  12.869  0.7046 -0.1689 -0.2401
 3067TIP3    H130692   4.423   2.800  12.800  0.5497  0.8170  0.6805
 3067TIP3    H230693   4.532   2.712  12.858  0.8360  0.4121 -0.4286
 3068TIP3   OH230694   6.825   3.197  12.755 -0.4393 -0.2155  0.6873
 3068TIP3    H130695   6.741   3.235  12.779 -1.7905 -1.0247 -2.3776
 3068TIP3    H230696   6.818   3.178  12.662  3.0720 -0.5768  0.3485
 3069TIP3   OH230697   5.450   2.930  13.980 -0.7910 -0.0338  0.2793
 3069TIP3    H130698   5.420   2.962  14.065 -1.4536  0.1562 -0.0193
 3069TIP3    H230699   5.411   2.843  13.972 -1.9230  0.5179 -0.4424
 3070TIP3   OH230700   3.229   4.106   0.761  0.2248 -1.0744  0.2410
 3070TIP3    H130701   3.210   4.048   0.834 -1.8955 -0.2583  0.3938
 3070TIP3    H230702   3.181   4.069   0.687  0.3252 -0.5147 -0.1116
 3071TIP3   OH230703   0.605   2.164   4.624  0.1421  0.0586  0.3473
 3071TIP3    H130704   0.631   2.125   4.708  0.5611 -1.3567 -0.4008
 3071TIP3    H230705   0.568   2.091   4.574 -1.5004  1.1909 -0.1640
 3072TIP3   OH230706   3.744   2.491  12.111  0.2492  0.0354  0.2462
 3072TIP3    H130707   3.817   2.537  12.152  1.9318  0.4871 -2.9352
 3072TIP3    H230708   3.778   2.404  12.093 -0.2693 -0.0193 -0.5095
 3073TIP3   OH230709   2.402   2.895  14.505 -0.2868  0.0133  0.4933
 3073TIP3    H130710   2.343   2.865  14.574 -0.6075 -0.7983 -0.1132
 3073TIP3    H230711   2.398   2.826  14.439  1.3577 -0.0594  0.4306
 3074TIP3   OH230712   5.297   1.610  12.786  0.6977 -0.0457 -0.0926
 3074TIP3    H130713   5.331   1.567  12.707  0.0250  0.5023 -0.7012
 3074TIP3    H230714   5.338   1.563  12.858 -0.5133 -2.2058 -0.6874
 3075TIP3   OH230715   2.805   2.291   0.940 -0.5596 -0.3027  0.3117
 3075TIP3    H130716   2.733   2.250   0.893  0.3658 -0.8287 -0.6936
 3075TIP3    H230717   2.857   2.334   0.872  0.7748 -1.0123  0.8370
 3076TIP3   OH230718   4.460   1.894   3.726 -0.2920  0.1379  0.4785
 3076TIP3    H130719   4.524   1.830   3.693 -0.9812 -0.3696  0.1061
 3076TIP3    H230720   4.464   1.966   3.663  1.1272  0.8917  1.3785
 3077TIP3   OH230721   2.424   2.776   4.469 -0.0495  0.4222  0.1497
 3077TIP3    H130722   2.332   2.798   4.453 -0.2365 -0.2154  0.3074
 3077TIP3    H230723   2.454   2.734   4.388 -0.2046 -0.3086  0.4583
 3078TIP3   OH230724   5.242   5.855  15.350  0.4286 -0.3744  0.2786
 3078TIP3    H130725   5.294   5.854  15.270 -0.0431 -1.3453 -0.0372
 3078TIP3    H230726   5.154   5.830  15.322  0.0291  0.2013  0.9615
 3079TIP3   OH230727   0.138   4.208  16.447 -0.3828 -0.1260 -0.2405
 3079TIP3    H130728   0.182   4.124  16.430  0.4109  0.1718  0.3215
 3079TIP3    H230729   0.156   4.260  16.369  0.6823  0.1656  0.1918
 3080TIP3   OH230730   4.149   5.573  12.052 -0.5103  0.7093  0.1321
 3080TIP3    H130731   4.076   5.630  12.026  0.2447  2.9325  2.4471
 3080TIP3    H230732   4.187   5.617  12.128  3.5359 -0.1002 -1.2059
 3081TIP3   OH230733   3.915   0.939   1.761  0.0922  0.3654  0.4330
 3081TIP3    H130734   3.828   0.939   1.722  0.8290 -1.5786 -1.4745
 3081TIP3    H230735   3.974   0.962   1.689  1.1483  2.8868  1.9560
 3082TIP3   OH230736   1.565   1.142  16.150  0.0171  0.1812 -1.0258
 3082TIP3    H130737   1.586   1.184  16.233  1.0778 -1.4541 -0.4139
 3082TIP3    H230738   1.532   1.055  16.175  2.7156 -1.3308 -2.3225
 3083TIP3   OH230739   0.644   0.750  12.337  0.5654 -0.3178  0.1885
 3083TIP3    H130740   0.628   0.660  12.308 -0.1949  0.3603 -1.6659
 3083TIP3    H230741   0.738   0.753  12.356  0.8105 -1.2175 -0.8228
 3084TIP3   OH230742   6.843   3.582   0.949 -0.1212  0.4169  0.0355
 3084TIP3    H130743   6.778   3.588   1.019  0.3597 -2.0478  0.7977
 3084TIP3    H230744   6.792   3.565   0.870 -0.5173  0.5893  0.2523
 3085TIP3   OH230745   1.624   5.880   1.258 -0.2638  0.3324 -0.5774
 3085TIP3    H130746   1.681   5.911   1.187 -0.2652  2.2929  0.2192
 3085TIP3    H230747   1.685   5.847   1.324 -0.2030 -0.1720 -0.8760
 3086TIP3   OH230748   1.205   0.236   1.255 -0.9053  0.0471  0.2613
 3086TIP3    H130749   1.138   0.303   1.244 -0.9848  0.0992  1.0117
 3086TIP3    H230750   1.287   0.285   1.265 -1.2615  0.2218  3.3709
 3087TIP3   OH230751   5.493   2.460   3.749 -0.1531 -0.3350  0.3378
 3087TIP3    H130752   5.497   2.556   3.754 -1.1335 -0.2778  0.2391
 3087TIP3    H230753   5.540   2.438   3.669 -1.2650  0.1989 -0.4896
 3088TIP3   OH230754   2.386   6.618   4.865 -0.6102  0.7838 -0.3132
 3088TIP3    H130755   2.340   6.550   4.914  0.2759  0.4596  0.0734
 3088TIP3    H230756   2.418   6.574   4.787  0.6439  0.5550  0.3140
 3089TIP3   OH230757   4.004   6.192  16.721  0.3590 -0.5211 -0.0351
 3089TIP3    H130758   3.938   6.219  16.786 -0.7277  0.0664 -1.3455
 3089TIP3    H230759   4.073   6.151  16.773 -0.5854 -0.2702  1.4742
 3090TIP3   OH230760   3.256   3.792  14.622  0.1606  0.6980 -0.5154
 3090TIP3    H130761   3.305   3.872  14.638 -2.3294  2.0127  0.9452
 3090TIP3    H230762   3.244   3.790  14.527  1.2684  1.3609 -0.6909
 3091TIP3   OH230763   2.233   5.617  12.036 -0.4040  0.8621  0.1212
 3091TIP3    H130764   2.180   5.595  11.959  0.3573  2.1313 -0.8147
 3091TIP3    H230765   2.317   5.573  12.020 -0.3512  0.8659  0.3870
 3092TIP3   OH230766   1.912   2.314  13.640  0.1997  0.3450 -0.2752
 3092TIP3    H130767   1.823   2.318  13.673  0.5250  0.8087  0.5647
 3092TIP3    H230768   1.966   2.298  13.717  0.8809  0.4716 -0.7139
 3093TIP3   OH230769   0.309   2.165   4.078 -0.0729 -0.3296 -0.4503
 3093TIP3    H130770   0.243   2.183   4.145  1.6402  2.8725  0.5853
 3093TIP3    H230771   0.300   2.237   4.016  1.1490 -0.9234 -1.3601
 3094TIP3   OH230772   1.643   3.618   4.268 -0.6155  0.5089 -0.3091
 3094TIP3    H130773   1.717   3.634   4.209  0.4662 -0.6944  0.6620
 3094TIP3    H230774   1.630   3.701   4.313  0.6345  0.5583  0.0076
 3095TIP3   OH230775   5.259   2.366   2.969  0.5555  0.5063 -0.0425
 3095TIP3    H130776   5.183   2.374   3.027  0.4364 -1.1558  0.0918
 3095TIP3    H230777   5.224   2.328   2.889  1.3965 -1.5196  0.4965
 3096TIP3   OH230778   0.184   3.748   0.766  0.9316  0.4124 -0.3935
 3096TIP3    H130779   0.203   3.672   0.711  0.5039 -0.7979  1.0453
 3096TIP3    H230780   0.131   3.713   0.837 -0.6057  2.3819 -0.5029
 3097TIP3   OH230781   5.521   5.265   1.546  0.0996 -0.0310 -0.0964
 3097TIP3    H130782   5.485   5.227   1.466  0.7868 -0.1327 -0.3658
 3097TIP3    H230783   5.604   5.219   1.559  0.7309  1.0564 -0.1835
 3098TIP3   OH230784   1.863   2.123  11.401  0.5113 -0.1981 -0.3922
 3098TIP3    H130785   1.800   2.060  11.366  1.0293 -0.8058 -0.2456
 3098TIP3    H230786   1.846   2.204  11.353 -0.3724 -0.3585 -0.3613
 3099TIP3   OH230787   1.173   0.320  16.831 -0.1480 -1.0695 -0.3791
 3099TIP3    H130788   1.191   0.254  16.764  1.4920 -1.2861  0.2488
 3099TIP3    H230789   1.248   0.316  16.890 -0.3980  0.7964  0.1270
 3100TIP3   OH230790   2.414   6.319   0.284  0.5302 -0.5917 -1.1401
 3100TIP3    H130791   2.390   6.357   0.369 -0.5700 -1.0971 -1.1990
 3100TIP3    H230792   2.509   6.322   0.282  0.9231 -4.0291  1.7917
 3101TIP3   OH230793   1.870   2.500  15.624 -0.0358  0.4374  0.0472
 3101TIP3    H130794   1.862   2.438  15.696 -0.8094 -1.2751 -1.4092
 3101TIP3    H230795   1.958   2.486  15.589 -0.2049  0.1285 -0.2720
 3102TIP3   OH230796   0.280   2.142   3.230 -0.1974 -0.3060 -0.5136
 3102TIP3    H130797   0.293   2.195   3.309  2.3787 -0.8015 -0.5321
 3102TIP3    H230798   0.368   2.123   3.198 -1.1162 -1.8717 -2.3623
 3103TIP3   OH230799   0.896   5.803   3.387 -0.2019  0.1152 -0.6092
 3103TIP3    H130800   0.882   5.721   3.340 -1.2900 -0.2207  0.2689
 3103TIP3    H230801   0.814   5.818   3.435  0.1645  1.4511 -0.3535
 3104TIP3   OH230802   4.788   3.001   5.799  0.5487  0.2521  0.1337
 3104TIP3    H130803   4.871   3.049   5.801  0.3198  0.6544 -0.0469
 3104TIP3    H230804   4.722   3.067   5.778  0.2423 -0.1521 -0.1951
 3105TIP3   OH230805   5.158   2.586   2.753 -0.0118  0.0938  0.0930
 3105TIP3    H130806   5.159   2.496   2.721 -1.9741 -0.4155  1.2760
 3105TIP3    H230807   5.095   2.631   2.696  1.1108  0.7853 -0.6210
 3106TIP3   OH230808   5.276   3.085   5.856  0.0664  0.5863  0.2461
 3106TIP3    H130809   5.216   3.136   5.910 -0.7033  1.2018 -1.1329
 3106TIP3    H230810   5.234   3.082   5.770 -0.2433 -2.9204  0.3858
 3107TIP3   OH230811   3.823   5.461   1.331 -0.1020 -0.3018  0.1203
 3107TIP3    H130812   3.870   5.466   1.414 -0.5400 -0.5373  0.3868
 3107TIP3    H230813   3.889   5.481   1.264  0.1758  0.2221  0.5449
 3108TIP3   OH230814   0.637   1.473  15.465  0.0716 -0.3925  0.4219
 3108TIP3    H130815   0.695   1.534  15.419 -1.0958 -0.8457 -1.8035
 3108TIP3    H230816   0.561   1.526  15.487 -0.2443 -0.6410 -0.0474
 3109TIP3   OH230817   3.871   2.417  14.486  0.1449  0.0211 -0.3405
 3109TIP3    H130818   3.939   2.382  14.542 -1.8161 -3.1041  0.3459
 3109TIP3    H230819   3.877   2.366  14.405 -0.8847  0.1793 -0.5407
 3110TIP3   OH230820   6.628   3.430  13.702 -0.0701 -0.2956 -0.0478
 3110TIP3    H130821   6.596   3.479  13.626 -0.9220  0.3761  0.7353
 3110TIP3    H230822   6.631   3.339  13.672 -1.5591 -0.2080 -0.5061
 3111TIP3   OH230823   0.011   0.580  13.809 -0.0628  0.2930  0.4808
 3111TIP3    H130824   0.067   0.504  13.793  0.3731  0.3951  1.4423
 3111TIP3    H230825   0.000   0.620  13.722  2.5099  1.0424  0.4197
 3112TIP3   OH230826   1.281   5.609  12.916 -0.1130 -0.0167  0.2210
 3112TIP3    H130827   1.278   5.514  12.907  0.3989 -0.0693  0.5582
 3112TIP3    H230828   1.327   5.640  12.838 -1.1725  0.0435 -0.3945
 3113TIP3   OH230829   6.365   4.006   1.608 -0.3794 -0.8656  0.5866
 3113TIP3    H130830   6.332   4.076   1.551  0.9706 -1.2043 -0.6703
 3113TIP3    H230831   6.405   3.943   1.549  1.4885 -1.0246  1.9195
 3114TIP3   OH230832   6.836   1.504   2.503 -0.1136  0.0171 -0.3434
 3114TIP3    H130833   6.741   1.488   2.510 -0.3667  0.9492 -1.4209
 3114TIP3    H230834   6.873   1.455   2.576 -1.3698 -0.8885 -0.2681
 3115TIP3   OH230835   5.932   6.801   3.086  0.1986 -0.7564 -0.3933
 3115TIP3    H130836   5.859   6.844   3.041  1.3875 -0.2139 -1.8593
 3115TIP3    H230837   5.895   6.776   3.172 -1.1178  1.3216 -0.2811
 3116TIP3   OH230838   3.031   3.765  15.438  0.3857 -0.2062  0.0951
 3116TIP3    H130839   3.046   3.717  15.519 -1.1861 -0.5576  0.2104
 3116TIP3    H230840   2.966   3.831  15.462  0.7139  0.3951 -0.6361
 3117TIP3   OH230841   2.095   1.413  16.810  0.6114 -0.1303 -0.0713
 3117TIP3    H130842   2.074   1.413  16.903 -1.1481 -1.8640 -0.3781
 3117TIP3    H230843   2.010   1.420  16.766  1.0799 -2.2158 -1.4901
 3118TIP3   OH230844   6.835   6.683  16.404 -0.0013 -0.0720  0.6147
 3118TIP3    H130845   6.761   6.737  16.377  0.2262 -0.8259 -1.7083
 3118TIP3    H230846   6.910   6.743  16.404 -0.2900  0.2970  1.2037
 3119TIP3   OH230847   2.772   3.927  10.872 -0.6364 -0.2040 -0.2917
 3119TIP3    H130848   2.843   3.936  10.808  0.7441  1.0382  1.2980
 3119TIP3    H230849   2.697   3.970  10.831  0.6379  1.9658 -0.5480
 3120TIP3   OH230850   5.318   0.127   1.056 -0.5403 -0.6687  0.3154
 3120TIP3    H130851   5.354   0.167   1.134 -1.4432  0.1129  0.3480
 3120TIP3    H230852   5.311   0.198   0.993  1.6870 -1.5716 -1.0798
 3121TIP3   OH230853   6.781   5.009   3.158 -0.5844  0.6668  0.0470
 3121TIP3    H130854   6.811   5.013   3.248 -1.6334 -1.2282  0.5229
 3121TIP3    H230855   6.738   4.924   3.150  1.5172 -0.2856 -2.8919
 3122TIP3   OH230856   0.857   1.351  12.500  0.1192  0.4940 -0.0783
 3122TIP3    H130857   0.934   1.306  12.465  0.8453  1.5411  0.1150
 3122TIP3    H230858   0.881   1.444  12.500 -0.7493  0.7488  0.9539
 3123TIP3   OH230859   1.491   0.314  16.634 -0.1869  0.1838 -0.2971
 3123TIP3    H130860   1.498   0.241  16.571 -2.7515 -1.1980  0.8817
 3123TIP3    H230861   1.472   0.390  16.580 -1.0280 -0.7240 -1.3359
 3124TIP3   OH230862   6.540   3.839  13.589 -0.3501 -0.0922  0.3477
 3124TIP3    H130863   6.626   3.840  13.632 -0.5364 -0.1055  0.7256
 3124TIP3    H230864   6.548   3.902  13.518 -0.5861  1.2846  1.4959
 3125TIP3   OH230865   4.844   4.853  13.120  0.4280 -0.2981 -0.3594
 3125TIP3    H130866   4.851   4.824  13.029  1.7113  0.7950 -0.6457
 3125TIP3    H230867   4.880   4.781  13.171 -1.0053 -1.2479 -0.6221
 3126TIP3   OH230868   3.972   0.825   2.990  0.2572 -0.8966 -0.4942
 3126TIP3    H130869   3.929   0.787   3.066 -2.7911 -1.1193 -2.1827
 3126TIP3    H230870   3.997   0.750   2.936 -1.5777 -0.7387 -1.6651
 3127TIP3   OH230871   2.811   4.898  15.287 -0.1844 -0.9820 -0.2377
 3127TIP3    H130872   2.754   4.924  15.359  0.2029  0.4380 -0.4128
 3127TIP3    H230873   2.787   4.956  15.215  1.0265 -0.7908 -0.5158
 3128TIP3   OH230874   0.022   3.059   0.726 -0.1529 -0.5030  0.1372
 3128TIP3    H130875   0.048   3.146   0.697 -1.2841 -0.3465 -0.4407
 3128TIP3    H230876  -0.068   3.049   0.695 -0.7216 -1.1098  1.8776
 3129TIP3   OH230877   5.048   5.028  13.156  0.1125 -0.2041 -0.4853
 3129TIP3    H130878   5.091   4.951  13.193  0.5997  0.2914  0.0095
 3129TIP3    H230879   4.964   4.996  13.123  0.1475 -0.8693  0.0553
 3130TIP3   OH230880   3.016   2.409   1.109 -0.3571 -0.4150  0.1655
 3130TIP3    H130881   3.036   2.431   1.018  2.1262 -1.5690  0.3527
 3130TIP3    H230882   2.978   2.321   1.104 -0.7617 -0.2467  0.2188
 3131TIP3   OH230883   2.997   1.252  13.567  0.0961 -0.6249  0.0951
 3131TIP3    H130884   2.928   1.301  13.523 -0.7483 -0.7915  1.2013
 3131TIP3    H230885   2.978   1.160  13.549  0.9547 -0.6280 -0.9138
 3132TIP3   OH230886   5.431   3.596   0.219  0.1593 -0.6586 -0.5993
 3132TIP3    H130887   5.352   3.545   0.238 -0.9025  0.7396 -1.1669
 3132TIP3    H230888   5.416   3.681   0.260  1.0172 -0.0818 -1.4398
 3133TIP3   OH230889   3.944   5.620   0.350  0.4800  0.3444  0.1887
 3133TIP3    H130890   3.939   5.534   0.309 -1.4303  0.1727  0.6611
 3133TIP3    H230891   3.926   5.605   0.442 -0.3536  1.2696  0.2037
 3134TIP3   OH230892   2.791   6.058  11.418  0.1735 -0.3320  0.7934
 3134TIP3    H130893   2.811   5.969  11.388 -0.8670  0.1193 -1.4352
 3134TIP3    H230894   2.698   6.069  11.398  0.3955  1.4124  0.5930
 3135TIP3   OH230895   0.413   2.953  16.815 -0.2363 -0.7668 -0.0402
 3135TIP3    H130896   0.394   3.032  16.765  0.5250 -0.5433  0.0053
 3135TIP3    H230897   0.430   2.984  16.904  0.6274 -0.9069 -0.1468
 3136TIP3   OH230898   3.097   1.536   0.377  0.2203 -0.2908  0.5568
 3136TIP3    H130899   3.130   1.509   0.463 -0.2207  1.0723  1.1756
 3136TIP3    H230900   3.006   1.506   0.376 -0.3095  1.2264  1.2970
 3137TIP3   OH230901   2.446   2.032  10.915 -0.4122 -0.5680  0.5242
 3137TIP3    H130902   2.387   1.957  10.908  1.4193 -2.2095  1.6543
 3137TIP3    H230903   2.531   1.999  10.886  0.3281  1.2409  0.5032
 3138TIP3   OH230904   1.660   2.597  12.212 -0.8221 -0.2094  0.1727
 3138TIP3    H130905   1.707   2.653  12.274  0.5413  1.6983 -2.3880
 3138TIP3    H230906   1.714   2.518  12.205 -2.1525 -1.5143  2.9252
 3139TIP3   OH230907   6.386   6.141   0.544 -0.3807  0.3891 -0.1423
 3139TIP3    H130908   6.421   6.170   0.628  0.6527 -2.8930  0.7118
 3139TIP3    H230909   6.462   6.140   0.485 -0.3346 -0.5972 -0.0929
 3140TIP3   OH230910   4.518   1.999   0.387  0.0517  0.1477 -0.2103
 3140TIP3    H130911   4.577   1.925   0.405  0.5283 -0.1952 -2.8724
 3140TIP3    H230912   4.433   1.959   0.372  0.4190  0.0292 -2.1762
 3141TIP3   OH230913   3.617   4.708  11.301  0.0607  0.2527 -0.4003
 3141TIP3    H130914   3.671   4.665  11.367 -2.1924 -0.8651  0.8330
 3141TIP3    H230915   3.668   4.703  11.220  1.6381 -0.9816  0.6226
 3142TIP3   OH230916   3.107   0.378  14.095  0.2314 -0.6224  0.5443
 3142TIP3    H130917   3.114   0.285  14.075 -0.5846 -0.4237 -0.7437
 3142TIP3    H230918   3.052   0.381  14.174  1.0434 -1.2626  1.1519
 3143TIP3   OH230919   1.145   1.109  13.325 -0.7552  0.5144  0.1781
 3143TIP3    H130920   1.224   1.164  13.321 -0.5577  0.2732  0.6818
 3143TIP3    H230921   1.128   1.099  13.418 -0.2712 -1.0058  0.1239
 3144TIP3   OH230922   2.885   1.758  14.913  0.1029  0.2587 -0.5826
 3144TIP3    H130923   2.899   1.727  15.002  1.7784  0.4436 -0.7335
 3144TIP3    H230924   2.950   1.827  14.901  1.3030 -1.0712 -2.5392
 3145TIP3   OH230925   5.780   0.398   0.303  0.1814  0.7558 -0.1539
 3145TIP3    H130926   5.791   0.442   0.218 -0.8325 -0.7024 -1.0858
 3145TIP3    H230927   5.828   0.316   0.293 -0.9614  0.0231  0.2315
 3146TIP3   OH230928   1.445   6.020   1.594 -0.5942 -0.8675  0.4276
 3146TIP3    H130929   1.528   6.067   1.602 -1.0383 -0.1701  1.0078
 3146TIP3    H230930   1.470   5.928   1.589  0.1484 -0.8125  2.3661
 3147TIP3   OH230931   6.255   5.114   4.771  0.0272  0.3395  0.0142
 3147TIP3    H130932   6.207   5.191   4.743  2.0364  1.7396  0.2007
 3147TIP3    H230933   6.187   5.050   4.793 -1.6874  1.8496 -0.6298
 3148TIP3   OH230934   3.225   5.357   6.002 -0.2341 -0.0986  0.1885
 3148TIP3    H130935   3.271   5.425   6.050  0.4426  1.1125 -2.0306
 3148TIP3    H230936   3.257   5.275   6.040  1.9088  0.7528  0.3640
 3149TIP3   OH230937   6.801   2.240  13.977  0.3246  0.4126  0.2379
 3149TIP3    H130938   6.779   2.304  13.910 -1.7857  1.7297  2.0323
 3149TIP3    H230939   6.843   2.291  14.046  0.3994 -0.4821  0.8744
 3150TIP3   OH230940   6.555   6.077  16.868 -0.4090  0.0016  0.6828
 3150TIP3    H130941   6.508   6.010  16.916 -0.2643 -1.8506 -1.5681
 3150TIP3    H230942   6.613   6.029  16.809  1.0852  2.1470  0.2585
 3151TIP3   OH230943   2.990   3.924   3.985 -0.2213  0.6959 -0.2880
 3151TIP3    H130944   2.939   3.960   4.058 -0.3860 -1.8261  0.9316
 3151TIP3    H230945   2.933   3.934   3.909 -1.7979 -0.3829  0.7084
 3152TIP3   OH230946   0.163   6.713  12.694  0.0722  0.4539 -0.2886
 3152TIP3    H130947   0.214   6.634  12.676 -0.5321  0.2988 -1.3939
 3152TIP3    H230948   0.207   6.782  12.644 -2.7492 -0.3542 -4.3930
 3153TIP3   OH230949   6.627   1.722  12.209  0.7619 -0.4171  0.0379
 3153TIP3    H130950   6.628   1.764  12.122 -0.2380  0.7461  0.5631
 3153TIP3    H230951   6.637   1.629  12.190 -0.7903 -0.3409 -1.4536
 3154TIP3   OH230952   0.173   4.287  13.642  0.0424 -0.1256 -1.0715
 3154TIP3    H130953   0.172   4.192  13.629 -0.7658 -0.5238  1.3898
 3154TIP3    H230954   0.263   4.313  13.619  1.0827 -1.9319  0.6522
 3155TIP3   OH230955   4.188   0.064   4.197 -0.1579  0.3016  0.6710
 3155TIP3    H130956   4.162   0.036   4.285 -2.4139  0.0764  0.0049
 3155TIP3    H230957   4.159   0.155   4.191  1.4108  0.8265  0.6574
 3156TIP3   OH230958   2.205   4.036   4.276  0.1761 -0.2782  0.6257
 3156TIP3    H130959   2.276   4.093   4.247 -0.2562  0.2799  0.6486
 3156TIP3    H230960   2.244   3.983   4.346  0.8164 -0.6132  0.0292
 3157TIP3   OH230961   2.170   1.118   0.334  0.5116 -0.0888 -0.4362
 3157TIP3    H130962   2.234   1.087   0.270 -0.0060 -2.4512  0.1153
 3157TIP3    H230963   2.087   1.119   0.286  0.0761 -2.1107  0.1887
 3158TIP3   OH230964   1.561   3.574  10.827  0.3206  0.7439 -0.8110
 3158TIP3    H130965   1.636   3.581  10.886 -0.5829  1.7269  0.2723
 3158TIP3    H230966   1.597   3.592  10.740  0.9991  3.6107 -0.0515
 3159TIP3   OH230967   3.181   5.265  11.478 -0.2140  0.1151  0.5810
 3159TIP3    H130968   3.197   5.203  11.549  0.4355 -0.0293  0.3131
 3159TIP3    H230969   3.256   5.323  11.480 -1.2565  1.5045  1.4467
 3160TIP3   OH230970   3.863   3.723   4.266 -0.3642 -0.1445 -0.2824
 3160TIP3    H130971   3.874   3.810   4.306 -1.3826 -0.6209  1.0909
 3160TIP3    H230972   3.871   3.740   4.172  1.3648  1.1296  0.0443
 3161TIP3   OH230973   1.645   0.046   4.239 -0.6127 -0.7938 -0.2319
 3161TIP3    H130974   1.603   0.030   4.155 -0.9573 -0.0520 -0.2130
 3161TIP3    H230975   1.675   0.137   4.234 -2.2508 -0.1112  1.0896
 3162TIP3   OH230976   0.192   0.969  15.592  0.2544 -0.0434 -0.7289
 3162TIP3    H130977   0.140   0.980  15.672  0.5139 -4.6599  0.3201
 3162TIP3    H230978   0.128   0.968  15.521 -0.6087 -1.0862  0.0403
 3163TIP3   OH230979   3.190   3.011   1.981 -0.2158  0.1911  0.4116
 3163TIP3    H130980   3.272   2.998   1.933  0.1251  1.1383  0.7243
 3163TIP3    H230981   3.211   2.990   2.072 -0.7520 -1.1647  0.2582
 3164TIP3   OH230982   4.809   6.604   0.093 -0.3341 -0.1337 -0.0866
 3164TIP3    H130983   4.875   6.653   0.044  0.8318 -1.4779  0.0487
 3164TIP3    H230984   4.727   6.619   0.046  0.3380  0.4082 -1.1260
 3165TIP3   OH230985   5.725   0.433  11.270  0.0366  0.2245 -0.7334
 3165TIP3    H130986   5.771   0.489  11.333 -0.3382  1.3198 -1.4032
 3165TIP3    H230987   5.686   0.364  11.324  0.7685  0.4121  0.0774
 3166TIP3   OH230988   2.082   4.454  15.337  0.0320  0.1232 -0.4775
 3166TIP3    H130989   2.128   4.461  15.253  1.5966  2.2567  0.4574
 3166TIP3    H230990   2.073   4.359  15.352  2.4780 -0.3713 -1.6431
 3167TIP3   OH230991   5.320   5.743   6.274 -0.2961  0.5453 -0.2957
 3167TIP3    H130992   5.321   5.651   6.300 -2.5395  0.4269 -0.4033
 3167TIP3    H230993   5.362   5.789   6.346  0.9312 -0.5457 -0.2764
 3168TIP3   OH230994   1.881   1.439  15.773 -0.1269 -0.3467  0.2924
 3168TIP3    H130995   1.960   1.484  15.742  0.9545 -0.7209  2.2992
 3168TIP3    H230996   1.865   1.477  15.860 -1.3452 -1.2673  0.4944
 3169TIP3   OH230997   0.439   0.927  13.174  0.6671 -0.2399  0.4704
 3169TIP3    H130998   0.533   0.910  13.179  0.6654 -0.7282 -0.8097
 3169TIP3    H230999   0.398   0.848  13.209  0.7096  0.4650  2.2286
 3170TIP3   OH231000   3.942   6.781  16.383  0.0831 -0.6067  0.3250
 3170TIP3    H131001   3.881   6.784  16.309  2.0501  0.2974 -1.3645
 3170TIP3    H231002   3.914   6.704  16.433 -3.7997  0.9727  0.9808
 3171TIP3   OH231003   0.704   4.277  12.988  0.0941  0.0448 -0.4057
 3171TIP3    H131004   0.746   4.355  12.951 -0.4984  1.4541  1.6735
 3171TIP3    H231005   0.665   4.232  12.913  3.4157 -0.2350 -2.1667
 3172TIP3   OH231006   4.128   1.666  11.697  0.0978 -0.4024 -0.0178
 3172TIP3    H131007   4.204   1.675  11.640 -0.1182  2.2912 -0.0147
 3172TIP3    H231008   4.052   1.681  11.640 -0.2285  0.0723  0.5179
 3173TIP3   OH231009   6.198   4.486  15.183 -0.6368  0.2380 -0.3861
 3173TIP3    H131010   6.143   4.413  15.212 -0.0739 -0.4161 -0.9293
 3173TIP3    H231011   6.186   4.553  15.250  0.5261 -1.1669  1.3119
 3174TIP3   OH231012   3.333   2.976  14.336 -0.0325 -0.2397  0.7068
 3174TIP3    H131013   3.352   2.978  14.242 -2.4103 -1.1506  0.1427
 3174TIP3    H231014   3.342   2.884  14.361  0.5784 -0.0050  1.3945
 3175TIP3   OH231015   6.460   6.031  15.846 -0.2827  0.5125 -0.1240
 3175TIP3    H131016   6.389   5.974  15.877 -1.9791  2.4174 -0.2698
 3175TIP3    H231017   6.448   6.035  15.751  0.0503  0.8349 -0.1529
 3176TIP3   OH231018   4.409   6.707  13.431  0.3022 -0.1726 -0.4670
 3176TIP3    H131019   4.319   6.717  13.402  0.5842  0.9100 -1.0477
 3176TIP3    H231020   4.403   6.686  13.524 -0.5978 -2.4345 -0.9716
 3177TIP3   OH231021   6.410   2.723  11.958 -0.3981 -0.7678  0.2674
 3177TIP3    H131022   6.392   2.702  12.050 -0.7021  1.1735  0.6959
 3177TIP3    H231023   6.410   2.818  11.955 -0.0713 -0.7909 -1.7069
 3178TIP3   OH231024   6.699   3.596  16.601 -0.4214  0.1292  0.1785
 3178TIP3    H131025   6.728   3.687  16.610  0.7615 -0.1464 -0.7450
 3178TIP3    H231026   6.640   3.596  16.526  1.2086 -0.2071 -1.1565
 3179TIP3   OH231027   6.605   1.906  11.996 -0.6353 -0.3399  0.7215
 3179TIP3    H131028   6.510   1.916  11.989 -0.6444 -0.6828  0.3149
 3179TIP3    H231029   6.635   1.895  11.905 -0.3811 -1.6964  0.9438
 3180TIP3   OH231030   3.982   6.280  15.784  0.3507  0.3483 -0.2103
 3180TIP3    H131031   4.003   6.330  15.706  0.3932 -0.6959 -0.8874
 3180TIP3    H231032   3.927   6.208  15.753 -0.6761  0.6206  0.9117
 3181TIP3   OH231033   0.716   0.722   4.212 -0.4556 -0.1976 -0.2036
 3181TIP3    H131034   0.669   0.709   4.295  0.1271 -0.9452  0.0261
 3181TIP3    H231035   0.791   0.776   4.235 -0.1817 -0.5732 -0.1886
 3182TIP3   OH231036   4.233   3.187  13.804 -0.4699  0.2957 -0.1659
 3182TIP3    H131037   4.254   3.275  13.837  3.3190  0.5540 -2.6615
 3182TIP3    H231038   4.179   3.203  13.727 -1.1627  0.2879  0.3083
 3183TIP3   OH231039   2.336   2.079   5.178  0.3775  0.0335  0.1173
 3183TIP3    H131040   2.318   2.052   5.088 -0.3366 -0.2007  0.3248
 3183TIP3    H231041   2.251   2.077   5.222  0.7530 -0.1101  0.8679
 3184TIP3   OH231042   4.049   0.555   4.319  0.0133  0.0907  0.2387
 3184TIP3    H131043   4.040   0.502   4.240  2.6170 -0.8744  0.4877
 3184TIP3    H231044   4.055   0.491   4.390  5.3824  0.2291  0.3578
 3185TIP3   OH231045   2.734   3.316  13.627 -0.1928  0.1855 -0.1383
 3185TIP3    H131046   2.707   3.283  13.713  1.9783 -1.0022  0.1620
 3185TIP3    H231047   2.662   3.373  13.599 -0.7654  1.0050  2.6746
 3186TIP3   OH231048   6.021   4.311   0.815  1.0067 -0.1098 -0.0802
 3186TIP3    H131049   6.097   4.266   0.854  1.5999  1.3716  0.5221
 3186TIP3    H231050   5.949   4.292   0.874  1.2486 -0.2911  0.1613
 3187TIP3   OH231051   3.834   1.783   1.898 -0.1636 -0.2790 -0.3276
 3187TIP3    H131052   3.811   1.872   1.871  0.1379 -0.4913 -1.3261
 3187TIP3    H231053   3.900   1.794   1.966 -0.2085  0.2612 -0.3683
 3188TIP3   OH231054   1.840   4.112   4.761 -0.9230 -0.6656  0.9914
 3188TIP3    H131055   1.839   4.040   4.824  2.3375 -0.1290  1.8043
 3188TIP3    H231056   1.778   4.176   4.796 -0.9752 -1.4247  2.3377
 3189TIP3   OH231057   4.309   6.612  12.358  0.2525 -0.1081 -0.2198
 3189TIP3    H131058   4.340   6.696  12.325 -1.5021  1.2882  1.4957
 3189TIP3    H231059   4.222   6.630  12.394 -0.5181 -2.8168 -0.4451
 3190TIP3   OH231060   4.406   4.458  10.850 -0.2532 -0.6368 -0.4339
 3190TIP3    H131061   4.483   4.512  10.836 -1.2883  0.5683 -1.8739
 3190TIP3    H231062   4.356   4.466  10.769 -2.8576  0.2496  1.1392
 3191TIP3   OH231063   2.316   0.187   4.684 -0.1449 -0.4652 -1.2339
 3191TIP3    H131064   2.274   0.107   4.715 -0.6059  0.8899  1.9615
 3191TIP3    H231065   2.265   0.211   4.606 -2.5824 -1.1871  0.0268
 3192TIP3   OH231066   3.990   2.131  15.705 -0.0591 -0.2004 -0.4242
 3192TIP3    H131067   4.008   2.067  15.637  1.6939  1.5121 -1.6976
 3192TIP3    H231068   4.073   2.178  15.717 -0.4477 -0.0712  2.5471
 3193TIP3   OH231069   6.472   3.016  15.440 -0.4242 -0.1631 -0.2806
 3193TIP3    H131070   6.436   2.962  15.511  1.3925 -0.4583  0.4676
 3193TIP3    H231071   6.565   2.997  15.440 -0.1970  0.7229 -2.0162
 3194TIP3   OH231072   4.318   0.482  10.385  0.4853 -0.1763  0.0099
 3194TIP3    H131073   4.295   0.429  10.461 -0.9858  1.3318  0.6923
 3194TIP3    H231074   4.257   0.454  10.317  2.0889 -1.8346 -0.8234
 3195TIP3   OH231075   2.858   2.399   1.820 -0.4229  0.2641  0.6626
 3195TIP3    H131076   2.927   2.360   1.873  0.2258  0.5471  0.0326
 3195TIP3    H231077   2.839   2.482   1.862 -0.2390  0.2764  0.7187
 3196TIP3   OH231078   2.066   5.961   4.253  0.2145 -0.1216 -0.6379
 3196TIP3    H131079   2.139   5.905   4.277 -0.6854 -0.8138  0.5981
 3196TIP3    H231080   2.083   6.044   4.297  1.2306  0.4133 -1.9662
 3197TIP3   OH231081   3.755   4.523  14.598  0.0742  0.0865 -1.0013
 3197TIP3    H131082   3.809   4.465  14.652  0.5237  1.3482 -0.0426
 3197TIP3    H231083   3.815   4.555  14.530  0.7287  1.7686  0.2721
 3198TIP3   OH231084   6.226   6.236   1.943 -0.4907  0.0970  0.2644
 3198TIP3    H131085   6.284   6.227   2.019 -1.3453  0.0170  0.9185
 3198TIP3    H231086   6.269   6.185   1.875  0.0016 -0.3147  0.8667
 3199TIP3   OH231087   1.838   5.049   6.033  0.1372  0.0984  0.1891
 3199TIP3    H131088   1.765   5.014   5.983  0.9033 -1.0413 -0.1677
 3199TIP3    H231089   1.812   5.139   6.054 -0.4449  0.4271 -1.7529
 3200TIP3   OH231090   3.355   2.291   5.287  0.2296  0.2569 -0.1142
 3200TIP3    H131091   3.424   2.270   5.224  0.5788 -0.2065  0.4104
 3200TIP3    H231092   3.402   2.310   5.369 -0.2984 -1.0762  0.5287
 3201TIP3   OH231093   3.979   3.880  11.983  0.2703  0.0157  0.0015
 3201TIP3    H131094   3.893   3.903  12.018  0.3318 -1.7153  1.3898
 3201TIP3    H231095   4.039   3.939  12.028 -0.2637  2.7123 -2.4808
 3202TIP3   OH231096   2.365   3.139  11.316 -0.1042 -0.1928  0.1932
 3202TIP3    H131097   2.405   3.216  11.357  0.8076 -0.5385 -0.0380
 3202TIP3    H231098   2.401   3.138  11.227 -0.2711 -0.7770  0.1319
 3203TIP3   OH231099   4.349   0.959  13.213 -0.0838  0.2924  0.3684
 3203TIP3    H131100   4.274   0.905  13.189  0.4886 -0.3173 -0.0779
 3203TIP3    H231101   4.401   0.964  13.133  0.8889 -0.1739  0.9619
 3204TIP3   OH231102   1.691   5.106   1.699  0.2314  0.4972 -0.0991
 3204TIP3    H131103   1.759   5.051   1.660 -0.2184 -0.0947 -0.0685
 3204TIP3    H231104   1.620   5.105   1.634 -0.4864 -0.4213  0.6689
 3205TIP3   OH231105   1.589   2.286  13.694  0.2072 -0.0749  0.1029
 3205TIP3    H131106   1.577   2.379  13.674 -0.9054  0.3842  2.5148
 3205TIP3    H231107   1.622   2.248  13.613  0.8673  2.4469 -0.9102
 3206TIP3   OH231108   4.928   2.590   4.918 -0.1288 -0.0356  0.0290
 3206TIP3    H131109   4.924   2.515   4.978 -0.6801  0.9145  1.2149
 3206TIP3    H231110   4.872   2.656   4.958 -0.4258  0.6833 -1.4963
 3207TIP3   OH231111   5.000   0.342  12.410 -0.0750  0.1672  0.4735
 3207TIP3    H131112   4.980   0.277  12.343  0.4719 -0.4763  0.9235
 3207TIP3    H231113   4.979   0.299  12.493 -2.5519  1.5886  0.6898
 3208TIP3   OH231114   4.248   3.376  12.390  0.0299 -0.0346 -0.7048
 3208TIP3    H131115   4.168   3.340  12.429  0.4411  0.4086  0.5960
 3208TIP3    H231116   4.227   3.469  12.375  0.1526 -0.0249 -0.8191
 3209TIP3   OH231117   1.715   5.998   2.259 -0.6346 -0.3312  0.6154
 3209TIP3    H131118   1.704   5.985   2.353  0.4776  0.8574  0.9411
 3209TIP3    H231119   1.665   6.077   2.239 -1.2087 -0.8110  0.1181
 3210TIP3   OH231120   2.540   3.723  16.449  0.3195 -0.4953 -0.3526
 3210TIP3    H131121   2.578   3.636  16.437  2.0488  0.3040 -1.0551
 3210TIP3    H231122   2.610   3.783  16.425 -1.3490  1.1089 -1.5401
 3211TIP3   OH231123   6.111   6.712   1.615 -0.1374 -0.1889  0.4888
 3211TIP3    H131124   6.120   6.638   1.675  1.1859 -0.4244  0.0442
 3211TIP3    H231125   6.197   6.719   1.573 -0.7065  0.6391 -0.5974
 3212TIP3   OH231126   4.225   6.097   0.800 -0.2504  0.2402 -0.7183
 3212TIP3    H131127   4.241   6.055   0.716  0.2055  1.5263 -1.2913
 3212TIP3    H231128   4.242   6.190   0.785 -0.9734  0.6130  0.5823
 3213TIP3   OH231129   0.710   0.101   0.694 -0.4760  0.2874 -0.1682
 3213TIP3    H131130   0.656   0.174   0.663  1.5346  0.9722 -2.3028
 3213TIP3    H231131   0.789   0.143   0.730  0.3282 -0.7854 -0.6385
 3214TIP3   OH231132   0.968   5.182  11.288 -0.4693  0.0733 -0.3827
 3214TIP3    H131133   0.928   5.263  11.321  0.7151  0.7077 -0.4285
 3214TIP3    H231134   1.038   5.212  11.230 -1.8588 -1.0232 -2.7406
 3215TIP3   OH231135   4.456   1.225   5.462  0.2432  0.7595 -0.1539
 3215TIP3    H131136   4.468   1.307   5.413 -1.6833  2.4748  2.0247
 3215TIP3    H231137   4.362   1.218   5.474  0.5203 -0.6926  1.5151
 3216TIP3   OH231138   1.020   6.169  12.464 -0.0061 -0.0332 -0.6058
 3216TIP3    H131139   0.999   6.249  12.513  0.2568 -0.8341  0.8613
 3216TIP3    H231140   0.935   6.141  12.429 -0.0704  0.9860 -1.3083
 3217TIP3   OH231141   4.954   1.438  15.676  0.3010 -0.2522  0.2860
 3217TIP3    H131142   4.999   1.423  15.593 -2.1149 -1.0041 -0.9867
 3217TIP3    H231143   4.925   1.529  15.671  2.6541  0.6688  1.6918
 3218TIP3   OH231144   4.114   3.026   0.880  0.2189  0.2442  0.1137
 3218TIP3    H131145   4.056   3.049   0.953 -0.6213 -1.2414 -0.0312
 3218TIP3    H231146   4.158   3.108   0.857 -0.5097  1.0309  1.3930
 3219TIP3   OH231147   5.669   4.394   1.150  0.4321  0.1262 -0.8758
 3219TIP3    H131148   5.756   4.376   1.187  1.2673  2.3020 -1.6040
 3219TIP3    H231149   5.673   4.486   1.125 -2.2580  0.4116 -0.5440
 3220TIP3   OH231150   5.773   2.304  12.473  0.0438 -0.7250  0.1813
 3220TIP3    H131151   5.838   2.243  12.437  1.0920  1.4499 -1.9427
 3220TIP3    H231152   5.824   2.360  12.531 -0.3417 -0.2642  0.0781
 3221TIP3   OH231153   0.673   6.166   5.991 -0.0024  0.4973  0.0399
 3221TIP3    H131154   0.743   6.224   6.023  1.2400 -0.0119 -1.6275
 3221TIP3    H231155   0.710   6.078   6.000  0.9498  0.3626 -3.7946
 3222TIP3   OH231156   0.911   1.201   1.623 -0.0971  0.3047  0.7971
 3222TIP3    H131157   0.842   1.147   1.584  0.0458  1.1309 -0.6470
 3222TIP3    H231158   0.873   1.288   1.631  0.6844  0.7076  0.2430
 3223TIP3   OH231159   5.707   0.186   1.152  0.1916 -0.2360  0.5460
 3223TIP3    H131160   5.755   0.172   1.234 -0.5362  0.0386  1.0243
 3223TIP3    H231161   5.705   0.099   1.111 -0.2627 -0.5763  1.2706
 3224TIP3   OH231162   6.251   4.249  14.767 -0.5376 -0.1917 -0.0157
 3224TIP3    H131163   6.273   4.160  14.794  0.1417  0.6004  2.2750
 3224TIP3    H231164   6.321   4.303  14.805 -1.2424  1.3811 -0.8796
 3225TIP3   OH231165   0.665   6.172  11.074  0.2020 -0.3853 -0.4015
 3225TIP3    H131166   0.721   6.133  11.142 -0.9334 -0.5287  0.4937
 3225TIP3    H231167   0.710   6.154  10.992  2.0749  0.5673  0.3683
 3226TIP3   OH231168   3.716   1.515  10.471 -0.0977  0.2155 -0.6688
 3226TIP3    H131169   3.646   1.449  10.472  0.2861 -0.1906 -0.1966
 3226TIP3    H231170   3.730   1.533  10.378  0.5621 -1.2051 -0.8710
 3227TIP3   OH231171   4.069   5.097   1.749  0.0349 -0.3023  0.2461
 3227TIP3    H131172   4.100   5.117   1.661 -0.3298  0.5467  0.3010
 3227TIP3    H231173   4.149   5.094   1.802  0.1515  0.4709  0.1230
 3228TIP3   OH231174   2.287   1.483  14.331  0.1236 -0.0320  0.0186
 3228TIP3    H131175   2.263   1.481  14.424 -0.6348 -0.5589 -0.1736
 3228TIP3    H231176   2.328   1.398  14.315 -2.0706 -1.0488 -0.6814
 3229TIP3   OH231177   4.667   1.437   2.561 -0.2258 -0.3860 -0.0301
 3229TIP3    H131178   4.650   1.428   2.655  1.9881  0.1598  0.4778
 3229TIP3    H231179   4.675   1.531   2.546 -1.9967 -0.3581 -1.0959
 3230TIP3   OH231180   5.503   6.521   5.592  0.8784 -0.0448 -0.0607
 3230TIP3    H131181   5.418   6.560   5.571 -0.0281 -1.3127  1.0389
 3230TIP3    H231182   5.551   6.521   5.509 -1.2823 -1.9037 -1.4364
 3231TIP3   OH231183   4.246   4.641   0.806  0.5763  0.0478 -0.3493
 3231TIP3    H131184   4.246   4.737   0.802  1.0773  0.0400 -0.5696
 3231TIP3    H231185   4.181   4.620   0.873  0.7514  0.5545 -0.0174
 3232TIP3   OH231186   2.277   5.980  14.546 -0.0877  0.3992 -0.3557
 3232TIP3    H131187   2.327   6.019  14.474  0.2096 -0.6319 -0.7348
 3232TIP3    H231188   2.186   5.992  14.521  0.0076  0.3901 -0.7216
 3233TIP3   OH231189   5.696   2.382   0.534  0.3882 -0.2018  0.0524
 3233TIP3    H131190   5.738   2.297   0.550  3.2401  0.8891 -0.9181
 3233TIP3    H231191   5.764   2.433   0.490 -1.4270  2.4214  0.1225
 3234TIP3   OH231192   3.436   6.685   3.373 -0.1912  0.5842 -0.2561
 3234TIP3    H131193   3.474   6.766   3.407  0.6801  0.6012 -1.2240
 3234TIP3    H231194   3.342   6.697   3.381 -0.0511  1.4977  0.0570
 3235TIP3   OH231195   5.537   2.861   1.497  0.3971 -0.0240 -0.2784
 3235TIP3    H131196   5.494   2.933   1.450 -1.1390 -1.1284 -0.6229
 3235TIP3    H231197   5.628   2.864   1.467  0.0782  1.0114 -1.2094
 3236TIP3   OH231198   3.331   5.833   4.967  0.0491 -0.8476 -0.0478
 3236TIP3    H131199   3.325   5.739   4.950  0.0988 -0.5493 -1.8399
 3236TIP3    H231200   3.259   5.851   5.028 -1.8273 -1.5656 -1.9547
 3237TIP3   OH231201   1.451   6.681   0.749 -0.0772 -0.0845 -0.0425
 3237TIP3    H131202   1.509   6.754   0.731  0.0551 -0.6181 -1.9693
 3237TIP3    H231203   1.408   6.663   0.665 -0.2761 -2.0481  0.4341
 3238TIP3   OH231204   5.132   0.400   5.707  0.0064 -0.3640  0.1315
 3238TIP3    H131205   5.157   0.365   5.793 -2.4588  0.3573  1.2153
 3238TIP3    H231206   5.205   0.376   5.650  2.7998  0.9505  2.8290
 3239TIP3   OH231207   4.453   5.916   0.875 -0.0095 -0.2342  0.1424
 3239TIP3    H131208   4.369   5.880   0.845  0.1882 -0.8511  0.3245
 3239TIP3    H231209   4.432   5.957   0.959  0.3568 -2.6661  1.4951
 3240TIP3   OH231210   5.257   6.523  16.443 -0.5691 -0.5102  0.1119
 3240TIP3    H131211   5.197   6.453  16.417  1.4788 -1.9432 -1.0365
 3240TIP3    H231212   5.260   6.581  16.366 -0.8292 -0.1634  0.3574
 3241TIP3   OH231213   5.379   0.372   5.582  0.2054  0.8059  0.9871
 3241TIP3    H131214   5.396   0.329   5.666  1.3729  0.8267  0.7789
 3241TIP3    H231215   5.438   0.447   5.582 -0.1922  1.1231  0.3782
 3242TIP3   OH231216   1.125   5.549  14.121  0.0149  0.1828  0.2441
 3242TIP3    H131217   1.068   5.497  14.063  0.1186  0.1368  0.1824
 3242TIP3    H231218   1.067   5.579  14.190  0.2339 -1.2433  1.0955
 3243TIP3   OH231219   5.002   3.363  15.079 -0.5299  0.1634  0.4730
 3243TIP3    H131220   4.971   3.452  15.063  2.3098  1.0875 -0.4219
 3243TIP3    H231221   4.946   3.308  15.025 -1.4944  1.5281  0.0173
 3244TIP3   OH231222   0.688   4.271   2.655 -0.2440 -0.1989  0.1144
 3244TIP3    H131223   0.605   4.276   2.608 -0.9508 -1.2335  1.2058
 3244TIP3    H231224   0.664   4.265   2.747  1.0906  1.0371  0.5963
 3245TIP3   OH231225   5.040   6.392  15.006  0.1425  0.7084  0.1623
 3245TIP3    H131226   5.106   6.407  14.939 -2.0643 -1.4982 -2.7648
 3245TIP3    H231227   5.048   6.300  15.028 -3.3084 -0.3474 -2.1556
 3246TIP3   OH231228   1.651   4.362   3.675 -0.2435 -0.3595  0.2814
 3246TIP3    H131229   1.583   4.309   3.634  0.0939 -0.9193  0.4236
 3246TIP3    H231230   1.622   4.452   3.664 -0.4332 -0.5272 -0.6769
 3247TIP3   OH231231   4.769   2.934  13.635  0.2319 -0.1918 -0.7634
 3247TIP3    H131232   4.861   2.951  13.653 -0.1679 -0.4014  1.9570
 3247TIP3    H231233   4.730   2.919  13.721 -2.3038 -0.4003 -1.8463
 3248TIP3   OH231234   1.124   1.117   4.207  0.5677  0.8382  0.7373
 3248TIP3    H131235   1.037   1.156   4.195  0.7093  0.7109 -0.9263
 3248TIP3    H231236   1.184   1.180   4.167  1.1275  0.4347  0.9331
 3249TIP3   OH231237   2.308   2.933  15.388 -0.1355  0.3649 -0.7498
 3249TIP3    H131238   2.227   2.915  15.341 -1.0280  2.6727 -0.2167
 3249TIP3    H231239   2.356   2.850  15.386 -1.9467 -0.7166 -2.1337
 3250TIP3   OH231240   0.017   1.971  11.306  0.0212  0.6374 -0.5953
 3250TIP3    H131241   0.078   2.025  11.256 -2.3628  3.6507 -0.5320
 3250TIP3    H231242  -0.069   1.993  11.271 -1.2747 -1.4903  1.0171
 3251TIP3   OH231243   5.492   5.769   3.209 -0.0506  0.4205  0.0057
 3251TIP3    H131244   5.582   5.793   3.231 -0.3229  2.5022 -0.9350
 3251TIP3    H231245   5.493   5.756   3.114  0.1367 -3.9455  0.4184
 3252TIP3   OH231246   3.113   5.838  15.225  1.5481 -0.2164  0.5267
 3252TIP3    H131247   3.189   5.820  15.170  0.1858  0.1492 -1.5844
 3252TIP3    H231248   3.038   5.834  15.165 -0.3659 -2.4503  2.8229
 3253TIP3   OH231249   6.655   3.455   3.571  0.1515  0.3571 -0.2349
 3253TIP3    H131250   6.570   3.435   3.610 -0.4271  0.3212 -1.4877
 3253TIP3    H231251   6.693   3.520   3.630  0.0353 -0.9167  1.3153
 3254TIP3   OH231252   1.824   2.724  11.558  0.3441 -0.3714 -0.0740
 3254TIP3    H131253   1.875   2.650  11.591 -0.8252 -0.9131  0.5802
 3254TIP3    H231254   1.847   2.731  11.465  0.3633 -1.6584 -0.1738
 3255TIP3   OH231255   3.177   2.045  12.879  0.3185 -0.0205  0.3241
 3255TIP3    H131256   3.140   1.983  12.941  1.9301  0.8115  2.1907
 3255TIP3    H231257   3.193   1.993  12.800  1.2963 -1.9085  1.6995
 3256TIP3   OH231258   6.685   4.975  14.510 -0.2759 -0.2942 -0.4248
 3256TIP3    H131259   6.671   5.037  14.438  1.6459  0.4636 -0.1885
 3256TIP3    H231260   6.665   5.025  14.589  1.8058  0.2563 -0.1982
 3257TIP3   OH231261   5.503   0.117   0.742  0.0781 -0.2401  0.4296
 3257TIP3    H131262   5.502   0.201   0.788  2.0168 -0.1187  0.3190
 3257TIP3    H231263   5.590   0.112   0.703 -0.5347 -1.6282 -0.8561
 3258TIP3   OH231264   0.161   3.362   1.023  0.0676 -0.2434 -0.4029
 3258TIP3    H131265   0.190   3.437   1.075 -0.3704  1.3507 -2.3214
 3258TIP3    H231266   0.081   3.392   0.980 -0.5063 -2.0699 -0.7134
 3259TIP3   OH231267   2.141   1.950  10.744 -0.0212 -0.1081 -0.3576
 3259TIP3    H131268   2.098   1.906  10.671 -0.1347 -0.4146 -0.1047
 3259TIP3    H231269   2.207   1.888  10.775 -1.3894 -0.8788  1.1681
 3260TIP3   OH231270   2.125   0.853  11.985  0.1591 -0.7020 -0.1270
 3260TIP3    H131271   2.202   0.797  11.997  1.5135  0.4268 -2.6795
 3260TIP3    H231272   2.129   0.878  11.892 -2.3797  0.7530  0.0812
 3261TIP3   OH231273   1.014   5.388   3.650 -0.0489  0.6646 -0.1432
 3261TIP3    H131274   0.966   5.468   3.625  2.3548  1.4009 -2.8877
 3261TIP3    H231275   1.104   5.416   3.661  0.6143 -1.4572  0.3193
 3262TIP3   OH231276   2.388   4.676  14.895  0.1081  0.1485  0.4701
 3262TIP3    H131277   2.467   4.655  14.846 -0.7367  1.0722 -1.3573
 3262TIP3    H231278   2.316   4.659  14.834 -1.3458 -2.6527  2.6927
 3263TIP3   OH231279   6.068   0.887   0.280 -0.0589 -0.2616  0.3017
 3263TIP3    H131280   6.126   0.960   0.302 -1.0884  1.0931 -1.1489
 3263TIP3    H231281   6.076   0.878   0.185 -1.5065 -0.6350  0.1893
 3264TIP3   OH231282   4.544   5.420   0.871  0.2032  0.0920  0.6395
 3264TIP3    H131283   4.569   5.506   0.906 -1.8740  1.1562 -0.2594
 3264TIP3    H231284   4.605   5.404   0.799  0.7872  0.6848  0.9939
 3265TIP3   OH231285   5.516   5.129   2.628  0.0324 -0.2366 -0.6137
 3265TIP3    H131286   5.512   5.223   2.612 -2.2040 -0.4609 -1.8031
 3265TIP3    H231287   5.468   5.116   2.709 -0.5282 -0.4241 -0.9678
 3266TIP3   OH231288   1.934   6.473   3.977  0.0635 -0.4630 -0.0195
 3266TIP3    H131289   1.853   6.457   3.929  0.2549 -0.7395 -0.2506
 3266TIP3    H231290   1.977   6.388   3.980  0.2273 -0.3693  0.3224
 3267TIP3   OH231291   2.408   1.825  13.011 -0.2566 -0.1212  0.1963
 3267TIP3    H131292   2.426   1.918  13.020 -0.9778  0.2378 -1.6218
 3267TIP3    H231293   2.377   1.798  13.098  1.0225  1.0516  1.0578
 3268TIP3   OH231294   1.456   0.407  11.485  0.0269 -0.0860 -0.0940
 3268TIP3    H131295   1.393   0.473  11.456 -0.2572  0.2960  1.3072
 3268TIP3    H231296   1.529   0.458  11.521  0.2968 -0.5302 -0.0099
 3269TIP3   OH231297   3.165   0.597   0.082 -0.2083 -0.5563  0.1202
 3269TIP3    H131298   3.132   0.528   0.140 -2.2752  0.5993  0.4290
 3269TIP3    H231299   3.212   0.657   0.139 -0.4514 -0.5057  0.2716
 3270TIP3   OH231300   4.560   2.851   0.799  0.4913 -0.1254  0.0999
 3270TIP3    H131301   4.600   2.786   0.858 -1.0247 -1.0020  0.2143
 3270TIP3    H231302   4.578   2.817   0.711 -0.3302 -0.7582  0.1592
 3271TIP3   OH231303   5.848   0.082   4.627  0.1069 -0.2926 -0.3538
 3271TIP3    H131304   5.861   0.080   4.722 -0.3248  0.5592 -0.2647
 3271TIP3    H231305   5.819   0.171   4.609 -0.9941 -0.7744 -1.1279
 3272TIP3   OH231306   1.938   3.559   4.789  0.2645 -0.0029 -0.6234
 3272TIP3    H131307   1.991   3.588   4.863  0.8184  0.7096 -1.2657
 3272TIP3    H231308   1.862   3.517   4.828 -0.8988  2.8349  0.4405
 3273TIP3   OH231309   0.355   0.204   0.679  0.5078  0.6021 -0.1951
 3273TIP3    H131310   0.305   0.136   0.634  0.2886  1.2489 -0.9352
 3273TIP3    H231311   0.398   0.254   0.610  1.5314  0.5761  0.3878
 3274TIP3   OH231312   4.358   0.034   1.571  0.2418  0.1918 -0.3027
 3274TIP3    H131313   4.324   0.116   1.606 -1.4269 -0.4013 -0.4426
 3274TIP3    H231314   4.312  -0.034   1.621  1.0135 -0.6687 -0.7256
 3275TIP3   OH231315   3.768   5.348  16.758  0.5863 -0.0123  0.4591
 3275TIP3    H131316   3.833   5.413  16.784  0.7132 -0.4521  1.2756
 3275TIP3    H231317   3.813   5.295  16.692  0.2229  1.1828 -0.8016
 3276TIP3   OH231318   5.572   4.704  14.948  0.4495  0.2939 -0.1369
 3276TIP3    H131319   5.568   4.799  14.957  0.8862  0.3021  0.0234
 3276TIP3    H231320   5.662   4.682  14.974  0.0483 -0.2678  0.8236
 3277TIP3   OH231321   3.090   6.591   1.517  0.1066 -0.0690  0.2924
 3277TIP3    H131322   3.135   6.552   1.442  1.3410  0.1229  0.9058
 3277TIP3    H231323   3.094   6.523   1.585  0.7515  0.4803  0.8130
 3278TIP3   OH231324   5.405   6.417  14.096 -0.7797  0.0586 -0.3945
 3278TIP3    H131325   5.471   6.364  14.052 -0.3914  0.7284 -0.6250
 3278TIP3    H231326   5.449   6.500  14.115 -1.4178  0.3459 -0.1428
 3279TIP3   OH231327   2.457   4.966  16.748 -0.1885  0.3438 -0.3480
 3279TIP3    H131328   2.535   4.997  16.793  0.6578 -2.0451  0.0113
 3279TIP3    H231329   2.397   4.940  16.819 -0.1390 -0.4567 -0.5855
 3280TIP3   OH231330   2.673   4.639  12.117  0.1176  0.1245  0.9017
 3280TIP3    H131331   2.751   4.604  12.074 -0.5772 -0.1056 -0.2151
 3280TIP3    H231332   2.703   4.663  12.205  1.7747  1.2968  0.0719
 3281TIP3   OH231333   6.132   3.445   1.283 -0.0803 -0.3974 -0.1615
 3281TIP3    H131334   6.079   3.367   1.264 -0.9989  0.2931 -0.4673
 3281TIP3    H231335   6.106   3.471   1.371 -1.8197  1.1411 -1.0595
 3282TIP3   OH231336   3.595   2.270   6.244  0.5413  0.3341  0.0108
 3282TIP3    H131337   3.542   2.333   6.293  0.7288  0.5607 -0.0771
 3282TIP3    H231338   3.576   2.289   6.152 -0.6862 -0.8402  0.0060
 3283TIP3   OH231339   1.044   5.710  13.310 -0.2748 -0.6097  0.3877
 3283TIP3    H131340   1.057   5.705  13.404  0.4021 -0.0030  0.3341
 3283TIP3    H231341   1.119   5.664  13.272  0.3497  0.5674  0.1287
 3284TIP3   OH231342   5.120   1.995  12.093 -0.2584  0.2974 -0.0292
 3284TIP3    H131343   5.051   1.960  12.148 -0.6038 -0.1953 -0.7517
 3284TIP3    H231344   5.120   2.089  12.110  0.7918 -0.0223  2.0704
 3285TIP3   OH231345   2.976   5.848  16.046 -0.2353 -0.0840  0.3940
 3285TIP3    H131346   2.971   5.881  16.135  0.2616 -2.5370  1.4151
 3285TIP3    H231347   2.992   5.926  15.992 -2.7118  1.7689  2.1298
 3286TIP3   OH231348   0.295   6.374   5.675  0.4917 -0.5306 -0.1982
 3286TIP3    H131349   0.373   6.319   5.685  0.1753 -0.6891  1.7782
 3286TIP3    H231350   0.242   6.354   5.752  0.7561  3.1480  1.1327
 3287TIP3   OH231351   5.693   5.611   2.547 -0.3489  0.2673 -0.2902
 3287TIP3    H131352   5.656   5.540   2.600  1.5324  0.4173  1.3448
 3287TIP3    H231353   5.710   5.571   2.462  0.0329 -1.0546  0.3904
 3288TIP3   OH231354   6.596   0.962  13.719  0.3349 -0.6523  0.3070
 3288TIP3    H131355   6.600   0.867  13.723 -2.3735 -0.8597  0.4535
 3288TIP3    H231356   6.512   0.984  13.761  0.8538  1.7846  0.2246
 3289TIP3   OH231357   1.654   4.903  15.713  0.2490  0.5691 -0.5345
 3289TIP3    H131358   1.679   4.922  15.622 -2.2641  1.3536 -1.1366
 3289TIP3    H231359   1.718   4.952  15.765  0.1169  2.3387 -1.9402
 3290TIP3   OH231360   1.009   3.877   2.987  0.3996  0.0374  0.5150
 3290TIP3    H131361   1.014   3.888   2.892  1.7822 -2.2711  0.2520
 3290TIP3    H231362   0.917   3.890   3.008  0.2885  2.1092 -0.8732
 3291TIP3   OH231363   5.668   5.053  10.944  0.4613  0.6821  0.1744
 3291TIP3    H131364   5.676   5.134  10.894 -0.6486  1.0297  0.5494
 3291TIP3    H231365   5.585   5.015  10.916  0.9818 -0.3560 -0.0172
 3292TIP3   OH231366   1.681   3.241   0.242  0.0365  0.6158 -0.3642
 3292TIP3    H131367   1.770   3.273   0.227  0.2099  0.1060 -0.4373
 3292TIP3    H231368   1.631   3.319   0.267 -0.1302  1.4750 -2.9771
 3293TIP3   OH231369   0.903   5.356   0.513  0.4582  0.0541  0.2794
 3293TIP3    H131370   0.849   5.431   0.537  0.4652 -0.0272  0.5551
 3293TIP3    H231371   0.862   5.281   0.557  2.8675  0.4842  3.7136
 3294TIP3   OH231372   5.508   5.785   4.936  0.0176 -0.9490 -0.1191
 3294TIP3    H131373   5.525   5.854   4.872 -0.6534 -1.7226 -1.1652
 3294TIP3    H231374   5.418   5.757   4.917 -1.1810  0.4960  2.8048
 3295TIP3   OH231375   4.203   3.559   0.729  0.1822  0.5961  1.2680
 3295TIP3    H131376   4.202   3.612   0.649  2.1660 -0.6288  0.3813
 3295TIP3    H231377   4.181   3.622   0.798 -1.6457  1.6721 -0.1926
 3296TIP3   OH231378   1.407   4.869  13.307 -0.4996 -0.2031 -0.3148
 3296TIP3    H131379   1.425   4.776  13.320  2.3951  0.5083  1.9079
 3296TIP3    H231380   1.380   4.901  13.393  1.1659  1.4449 -0.3251
 3297TIP3   OH231381   6.355   1.505   3.966  0.0236 -0.3956 -0.1474
 3297TIP3    H131382   6.272   1.459   3.979  0.8384 -2.1986 -0.9256
 3297TIP3    H231383   6.332   1.584   3.917 -1.1056 -1.5149 -1.4990
 3298TIP3   OH231384   0.440   5.049   3.940 -0.4358  0.3522 -0.9019
 3298TIP3    H131385   0.423   5.134   3.980  0.4051 -0.4090  1.2205
 3298TIP3    H231386   0.494   5.069   3.863 -0.0219  1.7154 -0.2905
 3299TIP3   OH231387   4.556   6.296  11.773 -0.2564 -0.4394  0.2927
 3299TIP3    H131388   4.627   6.337  11.823  1.5156  1.0221 -3.0588
 3299TIP3    H231389   4.488   6.363  11.768  0.5323  0.3124 -1.0173
 3300TIP3   OH231390   0.910   5.895  16.403 -0.0824  0.0043 -0.2358
 3300TIP3    H131391   0.996   5.867  16.371  0.2790  0.5186  0.2650
 3300TIP3    H231392   0.850   5.870  16.333  0.4954 -0.2273 -0.6639
 3301TIP3   OH231393   1.152   2.468   1.571 -0.7159  0.1812 -0.4993
 3301TIP3    H131394   1.169   2.389   1.519  1.9405  0.8999 -0.9000
 3301TIP3    H231395   1.218   2.530   1.541 -0.8796  1.5730  1.8121
 3302TIP3   OH231396   1.272   4.179   4.866 -0.6373  0.6439  0.0002
 3302TIP3    H131397   1.258   4.212   4.954 -1.1939 -0.0654  0.1841
 3302TIP3    H231398   1.362   4.146   4.867 -0.8691  0.0001  0.5220
 3303TIP3   OH231399   0.626   4.455  12.751  0.3369  0.3578 -0.5396
 3303TIP3    H131400   0.647   4.542  12.717 -1.4746  1.5657  1.1473
 3303TIP3    H231401   0.706   4.404  12.739  2.3490  2.9772  0.6020
 3304TIP3   OH231402   4.982   2.661  15.976 -0.0564 -0.4319 -0.1538
 3304TIP3    H131403   4.959   2.587  15.919  0.0660  0.4174 -1.3278
 3304TIP3    H231404   5.056   2.703  15.933 -0.6387  0.8600  0.0776
 3305TIP3   OH231405   3.455   0.085   3.480 -0.4649 -0.1997  0.5894
 3305TIP3    H131406   3.402   0.141   3.537 -2.2325 -0.8805 -0.3073
 3305TIP3    H231407   3.518   0.146   3.440 -0.3954  0.5995  1.8549
 3306TIP3   OH231408   5.586   5.573  16.977  0.0513  0.2036  0.0761
 3306TIP3    H131409   5.628   5.644  17.026  1.3319  0.2244 -1.0047
 3306TIP3    H231410   5.611   5.494  17.025 -0.8677  0.4009  0.9268
 3307TIP3   OH231411   6.616   1.165   3.860  0.3211 -0.0259 -0.3509
 3307TIP3    H131412   6.690   1.177   3.801  1.0170  2.9505  0.9531
 3307TIP3    H231413   6.558   1.239   3.841 -0.1333  0.1945  1.6455
 3308TIP3   OH231414   3.177   3.419  15.563 -0.4311 -0.1890  0.1745
 3308TIP3    H131415   3.189   3.326  15.582  0.4212 -0.1444 -0.1173
 3308TIP3    H231416   3.082   3.432  15.569 -0.5710 -1.0967  0.1178
 3309TIP3   OH231417   3.720   5.639   5.625 -0.0061  0.3468  0.0653
 3309TIP3    H131418   3.747   5.569   5.565 -1.2287  1.4799 -1.9079
 3309TIP3    H231419   3.705   5.715   5.569 -1.5444  1.3860  1.7664
 3310TIP3   OH231420   5.795   4.095   3.861  0.4021 -0.1216  0.7716
 3310TIP3    H131421   5.740   4.094   3.783  2.1986  0.2354 -0.5509
 3310TIP3    H231422   5.734   4.116   3.932 -1.2536 -0.2987 -0.5249
 3311TIP3   OH231423   3.863   6.555  16.537  0.1610  0.0317 -0.2561
 3311TIP3    H131424   3.933   6.589  16.593 -0.1346  0.5205 -0.1785
 3311TIP3    H231425   3.891   6.466  16.515  1.2743  0.5519 -1.0187
 3312TIP3   OH231426   3.702   2.304  16.388  0.2064  0.3567  0.4014
 3312TIP3    H131427   3.691   2.337  16.299  1.9422 -1.2520 -0.4724
 3312TIP3    H231428   3.785   2.257  16.387  0.4311  0.5293  2.9769
 3313TIP3   OH231429   2.392   4.662  15.765 -0.6735  0.4442 -0.3095
 3313TIP3    H131430   2.349   4.714  15.833 -1.9262 -1.3923  0.4063
 3313TIP3    H231431   2.364   4.572  15.783  2.5725 -0.7625 -0.5373
 3314TIP3   OH231432   2.345   4.592  16.421 -0.7115  0.0209 -0.0339
 3314TIP3    H131433   2.426   4.633  16.452 -1.2902 -0.6883  2.6534
 3314TIP3    H231434   2.374   4.508  16.385 -0.2333 -0.4680  1.4013
 3315TIP3   OH231435   1.088   4.512   1.343 -0.0736 -0.0836 -0.4955
 3315TIP3    H131436   1.184   4.518   1.343  0.2034 -0.6369  4.3139
 3315TIP3    H231437   1.064   4.517   1.436 -4.7031 -0.7384 -1.4371
 3316TIP3   OH231438   3.311   2.307  15.718 -0.4550 -0.0035  0.1581
 3316TIP3    H131439   3.283   2.309  15.627  1.5677  0.8804 -0.4919
 3316TIP3    H231440   3.398   2.268  15.716 -0.2672  0.2652  1.6835
 3317TIP3   OH231441   1.924   3.863   2.604  0.1256 -0.1270  0.4654
 3317TIP3    H131442   1.866   3.938   2.610 -0.9146 -0.8558 -0.1011
 3317TIP3    H231443   1.883   3.796   2.660  0.5743 -0.5570  0.2909
 3318TIP3   OH231444   3.816   1.080   2.822  0.1765 -0.0231  0.2810
 3318TIP3    H131445   3.746   1.084   2.888  1.4574  0.6157  1.6434
 3318TIP3    H231446   3.786   1.139   2.753 -0.7120  0.1086  0.7570
 3319TIP3   OH231447   1.886   4.530  12.788 -0.9456 -0.4475  0.1593
 3319TIP3    H131448   1.848   4.615  12.809  0.0747  0.2627 -0.7156
 3319TIP3    H231449   1.868   4.518  12.695 -0.2503 -0.7305  0.0506
 3320TIP3   OH231450   1.544   4.857   2.673  0.0446  0.0768  0.3138
 3320TIP3    H131451   1.557   4.793   2.604 -2.0678 -1.3778  1.1585
 3320TIP3    H231452   1.575   4.813   2.753 -0.8712  0.3184  0.8171
 3321TIP3   OH231453   1.497   1.089  14.897  0.5092  0.4288  0.6857
 3321TIP3    H131454   1.456   1.033  14.964  1.0400 -1.6140 -0.6071
 3321TIP3    H231455   1.424   1.139  14.860 -0.2195 -0.3481  1.0328
 3322TIP3   OH231456   1.676   1.254   3.289 -0.1966  0.0028  0.5160
 3322TIP3    H131457   1.743   1.318   3.315  0.2372 -0.5471  0.7647
 3322TIP3    H231458   1.622   1.301   3.226 -0.2787  0.8284  1.1872
 3323TIP3   OH231459   5.111   2.123  14.990  0.2938  0.3295 -0.5390
 3323TIP3    H131460   5.022   2.144  14.962 -0.1644 -0.4615  0.2782
 3323TIP3    H231461   5.167   2.183  14.940 -0.7496  1.4150 -0.4457
 3324TIP3   OH231462   3.830   3.410  13.361  0.4604  0.1057  0.7027
 3324TIP3    H131463   3.892   3.412  13.287 -0.4354  0.7356 -0.0503
 3324TIP3    H231464   3.807   3.317  13.369  1.1037 -0.0647  0.6529
 3325TIP3   OH231465   5.873   5.889  11.081 -0.6551  0.3608 -0.1969
 3325TIP3    H131466   5.867   5.932  10.996 -0.9469  0.0312 -0.3468
 3325TIP3    H231467   5.947   5.830  11.073 -1.4911 -0.6521 -0.6811
 3326TIP3   OH231468   3.655   1.365  15.368  0.2040  0.3715 -0.1887
 3326TIP3    H131469   3.662   1.351  15.462 -1.2539  0.1828 -0.0834
 3326TIP3    H231470   3.581   1.310  15.341  0.7275  0.2747 -1.4752
 3327TIP3   OH231471   2.594   0.848   2.891  0.3970 -0.3197  0.6552
 3327TIP3    H131472   2.647   0.769   2.902  2.0092  0.7042  0.6848
 3327TIP3    H231473   2.509   0.826   2.928  0.0883 -2.7221 -1.2309
 3328TIP3   OH231474   3.607   2.261   3.825 -0.1846 -0.1959  0.5185
 3328TIP3    H131475   3.543   2.216   3.881  1.3399 -0.7906  1.8648
 3328TIP3    H231476   3.690   2.216   3.843  0.6626  0.6745 -1.0303
 3329TIP3   OH231477   4.029   3.942  16.826  0.5750  0.0618 -0.1576
 3329TIP3    H131478   4.052   3.920  16.916  0.4747  1.2693  0.1749
 3329TIP3    H231479   3.951   3.997  16.834  0.2560 -0.2528 -1.0136
 3330TIP3   OH231480   3.070   1.954  14.954 -0.1490  0.1575  0.4065
 3330TIP3    H131481   3.147   1.974  15.008  0.1899 -2.4868  1.0404
 3330TIP3    H231482   3.052   2.035  14.907  2.2938  1.2163  1.1339
 3331TIP3   OH231483   4.903   1.740   4.158 -0.5416  0.5406 -0.2031
 3331TIP3    H131484   4.911   1.828   4.119  0.6844 -0.4528 -2.3960
 3331TIP3    H231485   4.823   1.704   4.121 -0.7362  0.5307  0.2310
 3332TIP3   OH231486   4.754   1.592  14.145  0.2495 -0.0005 -0.4452
 3332TIP3    H131487   4.745   1.505  14.184  0.6710  0.1342 -0.0437
 3332TIP3    H231488   4.848   1.611  14.151 -0.0090  0.9980  0.5993
 3333TIP3   OH231489   6.116   3.282   4.092 -0.5970  0.8913 -0.0457
 3333TIP3    H131490   6.190   3.281   4.153  0.7724  2.3124 -1.5664
 3333TIP3    H231491   6.061   3.355   4.121  0.0708  1.5860 -0.4975
 3334TIP3   OH231492   0.696   2.005   5.723 -0.3609  0.1963 -0.2290
 3334TIP3    H131493   0.649   1.966   5.797  0.0867  0.2870  0.1095
 3334TIP3    H231494   0.628   2.048   5.672 -0.5532  0.9787  0.6612
 3335TIP3   OH231495   1.367   2.558   2.377  0.2599 -0.1313  0.0370
 3335TIP3    H131496   1.282   2.601   2.365 -0.2584 -1.2644 -0.4935
 3335TIP3    H231497   1.399   2.592   2.460 -0.0922  1.3212 -0.3913
 3336TIP3   OH231498   1.370   1.136   1.030  0.7297  0.3825  0.4391
 3336TIP3    H131499   1.297   1.156   1.089  0.8596  0.0574  0.7194
 3336TIP3    H231500   1.343   1.169   0.945 -1.4784 -3.1212 -0.4111
 3337TIP3   OH231501   4.916   2.304  14.909 -0.0293  0.0549 -0.1483
 3337TIP3    H131502   4.945   2.391  14.935 -0.7912  0.0902  0.6312
 3337TIP3    H231503   4.913   2.307  14.813  1.2565  0.4459 -0.2005
 3338TIP3   OH231504   2.202   4.920   4.474 -0.4492 -0.1505  0.5280
 3338TIP3    H131505   2.215   4.908   4.568 -0.5264 -0.0732  0.5487
 3338TIP3    H231506   2.116   4.961   4.467 -1.0796 -1.4466  0.3538
 3339TIP3   OH231507   2.322   4.684  11.277  0.8675  0.4601  0.0627
 3339TIP3    H131508   2.385   4.705  11.347  0.2485 -1.5934  1.3209
 3339TIP3    H231509   2.289   4.597  11.300 -1.4206  0.8908 -1.3096
 3340TIP3   OH231510   6.002   1.789  12.243  0.1378 -0.2020 -0.6219
 3340TIP3    H131511   6.035   1.780  12.153  1.9399  2.6590 -0.3737
 3340TIP3    H231512   5.970   1.879  12.247 -0.5486 -0.5031  1.4184
 3341TIP3   OH231513   2.140   2.453  14.514  0.1246 -0.0487 -0.1686
 3341TIP3    H131514   2.166   2.503  14.436  2.8294 -0.4156  0.3921
 3341TIP3    H231515   2.066   2.400  14.484  0.1501  0.8770 -2.0627
 3342TIP3   OH231516   4.047   4.226   5.376 -0.0762  0.3578 -0.1393
 3342TIP3    H131517   3.988   4.270   5.438  0.5825  1.1646 -0.0699
 3342TIP3    H231518   4.089   4.297   5.329  0.4442 -0.2244 -0.5681
 3343TIP3   OH231519   3.818   6.175   0.644  0.3394  0.2658  0.0793
 3343TIP3    H131520   3.900   6.197   0.599  0.4769 -0.9587 -0.3189
 3343TIP3    H231521   3.842   6.103   0.703 -0.9787 -2.3326 -2.2966
 3344TIP3   OH231522   0.596   5.946   3.853 -0.3616 -0.0556 -0.0492
 3344TIP3    H131523   0.686   5.973   3.832 -0.4110 -0.6428 -1.0722
 3344TIP3    H231524   0.592   5.854   3.828 -0.7378 -0.5534  1.6897
 3345TIP3   OH231525   4.066   4.921  10.565  0.5151 -0.5610  0.4114
 3345TIP3    H131526   4.133   4.906  10.631  0.3089 -2.5641  0.2403
 3345TIP3    H231527   3.988   4.944  10.615  0.7522 -0.5269  0.7666
 3346TIP3   OH231528   6.131   6.253   4.633  0.3381 -0.1101  0.4891
 3346TIP3    H131529   6.161   6.166   4.608  0.4281  0.0872 -0.1022
 3346TIP3    H231530   6.192   6.313   4.589 -0.8104  0.2910 -0.6000
 3347TIP3   OH231531   4.576   4.502   6.526 -0.1119  0.4532  0.0774
 3347TIP3    H131532   4.608   4.574   6.580 -0.1320  1.0999 -0.7475
 3347TIP3    H231533   4.654   4.450   6.507 -0.1887 -0.0562  1.1227
 3348TIP3   OH231534   1.344   4.595  16.477 -0.3776 -0.5631  0.9028
 3348TIP3    H131535   1.283   4.550  16.418  0.3739 -1.2779  0.6536
 3348TIP3    H231536   1.398   4.648  16.419  0.2209 -1.0977  0.9635
 3349TIP3   OH231537   2.301   0.196   0.815  0.0785 -0.9699  0.0558
 3349TIP3    H131538   2.220   0.165   0.774 -0.8261  1.7070 -0.3532
 3349TIP3    H231539   2.339   0.256   0.752  0.5217  0.5337  1.6621
 3350TIP3   OH231540   2.491   4.344  12.721  0.0736  0.5713 -0.8202
 3350TIP3    H131541   2.476   4.380  12.633 -0.0830  1.4160 -0.4615
 3350TIP3    H231542   2.451   4.408  12.780 -0.2651 -0.2373 -0.1516
 3351TIP3   OH231543   1.808   0.911   3.544 -0.0982  0.0848  0.0364
 3351TIP3    H131544   1.841   0.848   3.480  1.8869  1.1663 -0.0991
 3351TIP3    H231545   1.726   0.943   3.506  1.0134  0.6948 -2.0187
 3352TIP3   OH231546   3.252   3.023  10.359 -0.1680 -0.2087 -0.0068
 3352TIP3    H131547   3.255   3.118  10.345 -0.6565 -0.4542 -2.1405
 3352TIP3    H231548   3.332   3.004  10.407  0.0691  1.2587  0.2372
 3353TIP3   OH231549   6.318   0.921   1.587  0.2309 -0.3326  0.3752
 3353TIP3    H131550   6.382   0.886   1.650 -0.2080  2.2021  2.4343
 3353TIP3    H231551   6.370   0.976   1.528  0.2593 -0.1732  0.5467
 3354TIP3   OH231552   4.255   3.763   1.460 -0.2877 -0.8323  0.3702
 3354TIP3    H131553   4.320   3.826   1.488 -0.3207 -0.5397 -0.1852
 3354TIP3    H231554   4.172   3.811   1.464 -0.1980 -0.5012 -0.9964
 3355TIP3   OH231555   0.562   1.889   3.335  0.0184 -0.2470  0.0085
 3355TIP3    H131556   0.549   1.795   3.325  1.5040 -0.6733  1.5739
 3355TIP3    H231557   0.557   1.924   3.247  1.3562 -2.0746 -0.8528
 3356TIP3   OH231558   4.854   5.403  12.627 -0.0815  0.5125 -0.0881
 3356TIP3    H131559   4.893   5.350  12.557 -0.4312  0.0552  0.0541
 3356TIP3    H231560   4.820   5.480  12.583 -1.1860 -0.2315 -0.5881
 3357TIP3   OH231561   0.399   6.070   2.468  0.5134  0.5988 -0.2186
 3357TIP3    H131562   0.469   6.016   2.432 -0.4322 -0.7199 -0.1534
 3357TIP3    H231563   0.321   6.043   2.420 -0.1935  1.0739  0.6355
 3358TIP3   OH231564   3.377   2.367  17.025 -0.3721  0.0897 -0.2004
 3358TIP3    H131565   3.391   2.414  16.943 -4.0629  1.3691 -0.3277
 3358TIP3    H231566   3.435   2.411  17.088 -1.3208  2.7912 -1.0432
 3359TIP3   OH231567   1.794   3.630  14.133 -0.1003 -0.0936  0.9739
 3359TIP3    H131568   1.811   3.567  14.063 -1.1476  0.5322  0.1199
 3359TIP3    H231569   1.872   3.686  14.134 -0.8198  1.0700 -1.0321
 3360TIP3   OH231570   1.216   3.358   1.494  0.7868 -0.3535 -0.2160
 3360TIP3    H131571   1.214   3.339   1.587  0.4951  0.8217  0.0436
 3360TIP3    H231572   1.286   3.423   1.484 -0.7937  1.4499 -0.3678
 3361TIP3   OH231573   1.982   5.160   3.629 -0.2941 -0.5493 -0.8971
 3361TIP3    H131574   1.919   5.169   3.558  0.3648 -2.2447 -1.7681
 3361TIP3    H231575   2.041   5.090   3.600  2.3044  1.2492 -0.3356
 3362TIP3   OH231576   4.944   6.836  11.635 -0.5767  0.7663 -0.7240
 3362TIP3    H131577   5.011   6.816  11.700 -0.5512  0.1606 -0.9316
 3362TIP3    H231578   4.928   6.930  11.645 -0.0560  0.8177 -0.3391
 3363TIP3   OH231579   4.437   2.916  15.787 -0.6090  0.7175  0.2503
 3363TIP3    H131580   4.495   2.965  15.845 -1.8497  2.9598 -0.2931
 3363TIP3    H231581   4.369   2.881  15.846 -1.6696  2.6922  0.2995
 3364TIP3   OH231582   6.802   6.081  14.650 -0.0704  0.0812  0.8302
 3364TIP3    H131583   6.858   6.018  14.604  0.3816 -0.0400  1.5265
 3364TIP3    H231584   6.715   6.067  14.613  0.0231 -0.9603  0.9822
 3365TIP3   OH231585   2.535   0.607   6.339 -0.0470 -0.3964 -0.2598
 3365TIP3    H131586   2.571   0.605   6.427  0.1937 -0.6774 -0.3624
 3365TIP3    H231587   2.593   0.667   6.291 -1.8027  2.0391  0.4628
 3366TIP3   OH231588   6.727   1.101   2.455 -0.5897 -0.0048 -0.1464
 3366TIP3    H131589   6.787   1.158   2.504 -0.0270 -0.2273 -0.5635
 3366TIP3    H231590   6.718   1.023   2.509  0.2126 -0.3469 -0.4839
 3367TIP3   OH231591   2.725   0.862   5.689  0.1892  0.3848 -0.0470
 3367TIP3    H131592   2.664   0.797   5.653  0.7503 -0.0529 -0.2232
 3367TIP3    H231593   2.682   0.892   5.770 -0.5145  0.4936 -0.4529
 3368TIP3   OH231594   4.861   1.297   4.724  0.0868 -0.5613  0.0833
 3368TIP3    H131595   4.830   1.221   4.773  1.5371 -1.2273  0.0221
 3368TIP3    H231596   4.914   1.260   4.653  0.9552  0.5098  0.1532
 3369TIP3   OH231597   2.664   0.578   5.392  0.2424  0.3280  0.0028
 3369TIP3    H131598   2.695   0.656   5.347  1.1521  1.3725  2.2602
 3369TIP3    H231599   2.629   0.522   5.323  2.8863  1.1235 -2.1463
 3370TIP3   OH231600   2.590   1.250  16.714  0.2072 -0.2035  0.1626
 3370TIP3    H131601   2.642   1.318  16.672  0.2166 -0.7824 -0.7791
 3370TIP3    H231602   2.552   1.294  16.791  0.2669  0.8423 -0.3854
 3371TIP3   OH231603   1.404   0.899   3.905 -0.0147 -0.8980  0.4305
 3371TIP3    H131604   1.311   0.892   3.926 -0.5898 -2.5652 -2.1575
 3371TIP3    H231605   1.405   0.936   3.816  1.8954  0.3281  0.8920
 3372TIP3   OH231606   3.105   1.747  14.083 -0.3442  0.3707  0.5250
 3372TIP3    H131607   3.168   1.686  14.043 -0.2649  0.7373  0.0840
 3372TIP3    H231608   3.106   1.823  14.026 -1.9733 -0.0197 -0.0821
 3373TIP3   OH231609   6.817   4.425  15.568 -0.3318  0.2051  0.2064
 3373TIP3    H131610   6.726   4.451  15.580 -1.0560 -1.7446 -0.5836
 3373TIP3    H231611   6.842   4.462  15.484 -1.1416 -1.0073 -0.6073
 3374TIP3   OH231612   6.485   0.734   0.657  0.4457  0.7346 -0.0531
 3374TIP3    H131613   6.431   0.660   0.630 -0.8502  1.6835 -0.1382
 3374TIP3    H231614   6.463   0.747   0.749  1.7039  0.1834  0.3621
 3375TIP3   OH231615   1.166   6.184  12.154  0.0225 -0.0204 -0.3303
 3375TIP3    H131616   1.083   6.156  12.115 -0.2778  1.1228 -0.5597
 3375TIP3    H231617   1.193   6.259  12.100 -0.5892  1.8738  1.8156
 3376TIP3   OH231618   3.818   4.982  15.612  0.0528  0.0751 -0.1046
 3376TIP3    H131619   3.867   5.032  15.547  1.0367 -1.4836 -0.6314
 3376TIP3    H231620   3.754   5.044  15.647  0.9873  1.5788 -0.9410
 3377TIP3   OH231621   5.263   0.870  10.220 -0.3118 -0.3720  0.4333
 3377TIP3    H131622   5.249   0.781  10.251  1.7179 -1.1645 -0.7115
 3377TIP3    H231623   5.180   0.895  10.178 -0.4661 -2.2916 -0.5021
 3378TIP3   OH231624   3.096   6.527   0.361 -0.4867  0.2894 -0.3768
 3378TIP3    H131625   3.156   6.590   0.401 -0.3212  0.4704 -0.9036
 3378TIP3    H231626   3.153   6.461   0.321 -0.6574 -0.1816  0.1467
 3379TIP3   OH231627   5.519   4.220   3.229 -0.2669 -0.5544 -0.8793
 3379TIP3    H131628   5.589   4.222   3.163  1.9598  0.4690  1.3851
 3379TIP3    H231629   5.537   4.294   3.286 -1.1861 -2.2099  1.7540
 3380TIP3   OH231630   2.490   6.321  12.517  0.1283  0.0151 -0.3903
 3380TIP3    H131631   2.405   6.365  12.508  0.2911  0.1677 -1.3206
 3380TIP3    H231632   2.521   6.312  12.427  0.9929 -0.2504 -0.0703
 3381TIP3   OH231633   0.758   2.196  15.237  0.5081  0.1492  0.6390
 3381TIP3    H131634   0.758   2.219  15.330  0.0142 -1.5854  1.1159
 3381TIP3    H231635   0.776   2.102  15.237  1.4967  0.3098 -1.0922
 3382TIP3   OH231636   4.324   6.333  14.004  0.0663 -0.1033  0.7652
 3382TIP3    H131637   4.301   6.418  14.041  2.0936  0.3532  1.0863
 3382TIP3    H231638   4.404   6.307  14.050 -1.5348 -3.1435  2.0745
 3383TIP3   OH231639   4.855   6.210   2.372  0.1830 -0.1587  0.3549
 3383TIP3    H131640   4.858   6.179   2.463  0.0678 -0.2149  0.3394
 3383TIP3    H231641   4.865   6.305   2.379 -0.7262 -0.0624  0.4890
 3384TIP3   OH231642   4.903   3.099   4.318 -0.1010 -0.4634 -0.3893
 3384TIP3    H131643   4.874   3.097   4.409  1.0243  0.9855  0.0538
 3384TIP3    H231644   4.827   3.131   4.269 -1.1488 -2.5187 -0.2052
 3385TIP3   OH231645   2.317   0.070   2.915  0.0374 -0.1115  0.0530
 3385TIP3    H131646   2.384   0.126   2.953  0.2775 -0.6977  0.5169
 3385TIP3    H231647   2.336  -0.017   2.950 -0.0991 -0.5578 -0.9446
 3386TIP3   OH231648   0.404   3.988   2.959 -0.2114  0.0021 -0.0413
 3386TIP3    H131649   0.312   4.015   2.969 -0.9865 -2.1548 -0.6694
 3386TIP3    H231650   0.407   3.901   2.999  0.8713 -1.1343 -2.4200
 3387TIP3   OH231651   2.091   5.389   2.217 -0.5218  0.3507 -0.2735
 3387TIP3    H131652   2.137   5.409   2.135  1.1154 -1.0493  0.2360
 3387TIP3    H231653   2.026   5.323   2.194  0.5915 -0.7581 -0.3120
 3388TIP3   OH231654   4.858   1.450   4.441  0.1129  0.0672  0.3068
 3388TIP3    H131655   4.884   1.522   4.499  2.0965 -1.7438  1.8638
 3388TIP3    H231656   4.917   1.457   4.366  0.4702 -0.0580  0.5737
 3389TIP3   OH231657   2.493   3.145   0.185 -0.0437  0.0401 -0.0818
 3389TIP3    H131658   2.413   3.124   0.232  0.0764  1.2289  0.7033
 3389TIP3    H231659   2.561   3.093   0.228 -0.0774  0.5023  0.5468
 3390TIP3   OH231660   4.693   5.293   3.036 -0.7360  0.3244  0.0552
 3390TIP3    H131661   4.685   5.298   3.131  1.5637 -1.9152  0.5020
 3390TIP3    H231662   4.723   5.380   3.010 -1.4331  0.9821  1.3595
 3391TIP3   OH231663   5.068   1.089  16.631  0.2329 -0.3843 -0.1579
 3391TIP3    H131664   5.140   1.027  16.643 -0.3479 -1.4626 -1.8316
 3391TIP3    H231665   5.111   1.168  16.599  0.9326 -0.0418  1.5404
 3392TIP3   OH231666   0.164   4.568  13.500 -0.6793  0.5039  0.0519
 3392TIP3    H131667   0.236   4.542  13.443 -1.5045 -1.6407 -0.1134
 3392TIP3    H231668   0.125   4.485  13.529 -3.7138  1.5464 -0.6725
 3393TIP3   OH231669   1.868   3.393   2.430 -0.5402  0.2740 -0.3422
 3393TIP3    H131670   1.814   3.466   2.462  0.1036  0.7033 -0.2258
 3393TIP3    H231671   1.958   3.425   2.436 -0.0931 -1.1466  1.3893
 3394TIP3   OH231672   5.660   5.996  12.214  0.5828 -0.4575  0.6422
 3394TIP3    H131673   5.639   6.086  12.240  2.5634 -0.7401  3.7330
 3394TIP3    H231674   5.578   5.948  12.226 -0.5915  0.9098 -1.3773
 3395TIP3   OH231675   0.896   3.364  14.562  0.1531  0.5539  0.1000
 3395TIP3    H131676   0.980   3.319  14.564 -1.1676 -2.1006 -0.5575
 3395TIP3    H231677   0.864   3.359  14.653  0.3023  0.8084  0.1689
 3396TIP3   OH231678   2.711   3.336   1.692 -0.8891 -0.4609 -0.2625
 3396TIP3    H131679   2.698   3.247   1.726 -0.0639  0.0332  1.4632
 3396TIP3    H231680   2.662   3.392   1.752 -0.1026  0.3852 -0.3858
 3397TIP3   OH231681   5.477   4.692   5.085 -0.1579  0.3237 -0.0774
 3397TIP3    H131682   5.478   4.660   4.995 -0.8735  1.9017 -0.6818
 3397TIP3    H231683   5.409   4.640   5.128 -0.5830  0.2975 -0.7632
 3398TIP3   OH231684   2.026   3.508   5.676  0.6428  0.1264  0.7254
 3398TIP3    H131685   2.018   3.590   5.628  0.7387 -0.0693  0.3660
 3398TIP3    H231686   1.940   3.466   5.665  1.1798 -0.6748 -0.7048
 3399TIP3   OH231687   5.083   4.895   0.534 -0.0393  0.4069 -0.3589
 3399TIP3    H131688   5.117   4.980   0.510  1.5033 -0.0665  0.0345
 3399TIP3    H231689   5.091   4.842   0.455 -1.2571  0.6843 -0.6845
 3400TIP3   OH231690   3.350   4.805   2.395  0.4990  0.2920 -0.6354
 3400TIP3    H131691   3.290   4.762   2.335 -0.1202  0.3878 -0.0955
 3400TIP3    H231692   3.431   4.755   2.389 -0.5232 -1.6553  0.7668
 3401TIP3   OH231693   3.855   5.630   3.394  0.5073 -0.3656  0.0322
 3401TIP3    H131694   3.893   5.642   3.307  0.4355 -0.7051 -0.0487
 3401TIP3    H231695   3.823   5.716   3.419 -2.2678 -0.8300 -1.5709
 3402TIP3   OH231696   1.585   0.504  13.787  0.8062  0.0110  0.1351
 3402TIP3    H131697   1.529   0.536  13.716  0.4995  1.4656  0.9930
 3402TIP3    H231698   1.648   0.447  13.743  0.4317  0.6270 -1.2718
 3403TIP3   OH231699   4.983   2.575   4.458 -0.1771  0.0691  0.2262
 3403TIP3    H131700   5.006   2.487   4.487 -1.6023 -0.4567 -0.1499
 3403TIP3    H231701   4.888   2.580   4.469 -0.0906  1.6834  0.5415
 3404TIP3   OH231702   5.836   1.049  10.525 -0.5020 -0.3415  0.2514
 3404TIP3    H131703   5.915   1.045  10.471 -0.7326  0.1720 -0.1329
 3404TIP3    H231704   5.805   0.958  10.528 -0.6710 -0.3343 -0.7665
 3405TIP3   OH231705   2.862   2.519   2.858  0.5385  0.4623  0.1845
 3405TIP3    H131706   2.818   2.482   2.934 -0.2440 -0.9747 -0.9248
 3405TIP3    H231707   2.807   2.593   2.832  0.0858  0.1488  0.2374
 3406TIP3   OH231708   3.214   2.151  13.578 -0.4520  0.3980 -0.1527
 3406TIP3    H131709   3.135   2.205  13.582 -0.9989 -0.2345 -1.7078
 3406TIP3    H231710   3.181   2.061  13.582  0.2960  0.1377  0.3385
 3407TIP3   OH231711   2.248   0.926   0.527 -0.3883  0.3317  0.0786
 3407TIP3    H131712   2.308   0.971   0.586 -1.8907  0.0598  1.9047
 3407TIP3    H231713   2.232   0.988   0.456 -0.7116  1.8387  1.4226
 3408TIP3   OH231714   4.730   6.408  16.219 -0.3333 -0.0344  0.0033
 3408TIP3    H131715   4.764   6.332  16.172  2.9424  0.6897  0.9546
 3408TIP3    H231716   4.724   6.476  16.153  1.7677  0.2545  0.0441
 3409TIP3   OH231717   4.450   2.321   4.969 -0.4896  0.4050 -0.2027
 3409TIP3    H131718   4.463   2.261   5.042  0.5979  1.1467  0.2294
 3409TIP3    H231719   4.377   2.282   4.919 -0.8063 -0.4557  0.8901
 3410TIP3   OH231720   1.978   3.931  13.858 -0.0985 -0.4263 -0.1764
 3410TIP3    H131721   2.032   3.904  13.784  0.1231 -2.8131  0.7882
 3410TIP3    H231722   1.894   3.887  13.845 -1.0144  1.2922 -0.3724
 3411TIP3   OH231723   4.296   3.247   3.523  0.0326  0.4741  0.0284
 3411TIP3    H131724   4.385   3.267   3.551  0.3105  0.6132 -0.9342
 3411TIP3    H231725   4.261   3.192   3.593  0.5536  1.1729  0.8644
 3412TIP3   OH231726   4.921   5.086   5.630 -0.0182 -0.4350 -0.2143
 3412TIP3    H131727   4.874   5.025   5.573 -2.1087  0.2460  0.6692
 3412TIP3    H231728   4.867   5.091   5.709  2.4447 -0.8676  1.6181
 3413TIP3   OH231729   3.135   3.227   4.493  0.6002 -0.1156  0.2844
 3413TIP3    H131730   3.043   3.220   4.468  0.6344 -0.9632  0.3739
 3413TIP3    H231731   3.133   3.243   4.587  0.5359  0.6185  0.1687
 3414TIP3   OH231732   4.897   2.580  15.734  0.6706  0.1661 -0.4926
 3414TIP3    H131733   4.876   2.489  15.715  1.8561  0.0864 -1.5354
 3414TIP3    H231734   4.828   2.630  15.691  0.1701 -0.2170 -0.1546
 3415TIP3   OH231735   6.335   3.652  11.971 -0.1092  0.5367  0.4609
 3415TIP3    H131736   6.353   3.558  11.965  0.4497  0.6430  0.4257
 3415TIP3    H231737   6.276   3.670  11.897 -0.2250  0.2176  0.4730
 3416TIP3   OH231738   6.562   6.477  16.399  0.0356 -0.0073 -0.1925
 3416TIP3    H131739   6.555   6.525  16.316 -0.6708  1.0259  0.4388
 3416TIP3    H231740   6.489   6.509  16.451  0.3681 -0.7793  0.7702
 3417TIP3   OH231741   1.752   4.894  16.427 -0.0859  0.7809  0.1597
 3417TIP3    H131742   1.723   4.899  16.518 -0.2702 -0.5057  0.1764
 3417TIP3    H231743   1.833   4.946  16.426  0.4891 -0.0422  1.2973
 3418TIP3   OH231744   4.331   0.327  15.579  0.0596 -0.2353 -0.4669
 3418TIP3    H131745   4.392   0.355  15.512  0.5016 -2.2637 -0.9844
 3418TIP3    H231746   4.292   0.408  15.612 -0.0820  0.8417 -3.0559
 3419TIP3   OH231747   6.351   0.017   1.896 -0.8974  0.4324  0.0808
 3419TIP3    H131748   6.355   0.009   1.991 -1.7824  0.8738  0.1641
 3419TIP3    H231749   6.269  -0.027   1.872  0.3548 -1.6106 -0.7131
 3420TIP3   OH231750   1.825   2.490   1.396 -0.4756  0.4279  0.1717
 3420TIP3    H131751   1.872   2.428   1.340 -1.0174 -1.8237  2.0475
 3420TIP3    H231752   1.741   2.503   1.353 -0.5370 -0.5517 -0.0267
 3421TIP3   OH231753   4.017   2.719   5.644 -0.1857  0.0647 -0.4913
 3421TIP3    H131754   4.018   2.669   5.725  2.5246 -0.1026 -0.5470
 3421TIP3    H231755   4.083   2.787   5.656  1.5031 -0.9383 -3.0566
 3422TIP3   OH231756   0.332   0.889   4.544  0.4823  0.7575 -0.5970
 3422TIP3    H131757   0.241   0.885   4.574  1.1062 -1.1565  1.3441
 3422TIP3    H231758   0.326   0.886   4.449 -1.4837 -0.4979 -0.4968
 3423TIP3   OH231759   3.396   1.416   2.737 -0.4898  0.3896  0.2418
 3423TIP3    H131760   3.352   1.386   2.658 -0.3860 -1.2884  0.7758
 3423TIP3    H231761   3.348   1.375   2.809  1.4250 -0.9079  0.8723
 3424TIP3   OH231762   3.984   2.911   6.074  0.4332  0.4525 -0.3099
 3424TIP3    H131763   4.063   2.858   6.070  0.6239  0.6053  1.0117
 3424TIP3    H231764   3.945   2.903   5.987  1.9845  0.5267 -1.0407
 3425TIP3   OH231765   4.020   4.744  11.893  0.2711  0.4650  0.0662
 3425TIP3    H131766   3.940   4.713  11.935  0.6145  1.7535  1.8117
 3425TIP3    H231767   3.997   4.755  11.801 -0.6365 -2.1169 -0.0870
 3426TIP3   OH231768   4.444   3.326   6.225  0.0438 -0.0061 -0.0807
 3426TIP3    H131769   4.502   3.388   6.270 -0.2356 -0.8032  1.4320
 3426TIP3    H231770   4.461   3.242   6.267 -0.7435 -0.6547 -1.0141
 3427TIP3   OH231771   2.551   3.211   3.730 -0.5058  0.1713  0.4642
 3427TIP3    H131772   2.531   3.137   3.673 -1.3364  0.4319  0.4109
 3427TIP3    H231773   2.531   3.289   3.677 -0.3247  0.4310  0.7689
 3428TIP3   OH231774   5.981   6.222  12.141  0.3151 -0.5194  0.1433
 3428TIP3    H131775   6.020   6.234  12.227 -1.3779  2.5291  0.6376
 3428TIP3    H231776   5.890   6.196  12.159  0.0578 -0.2667 -0.7215
 3429TIP3   OH231777   5.964   0.446  16.428 -0.5976 -0.0368  0.2271
 3429TIP3    H131778   5.958   0.414  16.518 -0.8969  1.2043  0.6700
 3429TIP3    H231779   5.880   0.422  16.388 -0.4381 -0.6489  0.2525
 3430TIP3   OH231780   0.061   0.538   1.220  0.5319 -0.9660 -0.0937
 3430TIP3    H131781   0.120   0.613   1.215 -0.2497 -0.3709 -0.4764
 3430TIP3    H231782   0.105   0.470   1.169  2.9181 -1.9839  2.9777
 3431TIP3   OH231783   0.095   2.733  10.506 -0.0051 -0.3771  0.2347
 3431TIP3    H131784   0.153   2.703  10.576 -1.1771 -0.3679  1.2434
 3431TIP3    H231785   0.101   2.665  10.439  2.2877  0.3417 -0.3725
 3432TIP3   OH231786   3.119   4.315   5.251  0.3939  0.1949  0.4806
 3432TIP3    H131787   3.075   4.323   5.166  1.6000  1.8835 -0.0592
 3432TIP3    H231788   3.050   4.329   5.315 -0.5788 -1.3091 -0.1840
 3433TIP3   OH231789   2.915   0.014   3.999 -0.6241 -0.3354  0.1601
 3433TIP3    H131790   2.899  -0.078   4.021 -2.3098 -0.1885 -0.3398
 3433TIP3    H231791   3.011   0.022   3.999 -0.4255 -2.2292 -0.4074
 3434TIP3   OH231792   2.242   3.398  10.712  0.0395 -0.2191  0.8043
 3434TIP3    H131793   2.299   3.445  10.650  0.4742  0.5622  1.7576
 3434TIP3    H231794   2.302   3.367  10.781 -0.6009  0.1138  1.5257
 3435TIP3   OH231795   0.895   4.063  15.643  0.0637 -0.4978 -0.0426
 3435TIP3    H131796   0.954   4.000  15.684 -1.2140 -2.1697 -0.6475
 3435TIP3    H231797   0.900   4.141  15.699  1.6756 -1.1159  0.7383
 3436TIP3   OH231798   3.252   5.878   0.010 -0.2855 -0.2456  0.0749
 3436TIP3    H131799   3.215   5.957  -0.028  1.5968  0.6653  0.0086
 3436TIP3    H231800   3.276   5.903   0.099  0.6369 -0.6227 -0.0544
 3437TIP3   OH231801   6.011   4.241   1.656  0.1327 -0.3632 -0.1800
 3437TIP3    H131802   6.053   4.259   1.740  0.6229  0.7794 -0.6467
 3437TIP3    H231803   5.917   4.242   1.675  0.2527 -1.7950  0.6513
 3438TIP3   OH231804   6.093   4.107   5.845  0.2717 -0.2855 -0.1159
 3438TIP3    H131805   6.131   4.177   5.792  0.2225 -0.6444 -0.6405
 3438TIP3    H231806   6.156   4.092   5.915 -0.1256  0.8734  0.5155
 3439TIP3   OH231807   5.923   4.546   0.702 -0.5780 -0.0125  0.2296
 3439TIP3    H131808   5.877   4.588   0.775  2.5018  3.3309  0.5656
 3439TIP3    H231809   5.968   4.472   0.742  0.6118  1.4337  1.7656
 3440TIP3   OH231810   4.435   1.148   5.065  0.4851  0.0151  0.5625
 3440TIP3    H131811   4.468   1.077   5.009  2.0310 -0.6808  2.2780
 3440TIP3    H231812   4.408   1.216   5.003  0.2766 -1.4943 -1.0859
 3441TIP3   OH231813   0.024   0.826   2.872  0.2940  0.0620  0.4521
 3441TIP3    H131814   0.055   0.772   2.799  0.3337 -0.2953  0.7278
 3441TIP3    H231815  -0.062   0.790   2.893  0.4469 -0.0894  0.8297
 3442TIP3   OH231816   2.348   3.033  13.256  0.1540 -0.0555 -0.3072
 3442TIP3    H131817   2.437   3.005  13.280  0.8555  2.3482  0.2254
 3442TIP3    H231818   2.361   3.092  13.182 -1.2302 -1.0787 -1.4136
 3443TIP3   OH231819   2.805   2.354   6.651  0.2733 -0.1106  0.1438
 3443TIP3    H131820   2.734   2.365   6.714 -0.7280  0.9856 -1.1367
 3443TIP3    H231821   2.780   2.277   6.600  0.8656 -0.7296  0.7554
 3444TIP3   OH231822   4.195   6.650   0.110  0.2520  0.0378  0.1583
 3444TIP3    H131823   4.127   6.704   0.069  0.3898 -1.5062 -2.3622
 3444TIP3    H231824   4.161   6.560   0.102  0.2551 -0.4125  3.7258
 3445TIP3   OH231825   2.934   5.568  15.892  0.1333  0.1288  0.6613
 3445TIP3    H131826   2.928   5.653  15.935  0.0032 -0.4628  1.8569
 3445TIP3    H231827   2.851   5.558  15.846  0.2563  0.7487  0.2839
 3446TIP3   OH231828   2.099   0.248   5.468 -0.7547  0.2548 -0.3995
 3446TIP3    H131829   2.079   0.308   5.540  1.9052  0.1921  0.5010
 3446TIP3    H231830   2.037   0.175   5.480 -0.8688  0.5920  1.3775
 3447TIP3   OH231831   0.026   3.957   2.317 -0.0056 -0.8987 -0.1680
 3447TIP3    H131832  -0.017   4.028   2.269 -0.4658 -1.8745 -1.2298
 3447TIP3    H231833   0.093   4.001   2.370 -1.7785  0.6168  0.9878
 3448TIP3   OH231834   0.177   2.589  15.332  0.6401  0.3220  0.8102
 3448TIP3    H131835   0.244   2.633  15.384 -0.6587  1.2145  1.8143
 3448TIP3    H231836   0.150   2.655  15.268 -0.1793  0.4379  1.2653
 3449TIP3   OH231837   0.698   6.550   2.044 -0.0688 -0.2114 -0.2445
 3449TIP3    H131838   0.644   6.472   2.059 -1.5176  0.7796 -0.0868
 3449TIP3    H231839   0.706   6.591   2.129  0.5227 -0.0671 -0.3635
 3450TIP3   OH231840   6.370   2.824   1.393 -0.4736  0.3099 -1.2711
 3450TIP3    H131841   6.436   2.889   1.418 -0.0377 -0.7305  0.4651
 3450TIP3    H231842   6.301   2.875   1.351  0.7237  1.6295 -1.7247
 3451TIP3   OH231843   1.145   6.142   4.070 -0.0884 -0.2938 -0.0731
 3451TIP3    H131844   1.110   6.213   4.017  1.2787 -0.1206 -0.7623
 3451TIP3    H231845   1.184   6.185   4.146 -0.2890 -0.4021  0.0942
 3452TIP3   OH231846   0.901   6.756  14.293  0.4523  0.2197 -0.0733
 3452TIP3    H131847   0.875   6.847  14.300 -1.4973 -0.0868 -1.9858
 3452TIP3    H231848   0.848   6.710  14.358  1.1518  0.3651  0.6200
 3453TIP3   OH231849   6.368   3.286  13.291  0.5642 -0.1811 -0.2664
 3453TIP3    H131850   6.332   3.221  13.231 -0.3079  1.0038 -1.0755
 3453TIP3    H231851   6.303   3.293  13.361  0.9237 -0.5604  0.1155
 3454TIP3   OH231852   1.174   4.598  10.631  0.5996  0.0945  0.0531
 3454TIP3    H131853   1.224   4.588  10.550  0.9823 -1.5361  0.4566
 3454TIP3    H231854   1.238   4.624  10.696  0.5417  0.0654  0.1214
 3455TIP3   OH231855   2.026   4.272   4.657  0.1065 -0.0448  0.5637
 3455TIP3    H131856   1.964   4.204   4.682  0.1947 -0.4140 -0.1725
 3455TIP3    H231857   2.084   4.281   4.732 -0.8700  0.3518  1.2844
 3456TIP3   OH231858   5.676   5.394  15.258 -0.3098 -0.2021 -0.1006
 3456TIP3    H131859   5.675   5.301  15.278 -3.0502 -0.1893  0.1682
 3456TIP3    H231860   5.586   5.415  15.234  0.3837  2.2355 -0.9167
 3457TIP3   OH231861   0.864   6.380   5.976 -0.0877  0.1115 -0.4243
 3457TIP3    H131862   0.916   6.370   6.055 -0.5021 -0.9127 -0.2609
 3457TIP3    H231863   0.812   6.459   5.991 -3.0283 -2.0693  2.0430
 3458TIP3   OH231864   3.595   4.732  15.210 -1.2193 -0.1911  0.8236
 3458TIP3    H131865   3.631   4.682  15.283 -0.6700  0.9868  1.3957
 3458TIP3    H231866   3.532   4.791  15.251 -0.5698  0.8027  0.4264
 3459TIP3   OH231867   5.301   3.404  12.301  0.0945 -0.2351  0.4214
 3459TIP3    H131868   5.382   3.430  12.345 -0.8929  2.0572  1.0360
 3459TIP3    H231869   5.237   3.396  12.371 -0.4126 -1.2831 -0.1394
 3460TIP3   OH231870   5.300   5.497   4.688  0.4540 -0.7020 -0.0168
 3460TIP3    H131871   5.292   5.421   4.746 -0.9146 -0.4261  0.1692
 3460TIP3    H231872   5.271   5.571   4.740  1.5540 -0.0587 -0.2785
 3461TIP3   OH231873   2.575   0.224  13.647  0.1214 -0.3740  0.5217
 3461TIP3    H131874   2.486   0.211  13.615 -0.0191  0.0489  0.7280
 3461TIP3    H231875   2.607   0.135  13.666  0.8683 -0.8240 -2.4340
 3462TIP3   OH231876   1.937   3.320   3.566  0.2487 -0.3655 -0.4466
 3462TIP3    H131877   1.926   3.359   3.479 -0.0779  2.0483  0.5818
 3462TIP3    H231878   1.986   3.386   3.615 -1.4478 -0.6669  1.8043
 3463TIP3   OH231879   1.194   5.902   4.985 -0.2268 -0.3523 -0.3195
 3463TIP3    H131880   1.271   5.949   5.016 -0.0428 -0.7974 -0.0948
 3463TIP3    H231881   1.227   5.817   4.956 -0.7523 -0.8802  0.5992
 3464TIP3   OH231882   1.042   4.434   5.812 -0.3461  0.1772  0.0031
 3464TIP3    H131883   1.113   4.406   5.755 -0.0559  1.1332 -0.1273
 3464TIP3    H231884   1.043   4.372   5.885 -0.1614 -0.5344 -0.5980
 3465TIP3   OH231885   3.227   3.404  15.194  0.0920  0.0880 -0.0157
 3465TIP3    H131886   3.215   3.418  15.288 -0.3342  2.4984 -0.3602
 3465TIP3    H231887   3.322   3.412  15.182  0.2095 -0.7664  0.2549
 3466TIP3   OH231888   5.524   1.191   0.894 -0.8280  0.0549 -0.1625
 3466TIP3    H131889   5.583   1.118   0.878  2.4776  2.2272  1.2050
 3466TIP3    H231890   5.483   1.172   0.978  2.1164  0.8823  1.5857
 3467TIP3   OH231891   6.499   3.064   1.467 -0.1912  0.8488  0.3978
 3467TIP3    H131892   6.505   3.034   1.558  1.5131 -0.8817 -0.2220
 3467TIP3    H231893   6.586   3.099   1.447 -0.8097  2.0366 -0.3299
 3468TIP3   OH231894   6.074   2.225   2.528  0.6042 -0.7383 -0.5011
 3468TIP3    H131895   5.984   2.256   2.526  0.4653 -1.0903 -0.0894
 3468TIP3    H231896   6.104   2.246   2.616  1.0125 -0.3933 -0.7199
 3469TIP3   OH231897   3.947   4.301  14.501 -0.3109  0.2117  0.3282
 3469TIP3    H131898   3.959   4.268  14.590 -0.8322 -0.3038  0.2112
 3469TIP3    H231899   3.903   4.229  14.454  0.5972  0.1932 -0.5317
 3470TIP3   OH231900   6.459   2.198   1.695  0.4239 -0.1193  0.9245
 3470TIP3    H131901   6.440   2.259   1.766 -1.1202  0.1204  0.3419
 3470TIP3    H231902   6.555   2.197   1.690  0.5085  1.7604  1.3594
 3471TIP3   OH231903   1.784   6.724   0.963  0.5348  0.3856 -0.6647
 3471TIP3    H131904   1.740   6.672   1.030  1.5989  0.8520  0.4451
 3471TIP3    H231905   1.837   6.660   0.915  1.1757  0.2990  0.1346
 3472TIP3   OH231906   5.325   0.917  15.743 -0.3618  0.2867 -0.4167
 3472TIP3    H131907   5.410   0.942  15.778  0.4327 -1.7536 -0.7614
 3472TIP3    H231908   5.267   0.990  15.767  1.2704  1.3209  0.5786
 3473TIP3   OH231909   6.682   4.631  14.647  0.1771 -0.8229  0.3209
 3473TIP3    H131910   6.732   4.672  14.718 -1.2942 -2.7924  2.6728
 3473TIP3    H231911   6.591   4.633  14.678 -0.9273  0.4222 -2.6799
 3474TIP3   OH231912   3.614   6.762  12.252 -0.1166  0.0330  0.1993
 3474TIP3    H131913   3.628   6.828  12.184  0.9044 -0.4938 -0.1207
 3474TIP3    H231914   3.563   6.807  12.319  1.9142  1.6690  0.7563
 3475TIP3   OH231915   4.312   0.190   2.472 -0.0628 -0.5214 -0.3475
 3475TIP3    H131916   4.290   0.283   2.464 -1.1774 -0.5729  1.3862
 3475TIP3    H231917   4.227   0.147   2.489  0.6548 -1.5989  0.6661
 3476TIP3   OH231918   5.933   5.754   0.453  0.2397  0.1803 -0.2399
 3476TIP3    H131919   5.995   5.702   0.505 -1.0887 -0.9779  0.2594
 3476TIP3    H231920   5.858   5.766   0.511 -0.3618  0.7964 -1.1243
 3477TIP3   OH231921   2.941   6.079  12.666  0.3678  0.4397  0.1495
 3477TIP3    H131922   2.918   6.152  12.609  1.3178  0.3236 -0.4101
 3477TIP3    H231923   2.942   6.116  12.754  1.1368  1.1856 -0.1600
 3478TIP3   OH231924   5.654   5.198   0.891 -0.0009  0.2608 -0.5569
 3478TIP3    H131925   5.650   5.279   0.940  0.9671  1.4108 -2.2688
 3478TIP3    H231926   5.567   5.190   0.851 -0.2686  0.1593  0.0360
 3479TIP3   OH231927   4.031   3.172  10.476  0.0616 -0.3366 -0.0538
 3479TIP3    H131928   4.035   3.109  10.404  1.0668  0.7590 -0.9920
 3479TIP3    H231929   4.101   3.234  10.458 -0.8375  1.0130  0.8962
 3480TIP3   OH231930   5.678   0.620  15.182  0.2839 -0.3099 -0.0376
 3480TIP3    H131931   5.743   0.688  15.196  0.8817 -0.7690 -0.5463
 3480TIP3    H231932   5.610   0.662  15.130  1.3513 -0.4893 -1.6172
 3481TIP3   OH231933   5.113   1.636   2.360 -0.7844  0.7229  0.6387
 3481TIP3    H131934   5.048   1.565   2.370 -2.2104  1.9596  0.5419
 3481TIP3    H231935   5.061   1.712   2.333  0.7214  1.7899  0.6386
 3482TIP3   OH231936   6.632   4.892  10.822 -0.5396 -0.6102  0.3298
 3482TIP3    H131937   6.715   4.933  10.798 -1.8459  1.1279 -1.4878
 3482TIP3    H231938   6.614   4.830  10.751 -1.9443  0.8501 -0.6749
 3483TIP3   OH231939   5.807   1.363  15.361 -0.1719  0.8762  0.2979
 3483TIP3    H131940   5.729   1.310  15.375 -0.3889  1.4837  1.4867
 3483TIP3    H231941   5.787   1.447  15.402  2.1846  0.0980  3.5021
 3484TIP3   OH231942   1.367   2.022   2.745 -0.3835  0.9287  0.4897
 3484TIP3    H131943   1.435   1.966   2.784 -0.0584  1.4479  0.6869
 3484TIP3    H231944   1.350   2.088   2.813 -0.3885  1.3680  0.0624
 3485TIP3   OH231945   1.681   2.811  16.776 -1.0633  0.1630 -0.0252
 3485TIP3    H131946   1.630   2.800  16.856  1.2766  0.1258  1.5582
 3485TIP3    H231947   1.683   2.906  16.762 -1.5056  0.1683 -0.0720
 3486TIP3   OH231948   3.232   4.620  16.573 -0.2741  0.4722  0.1158
 3486TIP3    H131949   3.247   4.699  16.624  1.2739 -1.0280  2.1474
 3486TIP3    H231950   3.311   4.610  16.520 -1.5607  1.6157 -2.2028
 3487TIP3   OH231951   3.378   3.564  15.439  0.0551  0.2348 -0.9550
 3487TIP3    H131952   3.309   3.524  15.492  2.1260  0.0408  1.8029
 3487TIP3    H231953   3.363   3.658  15.446 -0.7928  0.1703 -1.6920
 3488TIP3   OH231954   5.103   3.761   0.669  0.2216  0.0479 -0.5029
 3488TIP3    H131955   5.101   3.813   0.589 -0.8211  1.8457  0.6139
 3488TIP3    H231956   5.137   3.676   0.642 -1.0922  0.2266 -3.0498
 3489TIP3   OH231957   0.213   1.342   1.658  0.4264 -0.0353  0.0162
 3489TIP3    H131958   0.146   1.274   1.652  1.0659 -1.1277  3.2531
 3489TIP3    H231959   0.164   1.422   1.678 -0.0319 -0.5251  0.9116
 3490TIP3   OH231960   3.743   0.479   5.647 -0.5906  0.4179  0.2674
 3490TIP3    H131961   3.825   0.434   5.669 -1.4548 -0.3277  2.1837
 3490TIP3    H231962   3.770   0.551   5.590  1.1841 -0.8162 -0.5539
 3491TIP3   OH231963   4.410   4.258  13.322 -0.1107  0.7652  0.7049
 3491TIP3    H131964   4.344   4.280  13.257  0.3865  2.1701  0.6313
 3491TIP3    H231965   4.491   4.247  13.272 -0.0900  0.0107  0.8947
 3492TIP3   OH231966   5.054   4.142   3.557  0.0176  0.5667  0.0788
 3492TIP3    H131967   4.966   4.179   3.552  0.7577  2.2449 -1.6458
 3492TIP3    H231968   5.103   4.202   3.614  0.8147  1.4532 -1.4744
 3493TIP3   OH231969   4.414   4.213   2.118  0.0252  0.5389 -0.0349
 3493TIP3    H131970   4.441   4.188   2.206 -1.2805  1.9123  0.8173
 3493TIP3    H231971   4.453   4.300   2.105 -1.5343  1.3043  0.1104
 3494TIP3   OH231972   5.239   5.323   0.949  0.1319 -0.1286  0.5349
 3494TIP3    H131973   5.235   5.329   1.045 -1.5672  0.0690  0.4812
 3494TIP3    H231974   5.211   5.409   0.919  0.1385 -0.3617 -0.1457
 3495TIP3   OH231975   6.424   5.144  12.466 -0.1242  0.2131 -0.1912
 3495TIP3    H131976   6.446   5.237  12.474  0.6801  0.0992 -0.9071
 3495TIP3    H231977   6.509   5.100  12.462 -0.4966 -0.5042 -0.4071
 3496TIP3   OH231978   2.520   0.418  11.651  0.0779  0.3490  0.3837
 3496TIP3    H131979   2.605   0.408  11.694 -0.0594  1.7758  1.0585
 3496TIP3    H231980   2.459   0.371  11.708  0.4766 -1.2299 -0.4413
 3497TIP3   OH231981   2.022   1.644   1.476 -0.0608  0.0887  0.2561
 3497TIP3    H131982   1.937   1.634   1.519 -1.0561  1.4142 -1.2929
 3497TIP3    H231983   2.041   1.738   1.481  0.8453 -0.0537 -0.2660
 3498TIP3   OH231984   4.830   3.374   0.925  0.3760 -0.2475 -0.2113
 3498TIP3    H131985   4.826   3.295   0.872 -1.1704  0.6244 -1.4594
 3498TIP3    H231986   4.742   3.383   0.962  0.4984  0.9318 -0.1554
 3499TIP3   OH231987   3.130   1.790   5.612 -0.1714  0.2106 -0.4248
 3499TIP3    H131988   3.168   1.877   5.603  0.2602 -0.0036 -0.7246
 3499TIP3    H231989   3.037   1.806   5.630 -0.2684  0.7203 -1.3264
 3500TIP3   OH231990   5.725   3.759   5.072  0.2449  0.1977  0.3760
 3500TIP3    H131991   5.707   3.727   5.160  0.0533 -1.1732 -0.1430
 3500TIP3    H231992   5.640   3.785   5.038 -0.2459 -2.3841 -0.5681
 3501TIP3   OH231993   5.541   5.657  12.571 -0.0636  0.3482  0.3593
 3501TIP3    H131994   5.557   5.586  12.634  0.1251 -1.2255 -1.3948
 3501TIP3    H231995   5.625   5.703  12.566 -0.1465  0.6405  1.4174
 3502TIP3   OH231996   4.867   3.643  11.227 -0.1321  0.0733 -0.2501
 3502TIP3    H131997   4.928   3.570  11.217  0.9800  0.8823  0.4370
 3502TIP3    H231998   4.850   3.673  11.138 -0.7076 -1.0944 -0.5519
 3503TIP3   OH231999   5.197   3.284   0.694 -0.2188 -0.0974  0.3506
 3503TIP3    H132000   5.213   3.341   0.769  0.0744 -1.6795  1.5276
 3503TIP3    H232001   5.155   3.207   0.731 -1.0575 -0.4619 -1.2781
 3504TIP3   OH232002   4.521   0.611   2.072 -0.0881 -0.6868 -0.9581
 3504TIP3    H132003   4.607   0.583   2.105  1.3499  0.2863 -3.5688
 3504TIP3    H232004   4.482   0.657   2.146  1.2481 -1.8882  0.5819
 3505TIP3   OH232005   0.467   6.853  16.292  0.1284  0.1233 -0.0081
 3505TIP3    H132006   0.526   6.779  16.275 -1.3153 -0.7772 -1.4207
 3505TIP3    H232007   0.494   6.919  16.229  0.8626  0.4918  0.6736
 3506TIP3   OH232008   3.622   3.819   4.023 -0.0689  0.1706  0.7565
 3506TIP3    H132009   3.702   3.767   4.025 -0.0565  0.1515 -0.1468
 3506TIP3    H232010   3.559   3.766   3.974  0.0136  1.0952 -0.3699
 3507TIP3   OH232011   2.807   2.647  13.815  1.0426  0.4989 -0.4120
 3507TIP3    H132012   2.804   2.564  13.863 -0.4534  0.9009  0.2310
 3507TIP3    H232013   2.844   2.710  13.877 -1.1239  1.0747  0.3560
 3508TIP3   OH232014   5.368   6.513  11.013  0.3033  0.1459  0.3737
 3508TIP3    H132015   5.420   6.549  10.940 -1.1425  0.2893 -0.6287
 3508TIP3    H232016   5.294   6.574  11.021  0.8457  0.5798  2.5258
 3509TIP3   OH232017   3.038   2.743   3.985  0.4797 -0.9324 -0.2816
 3509TIP3    H132018   3.067   2.816   4.040 -1.0521  0.5327 -1.3028
 3509TIP3    H232019   3.107   2.678   3.993  1.4515  0.2252  1.4329
 3510TIP3   OH232020   4.349   0.555   4.426  0.2608  0.7432 -0.3174
 3510TIP3    H132021   4.278   0.597   4.378 -1.3788 -1.4017  0.0528
 3510TIP3    H232022   4.376   0.482   4.370  0.6598  0.2423  0.4995
 3511TIP3   OH232023   4.607   2.610   0.559  0.0361 -0.0263 -0.1103
 3511TIP3    H132024   4.571   2.540   0.613 -1.2545  0.2336 -0.5875
 3511TIP3    H232025   4.680   2.645   0.611 -0.0561 -0.9305  0.6572
 3512TIP3   OH232026   1.618   0.695   5.088 -0.0442  0.1865  0.1185
 3512TIP3    H132027   1.639   0.788   5.074  0.3460  0.3018  1.2929
 3512TIP3    H232028   1.558   0.696   5.163  1.3757 -0.5929  1.3281
 3513TIP3   OH232029   3.835   1.843  17.015  0.3313  0.3945 -0.0472
 3513TIP3    H132030   3.777   1.879  16.949  0.9661  0.2833 -0.6839
 3513TIP3    H232031   3.893   1.916  17.039 -2.3877  1.7381  3.4370
 3514TIP3   OH232032   5.850   1.201  16.081  0.0564 -0.1568 -0.3306
 3514TIP3    H132033   5.759   1.217  16.106  0.2990  0.8485 -0.0502
 3514TIP3    H232034   5.896   1.193  16.164  0.8023  2.8361 -0.3339
 3515TIP3   OH232035   6.417   2.858  15.122  0.1547  0.2282 -0.0184
 3515TIP3    H132036   6.453   2.869  15.210 -0.9657 -1.3600  0.6841
 3515TIP3    H232037   6.435   2.941  15.078  0.8881  0.9958  1.6479
 3516TIP3   OH232038   6.670   1.714   2.685  0.1100 -0.3585  0.2197
 3516TIP3    H132039   6.639   1.802   2.707 -2.6798 -1.5289  1.4889
 3516TIP3    H232040   6.700   1.721   2.595 -1.2871  1.6361 -0.1614
 3517TIP3   OH232041   3.008   1.708  10.728 -0.2075 -0.3190  0.2377
 3517TIP3    H132042   2.969   1.795  10.719 -0.3065 -0.3069  0.7709
 3517TIP3    H232043   3.019   1.678  10.638 -0.9876 -0.1145  0.0640
 3518TIP3   OH232044   3.672   5.960   4.772 -0.1729 -0.2733 -0.2603
 3518TIP3    H132045   3.730   5.885   4.784 -1.0084 -0.8110  0.5205
 3518TIP3    H232046   3.720   6.017   4.712  1.5537 -0.3108  0.9850
 3519TIP3   OH232047   6.619   3.320  16.332 -0.5534 -0.4662  0.3965
 3519TIP3    H132048   6.678   3.368  16.390  0.6652 -1.8756  0.3723
 3519TIP3    H232049   6.541   3.304  16.385 -0.5579  0.5939  0.7378
 3520TIP3   OH232050   2.987   2.486   2.538 -0.1035 -0.3701  0.1622
 3520TIP3    H132051   2.905   2.504   2.493 -1.3618 -1.1406  2.0248
 3520TIP3    H232052   3.055   2.517   2.478 -1.8015  2.2432 -0.5541
 3521TIP3   OH232053   4.882   0.700   4.057  0.0954 -0.0847  0.3164
 3521TIP3    H132054   4.866   0.746   3.975 -0.8383  0.2250  0.6619
 3521TIP3    H232055   4.933   0.623   4.032  0.8915  0.6496 -0.3861
 3522TIP3   OH232056   1.920   1.186  14.609  0.1710  0.0746  0.2435
 3522TIP3    H132057   1.936   1.273  14.572  0.4741 -0.5239 -1.0729
 3522TIP3    H232058   1.957   1.125  14.545 -0.6105 -1.0566  0.8349
 3523TIP3   OH232059   5.383   5.111  17.013  0.3258 -0.2621  0.3108
 3523TIP3    H132060   5.411   5.074  16.930  2.6635 -0.3193  1.0424
 3523TIP3    H232061   5.388   5.206  16.999 -0.9045 -0.2343 -0.0775
 3524TIP3   OH232062   6.054   3.010   1.460 -0.7874 -0.1981  0.3836
 3524TIP3    H132063   6.095   3.021   1.374 -2.1701 -1.9626 -0.5527
 3524TIP3    H232064   6.127   3.018   1.522  0.2505  0.9957 -0.9338
 3525TIP3   OH232065   6.659   6.154   5.678 -0.6146  0.3188 -0.8198
 3525TIP3    H132066   6.616   6.069   5.682 -0.4743  0.3015  0.7913
 3525TIP3    H232067   6.590   6.217   5.703 -0.7038  0.6935 -1.9426
 3526TIP3   OH232068   4.931   0.039  10.796 -0.0839  0.3936  0.7254
 3526TIP3    H132069   4.998   0.070  10.735  0.1663  0.8719  1.2383
 3526TIP3    H232070   4.873   0.115  10.807 -0.4006  0.1543  0.7104
 3527TIP3   OH232071   5.657   4.104   0.023  0.0523 -0.2837  0.5077
 3527TIP3    H132072   5.601   4.125  -0.052  1.2583 -0.3204 -0.4310
 3527TIP3    H232073   5.682   4.189   0.059  0.9859 -0.1949 -0.3047
 3528TIP3   OH232074   5.336   1.380  11.020 -0.3329 -0.8376  0.7492
 3528TIP3    H132075   5.338   1.293  10.980 -0.3832 -0.8021  0.6706
 3528TIP3    H232076   5.327   1.363  11.114 -2.7821 -0.8695  0.5584
 3529TIP3   OH232077   6.137   1.835  14.685 -0.6871 -0.1797  0.5993
 3529TIP3    H132078   6.072   1.766  14.697  0.9569 -1.9694 -0.2258
 3529TIP3    H232079   6.221   1.791  14.698  0.5187  1.1738 -1.8668
 3530TIP3   OH232080   2.467   5.266   1.584 -0.2462 -0.0535  0.0081
 3530TIP3    H132081   2.556   5.233   1.596 -1.4700 -3.3580  1.0092
 3530TIP3    H232082   2.433   5.218   1.509 -2.0177 -0.9412  1.2990
 3531TIP3   OH232083   0.104   6.453   6.301 -0.5961 -0.4626 -0.1639
 3531TIP3    H132084   0.189   6.459   6.344  0.0500  0.8793 -1.5563
 3531TIP3    H232085   0.052   6.522   6.342 -0.3925 -0.0128 -0.6705
 3532TIP3   OH232086   6.653   5.633  14.795  0.5856  0.0431 -0.4813
 3532TIP3    H132087   6.641   5.543  14.763 -1.3282 -0.1242  0.5838
 3532TIP3    H232088   6.565   5.669  14.800  1.3474  2.2462 -1.4738
 3533TIP3   OH232089   2.977   6.535   5.845 -0.5941 -0.5044 -0.2401
 3533TIP3    H132090   2.949   6.526   5.936  2.3773  0.9874  0.9562
 3533TIP3    H232091   3.035   6.461   5.830 -0.7017 -0.4821 -0.7894
 3534TIP3   OH232092   2.554   1.301  14.966  0.2166 -0.3351  0.1327
 3534TIP3    H132093   2.462   1.312  14.943 -0.7065 -1.7631  2.7201
 3534TIP3    H232094   2.588   1.238  14.902 -0.1694  1.1598 -1.6394
 3535TIP3   OH232095   4.487   3.764  15.358  0.1585 -0.2176  0.2907
 3535TIP3    H132096   4.505   3.676  15.393  0.0453 -0.0151  0.8778
 3535TIP3    H232097   4.441   3.748  15.276 -0.9936 -0.7149  0.9970
 3536TIP3   OH232098   1.701   5.816  10.943  0.1609  0.2605 -0.1752
 3536TIP3    H132099   1.616   5.778  10.963  1.0929 -1.4369  0.8161
 3536TIP3    H232100   1.753   5.742  10.910  1.6987  0.9195  0.6688
 3537TIP3   OH232101   6.052   3.491  16.518 -0.4126  0.6527 -0.3824
 3537TIP3    H132102   5.958   3.483  16.534  0.0834 -2.3131  1.6506
 3537TIP3    H232103   6.089   3.519  16.602  0.7402 -0.5818 -0.4435
 3538TIP3   OH232104   1.689   2.064  15.645  0.0228  0.6285  0.3230
 3538TIP3    H132105   1.620   2.020  15.596 -0.0631 -0.4560  1.3589
 3538TIP3    H232106   1.679   2.157  15.623 -2.6599  0.7052  1.4463
 3539TIP3   OH232107   4.042   1.409   3.890 -0.0744  0.2470  0.1496
 3539TIP3    H132108   3.986   1.487   3.896  0.6623  0.7484  0.6478
 3539TIP3    H232109   4.127   1.439   3.921  0.6058 -0.3747 -1.0559
 3540TIP3   OH232110   0.831   5.778   1.554  0.4263 -0.2162  0.2633
 3540TIP3    H132111   0.797   5.865   1.531  0.6705 -0.1479  0.1643
 3540TIP3    H232112   0.794   5.761   1.641  1.6486  0.6668  0.9823
 3541TIP3   OH232113   1.576   6.839  14.723 -0.4242  0.3118  0.1735
 3541TIP3    H132114   1.568   6.934  14.732 -0.4005  0.3884 -0.5498
 3541TIP3    H232115   1.495   6.804  14.758  0.1205  0.5120  1.7007
 3542TIP3   OH232116   3.387   1.327   3.830 -0.0549  0.1228 -0.2083
 3542TIP3    H132117   3.412   1.396   3.767  0.4950 -0.2705 -0.4326
 3542TIP3    H232118   3.470   1.300   3.868 -0.3567  0.1295  0.4591
 3543TIP3   OH232119   0.461   4.883   0.423 -0.0881 -0.1983  0.5744
 3543TIP3    H132120   0.542   4.918   0.460 -1.2662  2.4078  0.8531
 3543TIP3    H232121   0.491   4.817   0.360  2.1342 -1.0737  2.3941
 3544TIP3   OH232122   5.805   0.000   5.524  0.1679 -0.1077 -0.5068
 3544TIP3    H132123   5.802   0.090   5.557  0.7228  0.1594 -1.1505
 3544TIP3    H232124   5.800  -0.055   5.603 -1.5770  0.4369 -0.1898
 3545TIP3   OH232125   4.268   1.885   0.323 -0.0371  0.1515 -0.2499
 3545TIP3    H132126   4.230   1.929   0.247 -1.3150  0.2354  0.4213
 3545TIP3    H232127   4.200   1.887   0.389  0.2405 -1.8620  0.1763
 3546TIP3   OH232128   1.120   2.216   1.966  0.3590 -0.1492 -0.3589
 3546TIP3    H132129   1.100   2.300   1.924  1.1874  1.0874  1.5795
 3546TIP3    H232130   1.034   2.176   1.981  0.0019 -0.1525 -2.1981
 3547TIP3   OH232131   5.108   5.668   3.903 -0.8284 -0.3326 -0.4943
 3547TIP3    H132132   5.168   5.734   3.937  0.3298 -0.1079 -2.8145
 3547TIP3    H232133   5.054   5.644   3.979  1.2791  0.4219  1.3578
 3548TIP3   OH232134   6.658   6.770  14.004 -0.0777 -0.2340 -0.4770
 3548TIP3    H132135   6.672   6.797  14.095 -2.8287  1.3284 -0.3989
 3548TIP3    H232136   6.745   6.756  13.969  1.1615  1.2310  1.7919
 3549TIP3   OH232137   3.603   2.524   5.103  0.2145  0.2467  0.0064
 3549TIP3    H132138   3.521   2.557   5.139 -0.2803  1.1493 -1.7900
 3549TIP3    H232139   3.591   2.430   5.095 -0.5279  0.3361  0.0508
 3550TIP3   OH232140   3.990   2.070  12.239  0.1199 -0.0213 -0.2925
 3550TIP3    H132141   4.036   1.988  12.251  1.1144 -0.1807 -4.0600
 3550TIP3    H232142   3.909   2.060  12.289  0.2804 -3.1994 -0.5123
 3551TIP3   OH232143   2.498   3.246   0.687 -0.0025 -0.3793  0.2152
 3551TIP3    H132144   2.566   3.312   0.697 -0.8307  0.2092  2.6012
 3551TIP3    H232145   2.425   3.293   0.645  0.2111 -0.4017 -0.1887
 3552TIP3   OH232146   3.085   0.383  12.021  0.5569  0.0647 -0.4004
 3552TIP3    H132147   3.024   0.375  12.094  1.4437 -2.5787  0.1857
 3552TIP3    H232148   3.075   0.301  11.972  2.2658  0.3766 -1.3581
 3553TIP3   OH232149   1.927   0.651  13.797 -0.1735 -0.7028  0.6156
 3553TIP3    H132150   1.970   0.567  13.782 -0.8331 -1.2577  1.6883
 3553TIP3    H232151   1.985   0.697  13.858 -0.3080 -0.7953  0.8143
 3554TIP3   OH232152   1.964   2.241  11.813 -0.4733 -0.0842 -0.6472
 3554TIP3    H132153   1.902   2.301  11.772 -1.1985 -0.4399 -0.1033
 3554TIP3    H232154   1.913   2.196  11.881  0.0305 -1.3394 -1.0618
 3555TIP3   OH232155   0.538   3.605   0.366  0.1404  0.0273  0.1794
 3555TIP3    H132156   0.598   3.678   0.352 -0.3334  0.5792  0.9096
 3555TIP3    H232157   0.460   3.627   0.315  0.1001 -0.1024  0.1825
 3556TIP3   OH232158   6.082   3.725  13.184  0.5289 -0.1019  0.3022
 3556TIP3    H132159   6.060   3.691  13.271  0.2327  0.5215  0.4790
 3556TIP3    H232160   6.017   3.794  13.168  0.7840  0.0115 -0.2721
 3557TIP3   OH232161   6.478   1.739   2.946 -0.0470  0.1915 -0.1878
 3557TIP3    H132162   6.514   1.823   2.916 -0.2769  0.5652  0.5682
 3557TIP3    H232163   6.461   1.751   3.039  0.6579 -0.9596  0.1088
 3558TIP3   OH232164   6.382   6.427  11.060 -0.2421 -0.2145 -0.4247
 3558TIP3    H132165   6.332   6.354  11.097  0.5515 -1.0044 -0.8810
 3558TIP3    H232166   6.460   6.386  11.023  0.6272  0.9599  0.0452
 3559TIP3   OH232167   2.439   1.357   0.691  0.2470 -0.3983 -0.0574
 3559TIP3    H132168   2.356   1.323   0.658 -1.4416  2.6803  0.6382
 3559TIP3    H232169   2.501   1.342   0.621 -1.3128 -1.2341 -1.3203
 3560TIP3   OH232170   5.546   2.972  11.911  0.1410  0.0377  0.0993
 3560TIP3    H132171   5.451   2.973  11.922  0.0841  1.3575 -0.2982
 3560TIP3    H232172   5.570   2.879  11.910 -0.9645 -0.2928  1.6079
 3561TIP3   OH232173   2.943   2.871  10.778 -0.0365  0.1717  0.4536
 3561TIP3    H132174   3.004   2.799  10.765 -0.2659 -0.0248  0.4682
 3561TIP3    H232175   2.990   2.931  10.836  1.2846  1.3911 -1.7148
 3562TIP3   OH232176   6.736   6.604   3.657  0.0433  0.1543  0.0002
 3562TIP3    H132177   6.642   6.589   3.647 -0.1708  1.4175  0.0282
 3562TIP3    H232178   6.743   6.688   3.702  1.1848 -0.1227  0.3731
 3563TIP3   OH232179   3.853   2.334   1.380  0.0255 -0.2364  0.3228
 3563TIP3    H132180   3.758   2.347   1.381  0.1056  1.1914 -2.0812
 3563TIP3    H232181   3.887   2.401   1.440 -0.3975  1.3185 -1.0865
 3564TIP3   OH232182   3.266   2.782  13.324 -0.4071 -0.0800  0.0366
 3564TIP3    H132183   3.320   2.790  13.245  0.5704 -3.6925  0.1788
 3564TIP3    H232184   3.177   2.795  13.293  0.0734  0.1291 -1.3462
 3565TIP3   OH232185   1.060   6.032   2.686  0.0080 -0.2471  0.1169
 3565TIP3    H132186   1.050   6.071   2.599  1.5443 -0.9472 -0.4077
 3565TIP3    H232187   0.982   6.060   2.734  0.1511  1.9372 -0.8074
 3566TIP3   OH232188   2.862   1.699  12.024 -0.0193  0.1619 -0.9130
 3566TIP3    H132189   2.905   1.765  12.079  2.2069 -1.7012 -0.2683
 3566TIP3    H232190   2.820   1.640  12.087  0.2636 -0.4925 -1.3258
 3567TIP3   OH232191   1.466   2.364   3.828  0.0354  0.3622 -0.1792
 3567TIP3    H132192   1.521   2.308   3.773  0.1765  0.5666 -0.2501
 3567TIP3    H232193   1.379   2.324   3.824  0.5758 -1.0926  1.4970
 3568TIP3   OH232194   3.878   6.219   4.835 -0.4803  0.5128  0.1393
 3568TIP3    H132195   3.792   6.248   4.868 -0.9487 -0.8088  0.1366
 3568TIP3    H232196   3.884   6.127   4.862  1.0359  0.6373  0.3094
 3569TIP3   OH232197   6.580   1.001   1.956 -0.4522  0.3374  0.3101
 3569TIP3    H132198   6.632   0.935   1.911  0.0202  1.1004 -0.2840
 3569TIP3    H232199   6.644   1.053   2.006 -1.0132 -0.8636  2.4018
 3570TIP3   OH232200   5.575   5.775   1.544 -0.1423 -1.1638  0.4772
 3570TIP3    H132201   5.663   5.766   1.581  0.3505  0.9005 -0.0522
 3570TIP3    H232202   5.589   5.777   1.450 -0.3584  1.7701  0.4056
 3571TIP3   OH232203   1.360   6.505  15.954 -0.4554 -0.4914  0.4381
 3571TIP3    H132204   1.268   6.480  15.942 -0.6730 -0.0591  1.1468
 3571TIP3    H232205   1.356   6.589  16.000  0.3090 -0.9296  1.3162
 3572TIP3   OH232206   2.409   4.790  13.145  0.2041  0.1143 -0.4100
 3572TIP3    H132207   2.463   4.869  13.145 -0.1084  0.3955 -2.5697
 3572TIP3    H232208   2.470   4.719  13.124  0.2666 -0.0360  0.2729
 3573TIP3   OH232209   2.665   0.379   1.827  0.0917  0.5249 -0.0393
 3573TIP3    H132210   2.698   0.390   1.916 -1.0162  2.3229  0.2042
 3573TIP3    H232211   2.733   0.417   1.771  3.0057 -4.5987 -0.5337
 3574TIP3   OH232212   0.199   6.290   0.429 -0.1549 -0.2307  0.0284
 3574TIP3    H132213   0.290   6.283   0.458  0.1766 -0.4029 -1.0333
 3574TIP3    H232214   0.151   6.316   0.508  1.0272  1.4449  0.2468
 3575TIP3   OH232215   6.730   3.218  11.668 -0.3789 -0.3175 -0.1411
 3575TIP3    H132216   6.775   3.194  11.587 -0.8862  0.3861 -0.6474
 3575TIP3    H232217   6.757   3.308  11.684 -0.1288 -0.5189  0.5905
 3576TIP3   OH232218   5.635   6.238   4.844  0.4075 -0.2869  0.2845
 3576TIP3    H132219   5.627   6.333   4.841  0.6825 -0.2805 -2.1494
 3576TIP3    H232220   5.724   6.220   4.812  0.7097 -1.3525  1.6125
 3577TIP3   OH232221   0.208   0.132  10.214 -0.2357 -0.0420 -0.4123
 3577TIP3    H132222   0.200   0.066  10.283 -1.2954 -0.5033 -0.9600
 3577TIP3    H232223   0.202   0.216  10.260 -0.4145 -0.3365  0.1095
 3578TIP3   OH232224   1.990   1.465  10.467  0.0847  0.5128  0.0285
 3578TIP3    H132225   1.992   1.459  10.562 -0.5324  0.2528  0.0301
 3578TIP3    H232226   2.082   1.473  10.441  0.1813  1.9124  0.7227
 3579TIP3   OH232227   6.663   0.479   0.883 -1.0049  0.2689 -0.0266
 3579TIP3    H132228   6.644   0.537   0.957 -1.2086 -0.2349  0.3185
 3579TIP3    H232229   6.665   0.391   0.921  0.7290  0.1551 -0.2714
 3580TIP3   OH232230   4.222   4.897  12.065 -0.2176 -0.0887  0.2381
 3580TIP3    H132231   4.310   4.898  12.101  0.0175 -0.7626 -0.2931
 3580TIP3    H232232   4.177   4.971  12.107  0.6448  0.3554  0.3910
 3581TIP3   OH232233   6.834   2.859   0.035  0.1313 -0.4493 -0.3510
 3581TIP3    H132234   6.850   2.915   0.111 -0.1110 -0.3037 -0.4094
 3581TIP3    H232235   6.869   2.774   0.061  0.6872 -0.2242 -0.3376
 3582TIP3   OH232236   5.303   4.151   0.426 -0.1481  0.5708 -0.0406
 3582TIP3    H132237   5.371   4.213   0.402 -1.3745  1.4138 -1.5172
 3582TIP3    H232238   5.245   4.148   0.350 -1.6936 -0.2172  1.0994
 3583TIP3   OH232239   6.007   5.793  16.920 -0.1100 -0.1188 -0.1162
 3583TIP3    H132240   5.967   5.746  16.847  0.0297 -1.1436  0.4578
 3583TIP3    H232241   6.067   5.730  16.960 -0.3926  0.3334  1.0546
 3584TIP3   OH232242   6.203   1.529   2.156  0.1237  0.0818 -0.6721
 3584TIP3    H132243   6.284   1.579   2.146  0.7566 -1.0796 -1.5831
 3584TIP3    H232244   6.165   1.527   2.069 -0.4596 -0.0943 -0.4174
 3585TIP3   OH232245   0.008   6.594  12.432 -0.0493 -0.5263  0.1769
 3585TIP3    H132246  -0.020   6.684  12.451 -2.7243 -1.3985  0.7146
 3585TIP3    H232247  -0.001   6.548  12.515  1.4781 -1.2950 -0.0491
 3586TIP3   OH232248   5.652   3.998  14.578 -0.7975 -0.1021  0.3270
 3586TIP3    H132249   5.739   3.990  14.540 -1.0438 -0.8164 -0.1001
 3586TIP3    H232250   5.616   4.078  14.540  0.5107  1.5018  2.2357
 3587TIP3   OH232251   0.488   5.337   4.946  0.1428  0.0029  0.0404
 3587TIP3    H132252   0.556   5.360   4.883  1.7699 -0.8767  1.4229
 3587TIP3    H232253   0.534   5.298   5.020 -1.8110 -0.1167  1.2873
 3588TIP3   OH232254   3.146   2.311  11.379 -0.2437 -0.0548  0.6992
 3588TIP3    H132255   3.130   2.373  11.308  2.4798 -2.2542 -2.0946
 3588TIP3    H232256   3.235   2.331  11.409 -0.3036 -0.9829  1.5428
 3589TIP3   OH232257   6.155   5.340   3.349 -0.2362 -0.1017  0.1736
 3589TIP3    H132258   6.099   5.385   3.286  0.4727  0.6622  0.0633
 3589TIP3    H232259   6.229   5.309   3.298 -0.9400 -1.8646  0.1592
 3590TIP3   OH232260   2.940   4.327   0.870 -0.1861 -0.1516  0.0321
 3590TIP3    H132261   2.957   4.408   0.917 -0.9031 -0.0969  0.2207
 3590TIP3    H232262   2.898   4.354   0.789 -0.9860 -0.3462  0.3632
 3591TIP3   OH232263   2.996   1.495  12.711  0.3807 -0.5143 -0.2677
 3591TIP3    H132264   2.919   1.483  12.654  0.5440  0.0068 -0.6087
 3591TIP3    H232265   3.046   1.414  12.700 -0.0256 -0.7827 -0.1857
 3592TIP3   OH232266   0.345   2.964   3.240  0.1899  0.1449 -0.6576
 3592TIP3    H132267   0.438   2.987   3.233  0.0657  0.2827 -2.0102
 3592TIP3    H232268   0.305   3.002   3.162 -0.8522 -0.6601 -0.5298
 3593TIP3   OH232269   4.984   5.319   3.121  0.1323  0.1782 -0.0357
 3593TIP3    H132270   4.939   5.282   3.045 -0.3052 -1.9039  1.1537
 3593TIP3    H232271   4.982   5.414   3.107 -1.9494 -0.0155 -1.5034
 3594TIP3   OH232272   2.367   2.246  16.947 -0.1463  0.7105  0.9045
 3594TIP3    H132273   2.383   2.185  16.875  0.9681  1.4163  0.5315
 3594TIP3    H232274   2.281   2.285  16.927 -0.0738  0.5376  0.2312
 3595TIP3   OH232275   2.977   3.934   5.398  0.3102 -0.0857 -0.3150
 3595TIP3    H132276   2.927   3.917   5.479 -0.1897 -2.5110 -1.0419
 3595TIP3    H232277   2.921   3.992   5.347  0.7902  1.7804  1.1847
 3596TIP3   OH232278   4.186   5.870  14.483  0.8314 -0.2589 -0.4352
 3596TIP3    H132279   4.135   5.805  14.436  1.5929 -1.3782  0.2305
 3596TIP3    H232280   4.122   5.917  14.536 -0.0761  1.1860 -2.6804
 3597TIP3   OH232281   1.943   4.239   5.448  0.2128 -0.4408 -0.3453
 3597TIP3    H132282   2.005   4.227   5.376  0.9972 -1.6903  0.5017
 3597TIP3    H232283   1.866   4.278   5.407  0.5492 -1.3531 -1.9127
 3598TIP3   OH232284   6.783   5.005   5.182 -0.3810  0.0371  0.4821
 3598TIP3    H132285   6.700   5.015   5.229 -0.7345  0.0449 -0.1426
 3598TIP3    H232286   6.759   4.973   5.095  0.4079 -2.0392  0.9630
 3599TIP3   OH232287   3.323   0.616   2.034  0.5895  0.2793 -0.0623
 3599TIP3    H132288   3.396   0.570   1.991  0.8086  0.7193 -0.1687
 3599TIP3    H232289   3.363   0.693   2.073  0.2581  0.2712  0.2982
 3600TIP3   OH232290   6.593   2.659  13.993 -0.0960 -0.0770 -0.8882
 3600TIP3    H132291   6.563   2.735  14.042 -0.9611 -0.4760 -0.7686
 3600TIP3    H232292   6.686   2.650  14.015 -0.8082 -1.2519  2.0688
 3601TIP3   OH232293   0.304   6.476  13.746 -0.5317  0.4785 -0.2573
 3601TIP3    H132294   0.397   6.496  13.759  0.1596 -2.2269 -0.4933
 3601TIP3    H232295   0.286   6.503  13.656  0.4551 -0.3125 -0.7117
 3602TIP3   OH232296   6.742   5.876   1.109  0.1958 -0.4198  0.1447
 3602TIP3    H132297   6.663   5.823   1.120 -0.2519  0.1512 -0.2864
 3602TIP3    H232298   6.732   5.917   1.024 -0.4821  2.0046  1.2926
 3603TIP3   OH232299   4.193   4.868  15.649  0.1457  0.7453 -0.1865
 3603TIP3    H132300   4.251   4.917  15.707  0.5515  2.0024 -1.5935
 3603TIP3    H232301   4.200   4.913  15.565  0.5843 -1.7482 -1.5945
 3604TIP3   OH232302   2.674   3.879   4.006 -0.8707 -0.2834  0.0242
 3604TIP3    H132303   2.692   3.795   4.049 -0.2827  0.2243  0.7812
 3604TIP3    H232304   2.586   3.868   3.969 -0.6470 -1.3687 -0.2281
 3605TIP3   OH232305   6.645   6.435  14.091 -0.0951  0.1821 -0.0396
 3605TIP3    H132306   6.646   6.434  13.995  0.2579  1.2387 -0.0621
 3605TIP3    H232307   6.734   6.461  14.116  0.5171 -2.3012  0.6539
 3606TIP3   OH232308   2.970   5.198  11.019 -0.3424 -0.5362 -0.1186
 3606TIP3    H132309   3.062   5.186  11.040 -0.3807  2.0029  2.1411
 3606TIP3    H232310   2.963   5.289  10.991 -2.2069 -0.4982  0.3207
 3607TIP3   OH232311   3.853   1.626   3.882  0.4287 -0.6640 -0.7392
 3607TIP3    H132312   3.880   1.691   3.817 -0.6157 -1.2396 -1.7856
 3607TIP3    H232313   3.769   1.593   3.850  0.2429 -1.5107  0.5222
 3608TIP3   OH232314   0.842   2.897  13.213 -0.6022  0.1917 -0.0253
 3608TIP3    H132315   0.817   2.861  13.298 -0.8386  1.0774  0.2959
 3608TIP3    H232316   0.764   2.888  13.159 -0.6092  0.0697  0.0064
 3609TIP3   OH232317   6.514   3.330  11.801  0.2775  0.2343 -0.1413
 3609TIP3    H132318   6.600   3.300  11.772 -0.3227 -0.0379 -1.7044
 3609TIP3    H232319   6.506   3.418  11.765  0.8788  1.2642  2.0819
 3610TIP3   OH232320   2.070   0.394   2.512 -0.7924  0.4059 -0.2889
 3610TIP3    H132321   2.051   0.464   2.575 -0.3886  0.5476 -0.3211
 3610TIP3    H232322   2.054   0.434   2.427  3.2038  1.8172 -0.6169
 3611TIP3   OH232323   2.660   2.089  11.393  0.1246  0.1685 -0.1030
 3611TIP3    H132324   2.730   2.153  11.407  1.5277 -1.1534 -0.7177
 3611TIP3    H232325   2.667   2.028  11.467 -1.4268  0.8843  0.6707
 3612TIP3   OH232326   6.729   5.283  16.705  0.4718  0.3331  0.5283
 3612TIP3    H132327   6.815   5.277  16.746  1.1675  1.0064 -0.7901
 3612TIP3    H232328   6.739   5.239  16.621 -0.8309 -0.6996  0.8883
 3613TIP3   OH232329   2.982   0.562   1.534 -0.1747  0.4067  0.7031
 3613TIP3    H132330   3.047   0.622   1.497  1.0718 -1.4664 -0.2988
 3613TIP3    H232331   2.922   0.545   1.462 -0.4281  0.3213  0.9332
 3614TIP3   OH232332   5.633   6.301  14.582 -0.0556  0.7389 -0.1504
 3614TIP3    H132333   5.586   6.370  14.535  1.5825  1.9254 -0.1587
 3614TIP3    H232334   5.610   6.221  14.537 -2.7231  1.1101  0.3968
 3615TIP3   OH232335   6.631   2.832   3.298  0.3259  0.3225 -0.0652
 3615TIP3    H132336   6.569   2.777   3.347  2.0459 -1.8154 -0.1448
 3615TIP3    H232337   6.640   2.788   3.213  0.5889  1.6298 -0.7402
 3616TIP3   OH232338   2.117   3.949  14.669 -0.6834 -0.1878  0.4060
 3616TIP3    H132339   2.083   3.994  14.746 -1.1717 -0.2900  0.2513
 3616TIP3    H232340   2.171   4.015  14.625 -1.5905  0.3357  0.0509
 3617TIP3   OH232341   4.548   2.289  12.535 -0.0692 -0.6481  0.1764
 3617TIP3    H132342   4.536   2.200  12.566  0.7945 -0.7733  0.1747
 3617TIP3    H232343   4.493   2.296  12.458 -2.5140 -0.2435  1.8494
 3618TIP3   OH232344   6.438   2.759  11.524 -0.3461 -0.0837  0.4232
 3618TIP3    H132345   6.357   2.708  11.531 -1.6718  1.7444 -0.7427
 3618TIP3    H232346   6.500   2.700  11.482 -1.1595 -1.4178  1.0310
 3619TIP3   OH232347   4.012   5.155   1.059  0.1789 -0.3334  0.2075
 3619TIP3    H132348   3.924   5.133   1.031  0.3434 -1.3114  0.4239
 3619TIP3    H232349   4.052   5.071   1.081  1.0430  0.1312  0.4612
 3620TIP3   OH232350   3.619   5.856   3.574  0.0146  0.4344  0.6293
 3620TIP3    H132351   3.531   5.889   3.562 -0.6338 -1.1686  0.7183
 3620TIP3    H232352   3.607   5.767   3.608  1.6459  0.0099  0.1988
 3621TIP3   OH232353   3.756   2.809  12.369 -0.7401  0.3223  0.1395
 3621TIP3    H132354   3.818   2.856  12.424 -1.0121  0.3657  0.4147
 3621TIP3    H232355   3.809   2.768  12.302 -0.5208  1.1604 -0.2065
 3622TIP3   OH232356   0.615   5.224   4.513 -0.4644 -0.0740  0.1647
 3622TIP3    H132357   0.554   5.271   4.457 -0.8461 -1.7786 -0.9098
 3622TIP3    H232358   0.619   5.136   4.477  1.4379 -0.4649  1.1515
 3623TIP3   OH232359   4.442   1.129  15.622  0.0408 -0.3635 -0.1209
 3623TIP3    H132360   4.377   1.151  15.555  0.5063 -3.1827 -1.6577
 3623TIP3    H232361   4.407   1.169  15.702 -1.2437  1.9635 -1.7230
 3624TIP3   OH232362   3.723   5.775   4.984 -0.2217  0.6331 -0.0957
 3624TIP3    H132363   3.660   5.715   4.944  0.1955  2.3048 -3.6517
 3624TIP3    H232364   3.671   5.847   5.018 -0.4778 -0.1354  1.2090
 3625TIP3   OH232365   1.022   0.308  12.602  0.6918 -0.2411 -0.0758
 3625TIP3    H132366   1.063   0.394  12.601 -1.9741  1.1536  1.1381
 3625TIP3    H232367   0.953   0.314  12.536  0.1149 -1.2417  0.4162
 3626TIP3   OH232368   5.589   0.893  14.536 -0.4806  0.0738 -0.3014
 3626TIP3    H132369   5.626   0.922  14.452 -0.8311  0.3042 -0.3786
 3626TIP3    H232370   5.657   0.837  14.574  1.1952  2.6468  0.8313
 3627TIP3   OH232371   5.824   2.130   3.533 -0.5433 -0.2433  0.0637
 3627TIP3    H132372   5.835   2.181   3.453  1.5452  0.0113  0.4403
 3627TIP3    H232373   5.828   2.195   3.603  0.3230 -0.7048  0.4634
 3628TIP3   OH232374   2.315   6.260  11.500 -0.3169 -0.0241 -0.1599
 3628TIP3    H132375   2.295   6.306  11.418 -0.0634 -1.5757 -1.1506
 3628TIP3    H232376   2.232   6.256  11.547 -0.2929  1.6143  0.0739
 3629TIP3   OH232377   0.977   3.799  15.541  0.0966 -0.3998  0.3447
 3629TIP3    H132378   0.882   3.804  15.548  0.1919 -1.1329  2.9827
 3629TIP3    H232379   0.994   3.718  15.493 -0.5948 -0.5401  0.3335
 3630TIP3   OH232380   0.796   4.423   6.114  0.1148 -0.4306  0.8335
 3630TIP3    H132381   0.885   4.438   6.144  0.0453  0.2179  0.7405
 3630TIP3    H232382   0.780   4.330   6.130  1.4256 -0.9852 -0.8247
 3631TIP3   OH232383   3.095   5.583   5.124 -0.0275 -0.0016  0.1185
 3631TIP3    H132384   3.181   5.547   5.102 -0.9338 -0.4582 -3.3890
 3631TIP3    H232385   3.107   5.678   5.115 -0.1891 -0.1308 -2.2715
 3632TIP3   OH232386   5.807   2.271  14.250 -0.2849 -0.0754  0.4693
 3632TIP3    H132387   5.728   2.252  14.200  0.8573  0.6708 -1.7325
 3632TIP3    H232388   5.861   2.193  14.242 -0.9794 -0.8437  2.5157
 3633TIP3   OH232389   2.625   0.469   1.214  0.0941  0.0901  0.0271
 3633TIP3    H132390   2.603   0.431   1.129  1.6418  1.6976 -1.1811
 3633TIP3    H232391   2.593   0.559   1.209  0.6662  0.3558  0.9494
 3634TIP3   OH232392   6.744   3.888  16.551 -0.2079  0.0629 -0.7690
 3634TIP3    H132393   6.774   3.961  16.605  1.1079  0.7706 -2.3687
 3634TIP3    H232394   6.715   3.929  16.469  0.5348 -1.2006 -1.6933
 3635TIP3   OH232395   0.797   5.914  15.860  0.3052 -0.1141 -0.4320
 3635TIP3    H132396   0.781   5.819  15.859  0.5216 -0.1519 -1.1029
 3635TIP3    H232397   0.892   5.921  15.849  0.5892  0.1380  1.8062
 3636TIP3   OH232398   5.733   3.542   4.686 -0.2722 -0.3771  0.1605
 3636TIP3    H132399   5.800   3.607   4.708  0.0868 -0.0963 -1.6192
 3636TIP3    H232400   5.717   3.496   4.769  1.9395 -0.2945  0.7003
 3637TIP3   OH232401   2.086   6.449  12.771  0.7494 -0.2042 -1.0059
 3637TIP3    H132402   2.018   6.405  12.822  0.0616 -0.8249 -2.4200
 3637TIP3    H232403   2.040   6.516  12.721  1.4012  0.3300 -0.9168
 3638TIP3   OH232404   4.629   6.299  15.523  0.0157 -0.2146 -0.1494
 3638TIP3    H132405   4.618   6.316  15.429  0.6996  0.5402 -0.0996
 3638TIP3    H232406   4.724   6.306  15.538  0.2256 -2.6789  0.1538
 3639TIP3   OH232407   5.491   3.842  15.338 -0.1520 -0.3470  0.2396
 3639TIP3    H132408   5.516   3.826  15.247  0.2473  0.2370  0.2416
 3639TIP3    H232409   5.491   3.756  15.379 -0.6966 -0.6616 -0.4033
 3640TIP3   OH232410   1.754   5.728  15.018 -0.8120  0.0997 -0.3297
 3640TIP3    H132411   1.712   5.650  15.054 -0.4156  0.0896  0.1244
 3640TIP3    H232412   1.727   5.799  15.077 -1.4730  0.3865 -0.9508
 3641TIP3   OH232413   4.556   2.198  15.876 -0.1278  0.1448 -0.2674
 3641TIP3    H132414   4.589   2.151  15.952 -1.7722 -0.7724 -0.0730
 3641TIP3    H232415   4.516   2.277  15.912 -1.2213 -0.4610 -0.1052
 3642TIP3   OH232416   5.858   1.038  15.343  0.1531 -0.4161  0.4441
 3642TIP3    H132417   5.803   1.045  15.265  0.7349 -1.8528 -0.1231
 3642TIP3    H232418   5.858   1.127  15.380 -1.4546 -0.0801 -0.2574
 3643TIP3   OH232419   1.097   0.551  14.008 -0.0498 -0.0580 -0.1980
 3643TIP3    H132420   1.057   0.466  13.992 -1.0924  0.4571 -0.4306
 3643TIP3    H232421   1.191   0.533  14.019 -0.4413 -1.4346  1.3085
 3644TIP3   OH232422   4.554   5.496   5.914  0.5474  0.1006  0.4399
 3644TIP3    H132423   4.517   5.580   5.940 -0.1083  0.5971 -1.8336
 3644TIP3    H232424   4.496   5.430   5.954 -0.1678  0.7849  0.5520
 3645TIP3   OH232425   1.286   5.132   5.974  0.0922 -0.5929  0.1040
 3645TIP3    H132426   1.344   5.177   6.036  3.6262  0.9372 -3.7839
 3645TIP3    H232427   1.224   5.199   5.946  0.3468 -0.4177 -0.0483
 3646TIP3   OH232428   0.467   5.241  15.124 -0.4580 -0.2482 -0.1027
 3646TIP3    H132429   0.374   5.234  15.104 -0.3572  0.0005 -0.6782
 3646TIP3    H232430   0.509   5.256  15.039  0.1420 -0.7210  0.1068
 3647TIP3   OH232431   6.015   2.795   2.225  0.5321  0.4399 -1.0032
 3647TIP3    H132432   6.078   2.728   2.252  0.8631  1.3750  0.7259
 3647TIP3    H232433   5.930   2.751   2.230  0.9222 -0.5350 -2.3378
 3648TIP3   OH232434   1.574   2.850  11.595 -0.0932  0.3344  0.3377
 3648TIP3    H132435   1.654   2.801  11.576 -1.2228 -1.0380 -1.1455
 3648TIP3    H232436   1.537   2.870  11.510 -0.2317  2.9566  0.9239
 3649TIP3   OH232437   2.609   0.138   3.523  0.2356 -0.3291  0.5976
 3649TIP3    H132438   2.524   0.175   3.499  0.2071  0.2689  1.5507
 3649TIP3    H232439   2.651   0.207   3.575  1.4919 -0.4397 -0.2188
 3650TIP3   OH232440   0.269   2.698   1.358  0.0614  0.2785 -0.4666
 3650TIP3    H132441   0.189   2.672   1.402  0.6389 -0.9765 -0.0990
 3650TIP3    H232442   0.243   2.770   1.300 -1.5191 -0.7420 -1.0827
 3651TIP3   OH232443   3.998   0.757  10.999 -0.3472 -0.1052 -0.2060
 3651TIP3    H132444   3.953   0.808  11.066 -0.1520 -2.1647  1.6118
 3651TIP3    H232445   3.928   0.726  10.941 -1.0202 -1.2917  1.1953
 3652TIP3   OH232446   2.953   5.641  12.223 -0.7142 -0.9777  0.0903
 3652TIP3    H132447   2.958   5.685  12.138 -1.5344 -0.8376  0.1150
 3652TIP3    H232448   3.036   5.663  12.266 -0.8305  0.0085 -0.1627
 3653TIP3   OH232449   2.362   2.449  13.934 -0.0293 -0.0286 -0.3559
 3653TIP3    H132450   2.331   2.372  13.983 -2.1638  1.2983  0.5544
 3653TIP3    H232451   2.330   2.435  13.845 -1.7927  0.4511  0.1559
 3654TIP3   OH232452   3.433   1.030   1.648  0.0951 -0.4588 -0.1765
 3654TIP3    H132453   3.350   1.017   1.695  0.1533  1.6169  0.5835
 3654TIP3    H232454   3.423   1.114   1.604  0.4694 -1.8066 -3.0983
 3655TIP3   OH232455   3.566   4.442  13.018 -0.3338  0.3158  0.4828
 3655TIP3    H132456   3.477   4.410  13.028  0.4657 -2.4605 -0.3540
 3655TIP3    H232457   3.614   4.406  13.093 -0.0431  2.6307  1.5053
 3656TIP3   OH232458   6.299   4.651   2.805 -0.2447  0.6206  0.2655
 3656TIP3    H132459   6.294   4.717   2.736  2.3630  0.4318 -0.2190
 3656TIP3    H232460   6.255   4.575   2.768  1.5997  0.3278 -1.5582
 3657TIP3   OH232461   6.690   3.539  15.455  0.0996 -0.4723  0.9018
 3657TIP3    H132462   6.634   3.616  15.440  2.1462  1.3969  2.1471
 3657TIP3    H232463   6.756   3.545  15.386  0.7343 -0.6665  1.4896
 3658TIP3   OH232464   6.695   2.806   6.280  0.5714  0.1108  0.0931
 3658TIP3    H132465   6.727   2.719   6.305  0.7025  0.1752  0.1492
 3658TIP3    H232466   6.724   2.863   6.351 -1.1436 -0.1249  1.0243
 3659TIP3   OH232467   0.315   3.838   2.079  0.6305  0.2023 -0.1299
 3659TIP3    H132468   0.384   3.776   2.056  0.4143 -0.7943  1.6761
 3659TIP3    H232469   0.362   3.915   2.112  0.8875  0.0079 -0.0412
 3660TIP3   OH232470   0.198   5.524   3.092 -0.5763 -0.4437  0.2087
 3660TIP3    H132471   0.192   5.453   3.028  1.4176  0.8981 -1.6314
 3660TIP3    H232472   0.140   5.592   3.058  1.1739  0.6314 -0.7568
 3661TIP3   OH232473   2.649   3.859  16.858 -0.6399  0.5552 -0.3370
 3661TIP3    H132474   2.594   3.859  16.936  0.4991 -0.6604  0.5056
 3661TIP3    H232475   2.618   3.784  16.808 -0.4370  0.4983 -0.3751
 3662TIP3   OH232476   4.838   2.222  12.503  0.4741  0.8119  0.0461
 3662TIP3    H132477   4.909   2.238  12.565 -0.1393  0.8210  0.7636
 3662TIP3    H232478   4.762   2.266  12.541  0.0810  0.8142 -0.7141
 3663TIP3   OH232479   1.015   3.103   4.052  0.1221  0.7303 -0.0441
 3663TIP3    H132480   0.948   3.041   4.023  0.6290  0.4730 -0.6750
 3663TIP3    H232481   1.067   3.120   3.974  0.3712  1.4656  0.2804
 3664TIP3   OH232482   3.885   5.465  12.477 -0.5913 -0.0126 -0.3635
 3664TIP3    H132483   3.799   5.426  12.459 -1.0455  1.6558 -2.1800
 3664TIP3    H232484   3.936   5.445  12.398  0.3392 -0.0483  0.2408
 3665TIP3   OH232485   6.303   6.285   0.322  0.2601  0.0776 -0.1907
 3665TIP3    H132486   6.316   6.266   0.415 -0.1992 -1.1360 -0.3515
 3665TIP3    H232487   6.387   6.263   0.281  0.1390 -0.3747 -0.1988
 3666TIP3   OH232488   5.327   5.723   5.271  0.0372 -0.1379 -0.0294
 3666TIP3    H132489   5.353   5.793   5.211  0.5415  0.1589  0.5255
 3666TIP3    H232490   5.407   5.672   5.285  0.0017 -0.0290  0.6203
 3667TIP3   OH232491   0.593   3.102   3.218  0.4746 -0.5755 -0.1915
 3667TIP3    H132492   0.664   3.040   3.205  0.6357 -0.2094 -1.1178
 3667TIP3    H232493   0.612   3.173   3.157 -1.5010 -1.1617 -1.5810
 3668TIP3   OH232494   3.366   0.135  11.805  0.1444 -0.6142  0.0016
 3668TIP3    H132495   3.327   0.214  11.842 -0.7350 -0.8531 -0.3975
 3668TIP3    H232496   3.416   0.165  11.729 -0.9576 -0.5338 -0.7168
 3669TIP3   OH232497   4.899   6.762  13.435 -0.2111 -0.8376  0.2112
 3669TIP3    H132498   4.839   6.765  13.509 -0.6008 -3.0434  0.0477
 3669TIP3    H232499   4.923   6.854  13.419 -0.8866 -0.2335  2.4062
 3670TIP3   OH232500   4.124   5.185  16.508  0.0681  0.4641  0.6138
 3670TIP3    H132501   4.031   5.163  16.502  0.0165  0.2803  1.7961
 3670TIP3    H232502   4.160   5.162  16.423 -0.7890 -0.3284  0.4473
 3671TIP3   OH232503   3.297   3.429   5.886  0.4839 -0.2975  0.0810
 3671TIP3    H132504   3.243   3.422   5.964 -0.0461  0.4578 -0.2069
 3671TIP3    H232505   3.243   3.390   5.817  0.1346  0.7788 -0.2772
 3672TIP3   OH232506   4.854   2.229  11.975 -0.0855  0.4776 -0.1891
 3672TIP3    H132507   4.921   2.270  12.029 -1.0556  2.1280 -0.1753
 3672TIP3    H232508   4.781   2.214  12.035 -0.2099 -0.1264 -0.4834
 3673TIP3   OH232509   2.306   5.609   4.069 -0.3050 -0.1532  0.1666
 3673TIP3    H132510   2.290   5.550   3.995 -0.7586 -0.4740  0.5157
 3673TIP3    H232511   2.261   5.567   4.143  0.2562  0.0932  0.6538
 3674TIP3   OH232512   4.521   2.589  12.356 -0.1093 -0.0354  0.6563
 3674TIP3    H132513   4.455   2.610  12.422  0.7392 -0.2806  1.5919
 3674TIP3    H232514   4.490   2.506  12.319 -1.6444  1.0611 -0.6914
 3675TIP3   OH232515   0.121   4.255   4.268 -0.3112  0.3585  0.1774
 3675TIP3    H132516   0.179   4.241   4.193 -0.1306 -0.3515  0.4389
 3675TIP3    H232517   0.165   4.212   4.341 -0.2863  1.3929  0.7893
 3676TIP3   OH232518   1.194   6.760   3.784  0.0584  0.6105 -0.1065
 3676TIP3    H132519   1.283   6.795   3.790 -0.2136  1.8371 -2.2315
 3676TIP3    H232520   1.186   6.727   3.694 -0.5972 -2.6321  0.9966
 3677TIP3   OH232521   3.209   4.901  16.701  0.2031  0.3698  0.3550
 3677TIP3    H132522   3.199   4.994  16.685 -2.9566  0.0714  0.0810
 3677TIP3    H232523   3.154   4.883  16.777  2.8308 -0.9086  2.1199
 3678TIP3   OH232524   4.331   1.663   1.120 -0.1381  0.9331 -0.5867
 3678TIP3    H132525   4.277   1.585   1.134 -1.0728  1.6028 -0.4166
 3678TIP3    H232526   4.365   1.684   1.207 -0.2673  0.9997 -0.5533
 3679TIP3   OH232527   0.608   6.710  14.677  0.0697 -0.1793 -0.1322
 3679TIP3    H132528   0.528   6.659  14.687 -0.0779  0.0929  0.1056
 3679TIP3    H232529   0.591   6.767  14.602  0.2987 -0.5908 -0.5056
 3680TIP3   OH232530   6.590   0.503   2.770 -0.0058 -0.2738 -0.7301
 3680TIP3    H132531   6.594   0.598   2.761  0.1375 -0.0436  1.2437
 3680TIP3    H232532   6.499   0.485   2.797  0.0992 -0.6272 -0.6027
 3681TIP3   OH232533   4.429   0.971   2.200 -0.1582  0.7812 -0.6872
 3681TIP3    H132534   4.464   1.024   2.128 -0.3170  1.5060 -0.2393
 3681TIP3    H232535   4.431   1.030   2.276  1.6842 -0.5158  0.3333
 3682TIP3   OH232536   5.093   4.781  16.106  0.4209  0.0596 -0.1917
 3682TIP3    H132537   5.163   4.742  16.052  0.9694 -0.7297  1.0335
 3682TIP3    H232538   5.017   4.782  16.049  1.0522 -0.4951 -1.0828
 3683TIP3   OH232539   3.946   3.791  13.274  0.1122 -0.0010  0.5314
 3683TIP3    H132540   3.915   3.788  13.365  1.3039 -2.1254  0.9402
 3683TIP3    H232541   4.040   3.804  13.281 -0.1372  3.0456 -0.5704
 3684TIP3   OH232542   5.007   5.264  12.031  0.0734 -0.9396 -0.6969
 3684TIP3    H132543   5.083   5.213  12.003 -0.1701 -0.5332 -2.2295
 3684TIP3    H232544   4.961   5.208  12.093  2.3048 -0.6782  1.3294
 3685TIP3   OH232545   0.598   3.584  11.153  0.8060 -0.1018 -0.2362
 3685TIP3    H132546   0.562   3.637  11.082  1.9944  1.1736  0.0838
 3685TIP3    H232547   0.670   3.535  11.112  0.4455 -0.6223 -0.2636
 3686TIP3   OH232548   2.282   0.324   3.115 -0.2235  0.8645 -0.0536
 3686TIP3    H132549   2.269   0.415   3.144 -0.9142  0.7481  0.0131
 3686TIP3    H232550   2.366   0.299   3.155 -0.1043  1.4155  0.0651
 3687TIP3   OH232551   0.013   0.072  12.276 -0.1327 -0.0088  0.0447
 3687TIP3    H132552   0.043   0.028  12.196 -3.2423 -0.5993 -0.9717
 3687TIP3    H232553  -0.072   0.031  12.295 -1.6441  3.1959  1.0024
 3688TIP3   OH232554   6.830   1.777   6.234 -0.3017 -0.3596  0.5801
 3688TIP3    H132555   6.912   1.741   6.267  1.0771  1.6838 -0.3746
 3688TIP3    H232556   6.787   1.704   6.190  1.6514 -1.1941 -0.0442
 3689TIP3   OH232557   3.178   1.115  12.943 -0.2963 -0.8178  0.3630
 3689TIP3    H132558   3.106   1.114  12.881  1.3648 -0.1448 -1.6946
 3689TIP3    H232559   3.210   1.206  12.943  2.2430 -1.6023 -0.9646
 3690TIP3   OH232560   1.069   3.638  15.970 -0.1519  0.4357 -0.1906
 3690TIP3    H132561   0.976   3.660  15.974 -0.5945 -1.3061 -0.3535
 3690TIP3    H232562   1.110   3.695  16.036 -1.2223  1.6371 -0.5280
 3691TIP3   OH232563   6.129   5.663   5.140  0.4647 -0.2868  0.4169
 3691TIP3    H132564   6.097   5.634   5.055  1.1130 -0.1021  0.1048
 3691TIP3    H232565   6.055   5.651   5.199 -0.1956  0.1761 -0.3016
 3692TIP3   OH232566   4.007   4.290  11.232  0.1831  0.0765  0.1156
 3692TIP3    H132567   4.054   4.272  11.314 -0.8218  0.1572  0.7202
 3692TIP3    H232568   4.073   4.277  11.164  0.9651 -0.2651  0.9147
 3693TIP3   OH232569   2.901   0.309   2.356  0.3641  0.0063 -0.1394
 3693TIP3    H132570   2.824   0.287   2.408  0.4071 -3.2658 -1.1977
 3693TIP3    H232571   2.908   0.404   2.362 -4.0626  0.5670 -0.4745
 3694TIP3   OH232572   4.738   3.596   1.756  0.0907  0.0744 -0.2496
 3694TIP3    H132573   4.757   3.653   1.682 -1.5463  1.6604  0.4748
 3694TIP3    H232574   4.741   3.654   1.833 -0.6703 -0.9976  0.6292
 3695TIP3   OH232575   0.288   1.647   2.246 -0.2198 -0.4054 -0.0699
 3695TIP3    H132576   0.311   1.554   2.250 -2.2586 -0.9319  1.3720
 3695TIP3    H232577   0.241   1.656   2.163 -0.1996 -0.7222 -0.1172
 3696TIP3   OH232578   1.525   2.543  14.559  0.0595 -0.3106  0.2137
 3696TIP3    H132579   1.478   2.459  14.550 -0.6314  0.1317 -0.4916
 3696TIP3    H232580   1.483   2.586  14.633 -1.4731  0.5630 -1.0862
 3697TIP3   OH232581   0.106   6.557  11.749 -0.5002 -0.3802 -0.2160
 3697TIP3    H132582   0.058   6.636  11.724  0.0959  0.0196 -0.1427
 3697TIP3    H232583   0.040   6.489  11.757 -1.0937  0.2406  0.2303
 3698TIP3   OH232584   3.588   3.753  11.322 -0.1753 -0.1959  0.0442
 3698TIP3    H132585   3.661   3.695  11.341 -1.0699 -1.7219 -0.9532
 3698TIP3    H232586   3.622   3.815  11.257  0.9894  0.9077  1.6365
 3699TIP3   OH232587   3.976   5.342  10.281  0.5597  0.4845 -0.6348
 3699TIP3    H132588   3.887   5.342  10.315  1.0658  1.3912  0.7762
 3699TIP3    H232589   3.992   5.250  10.257 -0.8547  0.3722 -1.2529
 3700TIP3   OH232590   1.838   0.563   0.657 -0.1426  0.1102 -0.2919
 3700TIP3    H132591   1.775   0.632   0.634 -0.8592 -0.2106  0.6563
 3700TIP3    H232592   1.924   0.603   0.643 -0.5387  0.6371 -1.3729
 3701TIP3   OH232593   2.378   5.994  15.543  0.3835 -0.2745 -0.4464
 3701TIP3    H132594   2.415   6.045  15.615  0.7749 -2.8459  1.2704
 3701TIP3    H232595   2.448   5.992  15.477  0.4109  1.2320 -0.4928
 3702TIP3   OH232596   6.305   6.714   3.232  0.1001 -0.2202 -0.3388
 3702TIP3    H132597   6.280   6.625   3.256  1.9818 -0.9830 -1.0453
 3702TIP3    H232598   6.346   6.705   3.146  2.5500  0.9218  0.6243
 3703TIP3   OH232599   2.005   1.291   5.499 -0.4394 -0.2799  0.3180
 3703TIP3    H132600   2.027   1.231   5.427 -2.2321 -0.4115 -0.1555
 3703TIP3    H232601   2.009   1.378   5.459  0.0978 -0.2354  0.4658
 3704TIP3   OH232602   5.693   0.342  14.121 -0.4955 -0.3673  0.5544
 3704TIP3    H132603   5.717   0.373  14.208  1.4809  0.5533 -0.2442
 3704TIP3    H232604   5.761   0.378  14.064 -2.4537  0.1981 -1.5773
 3705TIP3   OH232605   1.462   4.012  11.428 -0.2585 -0.0439 -0.3937
 3705TIP3    H132606   1.493   4.055  11.348  0.0092  0.0508 -0.2423
 3705TIP3    H232607   1.392   3.954  11.399 -2.4667  2.3798 -0.2697
 3706TIP3   OH232608   3.098   5.888   6.516  0.4224  0.3278  0.1732
 3706TIP3    H132609   3.139   5.961   6.562  0.1430  0.7952 -0.3063
 3706TIP3    H232610   3.050   5.841   6.585 -1.0354  1.7442  0.1897
 3707TIP3   OH232611   1.283   5.034  13.890  0.0602 -0.6587 -0.2125
 3707TIP3    H132612   1.344   5.021  13.962 -0.7070 -1.5733  0.3070
 3707TIP3    H232613   1.329   5.092  13.829 -0.6571  3.4401  2.7272
 3708TIP3   OH232614   5.011   4.620   4.786  0.0159  0.4224 -0.4985
 3708TIP3    H132615   5.085   4.569   4.820  1.7130  1.5529 -2.2689
 3708TIP3    H232616   4.933   4.575   4.820  1.4718 -1.4817  0.5369
 3709TIP3   OH232617   1.746   6.757  10.945  0.2660  0.2891  0.1253
 3709TIP3    H132618   1.735   6.849  10.968 -2.8722  0.4386 -1.3796
 3709TIP3    H232619   1.810   6.757  10.873  1.4790  1.0639  1.1713
 3710TIP3   OH232620   5.644   3.501   3.025 -0.1599 -0.2803 -0.2884
 3710TIP3    H132621   5.729   3.503   2.982 -0.6750 -1.0834 -1.3761
 3710TIP3    H232622   5.649   3.425   3.084 -0.5066 -1.0003 -1.1783
 3711TIP3   OH232623   0.993   1.131   3.826  0.4906 -0.3862  0.2377
 3711TIP3    H132624   0.910   1.087   3.805  0.2571  0.0103  0.3071
 3711TIP3    H232625   1.029   1.080   3.899 -0.4185  0.2908  1.1844
 3712TIP3   OH232626   3.327   4.433   4.047 -0.4343 -0.2238 -0.4386
 3712TIP3    H132627   3.237   4.403   4.032 -0.3695 -0.3177 -0.6346
 3712TIP3    H232628   3.320   4.528   4.052 -0.7596 -0.2963  0.9516
 3713TIP3   OH232629   2.757   3.351  12.815  0.7529  0.9159  0.4050
 3713TIP3    H132630   2.689   3.342  12.882 -0.3317  2.1483 -0.4792
 3713TIP3    H232631   2.756   3.444  12.793  1.1072  0.5463 -1.2880
 3714TIP3   OH232632   5.273   5.645  15.852  0.6044  0.0901  0.1177
 3714TIP3    H132633   5.305   5.591  15.780  3.2640  2.8798 -0.9892
 3714TIP3    H232634   5.340   5.638  15.920 -0.5971 -0.4316  1.3018
 3715TIP3   OH232635   0.386   0.944   6.149 -0.0352 -0.5850 -0.1169
 3715TIP3    H132636   0.334   1.015   6.111  0.9666  0.8235  1.0220
 3715TIP3    H232637   0.322   0.887   6.191 -0.8219 -0.0837 -0.6111
 3716TIP3   OH232638   1.175   5.340  13.752 -0.3204  0.0645 -0.3810
 3716TIP3    H132639   1.237   5.411  13.767  0.5098 -0.4394 -1.2709
 3716TIP3    H232640   1.130   5.364  13.671 -1.9984  0.8941  0.7629
 3717TIP3   OH232641   0.767   5.086  16.142 -0.4232 -0.1635 -0.4720
 3717TIP3    H132642   0.801   5.130  16.064 -2.3097 -0.0939 -1.3009
 3717TIP3    H232643   0.711   5.016  16.108  0.0778 -1.2691  0.8402
 3718TIP3   OH232644   3.653   1.108  10.500  0.1671  0.1941  0.3595
 3718TIP3    H132645   3.601   1.188  10.491 -1.2139 -0.9056 -2.6659
 3718TIP3    H232646   3.720   1.115  10.432  1.2963 -0.3907  1.3698
 3719TIP3   OH232647   0.721   1.574   2.913  0.2131 -0.0007 -0.3610
 3719TIP3    H132648   0.741   1.627   2.991  3.5880 -2.3493  0.5892
 3719TIP3    H232649   0.806   1.561   2.871 -0.7438 -2.9395 -1.6393
 3720TIP3   OH232650   2.882   0.262   1.977  0.2992 -0.4927  0.0727
 3720TIP3    H132651   2.931   0.289   1.899 -0.6454 -0.0930 -0.3991
 3720TIP3    H232652   2.925   0.306   2.049 -0.0458  0.7816 -0.4688
 3721TIP3   OH232653   2.412   2.572   3.222 -0.0293  0.0515 -0.1235
 3721TIP3    H132654   2.494   2.521   3.224 -0.3452 -0.4418  0.6127
 3721TIP3    H232655   2.360   2.531   3.153  0.8611  1.2076 -1.5286
 3722TIP3   OH232656   2.533   5.212  11.562  0.2152 -0.0336 -0.1647
 3722TIP3    H132657   2.452   5.167  11.539 -1.0933  1.7531  0.6638
 3722TIP3    H232658   2.564   5.168  11.641 -0.9990  0.4242  0.5934
 3723TIP3   OH232659   5.448   2.472  14.596 -0.0089 -0.7551  0.2176
 3723TIP3    H132660   5.401   2.393  14.572  0.1905 -1.1975  1.2715
 3723TIP3    H232661   5.463   2.517  14.512 -1.7063 -0.9145 -0.2075
 3724TIP3   OH232662   2.540   3.249   3.085 -0.1456  0.4038  0.1295
 3724TIP3    H132663   2.628   3.287   3.090 -0.0251 -0.0370  2.0836
 3724TIP3    H232664   2.552   3.167   3.037  0.4395  0.5248  0.0625
 3725TIP3   OH232665   5.089   3.609  16.036  0.1751  0.2462  0.4274
 3725TIP3    H132666   5.170   3.661  16.031  0.5182 -0.0637  2.2082
 3725TIP3    H232667   5.032   3.648  15.970  1.9655  0.1149 -1.3186
 3726TIP3   OH232668   1.778   5.206   5.452  0.1329  0.1666  0.2065
 3726TIP3    H132669   1.811   5.162   5.373 -0.1679  1.0997 -0.4517
 3726TIP3    H232670   1.857   5.233   5.498  0.3175 -0.7243  0.4361
 3727TIP3   OH232671   0.231   2.334  17.033  0.5192  0.0493 -0.1038
 3727TIP3    H132672   0.300   2.393  17.001  2.6552 -2.0615  0.2975
 3727TIP3    H232673   0.255   2.318  17.124 -1.0918  0.0127  0.3330
 3728TIP3   OH232674   1.843   1.283   5.706 -0.1505  0.1634 -0.0775
 3728TIP3    H132675   1.820   1.375   5.720  0.7844  0.8265 -2.3574
 3728TIP3    H232676   1.912   1.286   5.640  1.7599 -2.0774  1.6662
 3729TIP3   OH232677   5.959   4.380  12.022  0.3503 -0.7424  0.1646
 3729TIP3    H132678   5.902   4.382  11.945  0.3730  1.7655  0.1321
 3729TIP3    H232679   6.033   4.325  11.995  1.6556  2.1257 -2.6744
 3730TIP3   OH232680   3.633   3.883  13.285  0.2318 -0.0189  0.4271
 3730TIP3    H132681   3.722   3.862  13.257 -0.4861  0.0160 -2.0620
 3730TIP3    H232682   3.584   3.801  13.273 -0.4927  0.4855 -0.1367
 3731TIP3   OH232683   6.025   0.934   2.212 -0.1473 -0.0420  0.3387
 3731TIP3    H132684   6.040   0.912   2.120  0.0993  0.5219  0.2367
 3731TIP3    H232685   5.987   1.022   2.209  0.3745  0.2019  0.8039
 3732TIP3   OH232686   5.888   5.370   5.857  0.0070 -0.0987  0.1028
 3732TIP3    H132687   5.929   5.351   5.773  1.0400  3.2319 -0.2941
 3732TIP3    H232688   5.961   5.381   5.918 -0.6205 -0.1668  0.8885
 3733TIP3   OH232689   4.475   1.292  10.715  0.1669 -0.4576 -0.1044
 3733TIP3    H132690   4.440   1.204  10.700 -0.6360 -0.2815  0.7134
 3733TIP3    H232691   4.533   1.307  10.640 -0.5005 -1.2623 -0.8037
 3734TIP3   OH232692   3.593   4.960  15.006 -0.1498 -0.4269 -0.3094
 3734TIP3    H132693   3.525   5.015  15.044 -0.1281 -0.4933 -0.1734
 3734TIP3    H232694   3.608   4.891  15.072  0.8206  0.2101  0.1629
 3735TIP3   OH232695   5.376   1.923   2.218  0.3726  0.3587  1.0790
 3735TIP3    H132696   5.461   1.967   2.206  0.4466 -0.0683 -0.1387
 3735TIP3    H232697   5.393   1.832   2.195 -0.0617 -0.0762  2.4058
 3736TIP3   OH232698   2.200   6.174  13.802  0.7399  0.1968  0.2237
 3736TIP3    H132699   2.150   6.240  13.754  1.0083  0.1520 -0.1230
 3736TIP3    H232700   2.162   6.174  13.890 -2.9388 -2.8953 -1.0740
 3737TIP3   OH232701   0.775   3.526  15.229 -0.2550 -0.0759 -0.5302
 3737TIP3    H132702   0.845   3.566  15.281  1.3319 -2.1022 -0.9648
 3737TIP3    H232703   0.746   3.451  15.281 -0.6477 -0.4441 -1.2641
 3738TIP3   OH232704   1.799   1.367  12.947 -0.3944  0.9401  0.2762
 3738TIP3    H132705   1.736   1.433  12.976 -1.8980 -0.3608  0.1057
 3738TIP3    H232706   1.841   1.337  13.028 -0.2769  1.5133  0.4370
 3739TIP3   OH232707   1.924   4.976  13.955 -0.5988 -0.8928 -0.1408
 3739TIP3    H132708   1.928   4.904  13.892  1.9329 -1.6880  0.7791
 3739TIP3    H232709   1.983   4.949  14.025 -0.7269  1.4326  0.9497
 3740TIP3   OH232710   5.143   3.235  13.280  0.4079  0.1312 -0.6445
 3740TIP3    H132711   5.221   3.186  13.255 -0.7302 -0.6391 -3.1092
 3740TIP3    H232712   5.144   3.312  13.223 -1.1377 -0.4588 -1.5430
 3741TIP3   OH232713   4.725   0.846   2.203 -0.1518  0.3883 -0.1365
 3741TIP3    H132714   4.762   0.791   2.134 -0.2958  0.1997 -0.0622
 3741TIP3    H232715   4.666   0.906   2.156 -2.0402 -1.2258  0.0376
 3742TIP3   OH232716   3.910   2.435  13.633  0.4224 -0.4802  0.4136
 3742TIP3    H132717   3.827   2.397  13.661  0.9457 -1.9327  0.1036
 3742TIP3    H232718   3.941   2.375  13.565  0.9447  0.9407 -0.6331
 3743TIP3   OH232719   5.539   1.549  10.013 -0.6156 -0.0222 -0.2463
 3743TIP3    H132720   5.521   1.564  10.106 -0.1171  0.8311 -0.2796
 3743TIP3    H232721   5.562   1.635   9.979  2.8882 -0.8424 -0.3604
 3744TIP3   OH232722   4.574   6.215   2.108  0.2854 -0.2586  0.6394
 3744TIP3    H132723   4.486   6.252   2.107  0.4599  0.2478  2.0930
 3744TIP3    H232724   4.628   6.279   2.062 -0.2173 -0.9918 -1.0792
 3745TIP3   OH232725   4.033   5.321  13.101 -0.2717  0.0344 -0.1749
 3745TIP3    H132726   3.997   5.232  13.103  0.6708 -0.3548 -0.0477
 3745TIP3    H232727   4.096   5.323  13.173  0.4349  0.4894 -0.7887
 3746TIP3   OH232728   4.727   6.164   1.254  0.1434 -0.2394  0.2398
 3746TIP3    H132729   4.709   6.135   1.344 -0.5737  0.1835  0.2358
 3746TIP3    H232730   4.817   6.135   1.238 -1.0783 -4.2515 -0.4806
 3747TIP3   OH232731   4.945   0.466   1.846 -0.5241  0.1523 -0.3141
 3747TIP3    H132732   4.851   0.459   1.831 -0.6483 -2.4298  1.0925
 3747TIP3    H232733   4.984   0.431   1.766 -0.8783 -1.4909  0.1938
 3748TIP3   OH232734   0.122   0.643   3.645 -0.0870  0.1778 -0.1825
 3748TIP3    H132735   0.083   0.629   3.731 -0.0987 -0.4151 -0.2781
 3748TIP3    H232736   0.213   0.666   3.663  0.0559 -0.4757 -0.0192
 3749TIP3   OH232737   6.767   2.102   1.242  0.5556  0.0083  0.3327
 3749TIP3    H132738   6.688   2.066   1.281  0.0872 -0.1084 -0.6770
 3749TIP3    H232739   6.751   2.197   1.239 -0.4686 -0.1597 -1.7061
 3750TIP3   OH232740   2.779   6.215   0.812  0.2003 -0.0560 -0.7355
 3750TIP3    H132741   2.758   6.149   0.746  0.2104 -1.1494  0.3259
 3750TIP3    H232742   2.874   6.215   0.816  0.1941 -0.0940 -0.6050
 3751TIP3   OH232743   3.596   2.916  15.131 -0.1738 -0.4214  0.3626
 3751TIP3    H132744   3.608   2.822  15.127 -0.9169 -0.4934 -0.7827
 3751TIP3    H232745   3.658   2.951  15.066 -0.7425 -0.2241 -0.0835
 3752TIP3   OH232746   1.114   4.157  10.408  0.3051 -0.5351  0.7341
 3752TIP3    H132747   1.094   4.240  10.365 -0.8618 -0.7692  0.7969
 3752TIP3    H232748   1.028   4.122  10.434  0.7496 -1.8890  0.4614
 3753TIP3   OH232749   2.122   0.678  15.425  0.2595  0.1733  0.4530
 3753TIP3    H132750   2.170   0.595  15.431  1.1711  0.6296 -0.2846
 3753TIP3    H232751   2.147   0.714  15.340 -1.5647  0.3451 -0.0364
 3754TIP3   OH232752   5.945   6.447  11.659 -0.4382  0.3698 -0.3337
 3754TIP3    H132753   5.987   6.517  11.609 -1.2993  0.4930 -0.9057
 3754TIP3    H232754   5.956   6.473  11.750 -0.7371  1.2406 -0.5397
 3755TIP3   OH232755   5.620   5.455   5.151  0.4455  0.2694 -0.1682
 3755TIP3    H132756   5.656   5.424   5.234  1.8526  1.5012 -0.2813
 3755TIP3    H232757   5.526   5.467   5.168  0.7780  0.9039  1.3813
 3756TIP3   OH232758   1.083   0.664  14.532 -0.4444  0.0025  0.1568
 3756TIP3    H132759   1.161   0.618  14.564  0.0341  1.9778  2.0663
 3756TIP3    H232760   1.117   0.727  14.467 -0.6398 -0.0326  0.0184
 3757TIP3   OH232761   5.545   6.423   2.154  0.1428  0.0344 -0.1403
 3757TIP3    H132762   5.513   6.459   2.072  2.0324  1.8920 -0.1362
 3757TIP3    H232763   5.470   6.428   2.213 -1.1015 -0.9074 -1.5597
 3758TIP3   OH232764   4.316   5.670  11.764 -0.4077 -0.2963 -0.0177
 3758TIP3    H132765   4.395   5.666  11.709 -1.1144 -2.0944 -0.9714
 3758TIP3    H232766   4.350   5.670  11.853  0.6885 -0.2461 -0.4117
 3759TIP3   OH232767   3.130   1.544  11.328  0.3373  0.5919  0.0783
 3759TIP3    H132768   3.217   1.525  11.365  0.8466  2.0681 -0.3162
 3759TIP3    H232769   3.129   1.639  11.315 -0.4777  0.3438 -2.0704
 3760TIP3   OH232770   2.845   5.480  14.058 -0.2128 -0.0630  0.2798
 3760TIP3    H132771   2.813   5.566  14.085  0.7337  0.1662  0.7404
 3760TIP3    H232772   2.936   5.496  14.031 -0.7087 -0.5181 -1.8218
 3761TIP3   OH232773   6.732   0.311   5.347 -0.0094  0.1949 -0.2167
 3761TIP3    H132774   6.748   0.244   5.413 -3.1565 -0.0106  0.4954
 3761TIP3    H232775   6.789   0.384   5.372 -0.5101 -0.1808  2.2865
 3762TIP3   OH232776   1.851   1.177   4.922 -0.0914 -0.2713 -0.0499
 3762TIP3    H132777   1.783   1.187   4.856  1.1420 -0.2637 -1.3470
 3762TIP3    H232778   1.837   1.251   4.982 -1.9635 -0.9597  0.4370
 3763TIP3   OH232779   0.071   6.832   2.473 -0.6056 -0.7265 -0.1677
 3763TIP3    H132780   0.131   6.773   2.519 -0.2694 -0.2187  0.0508
 3763TIP3    H232781   0.093   6.919   2.506 -3.0471 -0.7232  1.7549
 3764TIP3   OH232782   4.650   2.750   5.827 -0.0712 -0.4273  0.1365
 3764TIP3    H132783   4.683   2.708   5.747  0.7438  0.4640 -0.0041
 3764TIP3    H232784   4.673   2.842   5.817 -0.5952 -0.1861  1.0904
 3765TIP3   OH232785   4.378   2.221   1.501  0.0861 -0.3049 -0.2272
 3765TIP3    H132786   4.334   2.216   1.586  0.4545 -0.1961 -0.0292
 3765TIP3    H232787   4.454   2.278   1.517 -0.5254  0.7410 -0.9094
 3766TIP3   OH232788   3.536   4.582  11.616 -0.1289 -0.4421 -0.2175
 3766TIP3    H132789   3.548   4.534  11.697 -0.1407 -0.1825 -0.0621
 3766TIP3    H232790   3.451   4.553  11.582 -1.5211  1.5542  1.3242
 3767TIP3   OH232791   1.178   4.889   0.914  0.3245  0.3259  0.3752
 3767TIP3    H132792   1.196   4.982   0.902 -0.0231  0.3878  0.3340
 3767TIP3    H232793   1.237   4.845   0.852 -0.8019  0.5994 -0.9376
 3768TIP3   OH232794   0.302   4.943   5.057 -0.2351 -0.2723 -0.6661
 3768TIP3    H132795   0.242   4.928   4.983 -0.3520  2.1688 -1.1655
 3768TIP3    H232796   0.313   5.038   5.059  2.2873 -0.5200  0.5048
 3769TIP3   OH232797   2.508   5.165   2.074 -0.1839 -0.1815 -0.0407
 3769TIP3    H132798   2.536   5.250   2.040 -0.9182 -0.1280 -0.5274
 3769TIP3    H232799   2.544   5.101   2.012  0.3735 -0.2355  0.3287
 3770TIP3   OH232800   5.177   0.908   4.383  0.0022  0.4953  0.1278
 3770TIP3    H132801   5.254   0.904   4.326  0.2979  0.7898  0.4942
 3770TIP3    H232802   5.113   0.958   4.332 -0.4507 -0.9225 -0.7362
 3771TIP3   OH232803   2.929   5.610  11.125 -0.6024  0.4110 -0.0802
 3771TIP3    H132804   2.929   5.548  11.052 -2.1745  0.9125 -0.5471
 3771TIP3    H232805   2.876   5.568  11.193  0.6184  0.0708  0.6838
 3772TIP3   OH232806   3.663   2.015   6.295  0.0355  0.8713  0.4412
 3772TIP3    H132807   3.626   2.104   6.292 -1.5841  0.2292  0.3544
 3772TIP3    H232808   3.586   1.958   6.294  1.0335 -0.5233  1.3578
 3773TIP3   OH232809   0.490   3.521   1.478  0.2125 -0.1367  0.2360
 3773TIP3    H132810   0.514   3.576   1.404 -1.3378  1.2646  0.7063
 3773TIP3    H232811   0.505   3.577   1.555  0.5321 -1.0970  0.8877
 3774TIP3   OH232812   4.780   2.720  15.178  0.2107 -0.7284  0.2033
 3774TIP3    H132813   4.832   2.678  15.246 -1.4253  1.1152  2.7780
 3774TIP3    H232814   4.783   2.813  15.198  0.2215  0.0258 -2.7486
 3775TIP3   OH232815   2.907   4.637  13.933 -0.5310  0.0457  0.1535
 3775TIP3    H132816   2.859   4.709  13.975 -1.8862  0.8100 -2.5183
 3775TIP3    H232817   2.959   4.679  13.865  1.6433 -1.1469  0.9707
 3776TIP3   OH232818   4.078   6.159   1.301 -0.2236  0.5339  0.0458
 3776TIP3    H132819   4.134   6.233   1.275  1.0172 -0.3396  0.1364
 3776TIP3    H232820   4.095   6.092   1.235 -0.2930 -0.1644  0.7237
 3777TIP3   OH232821   4.939   1.011   4.841  0.2557 -0.1318  0.1240
 3777TIP3    H132822   4.888   0.936   4.871 -0.7400  0.8502  0.9909
 3777TIP3    H232823   4.967   0.987   4.753 -0.4284 -1.3331  0.2131
 3778TIP3   OH232824   5.393   0.488  15.771 -0.2613  0.3572 -0.8242
 3778TIP3    H132825   5.351   0.434  15.704 -1.2978  1.6707 -1.2734
 3778TIP3    H232826   5.337   0.565  15.779 -1.3916 -0.6870  3.1169
 3779TIP3   OH232827   3.312   4.795  11.958  0.2766 -0.4496  0.6427
 3779TIP3    H132828   3.405   4.774  11.957  0.1797 -0.8642 -0.1507
 3779TIP3    H232829   3.302   4.866  11.895  0.0718 -0.3111  0.8282
 3780TIP3   OH232830   0.148   5.406  12.974 -0.2412 -0.0837  0.1514
 3780TIP3    H132831   0.162   5.374  13.063 -0.5577  0.6011  0.4542
 3780TIP3    H232832   0.212   5.476  12.963  1.2834 -1.5673 -0.9393
 3781TIP3   OH232833   1.744   3.712   1.363  1.1009  0.3563  0.1109
 3781TIP3    H132834   1.746   3.770   1.287  2.6992  0.8068  0.4695
 3781TIP3    H232835   1.792   3.634   1.336  0.8909  0.1291  0.3747
 3782TIP3   OH232836   0.361   4.137   3.290 -0.0021  0.5737 -0.0264
 3782TIP3    H132837   0.268   4.152   3.275  0.1380  0.7335 -0.7945
 3782TIP3    H232838   0.369   4.042   3.297 -0.2543  0.5724  0.2520
 3783TIP3   OH232839   1.998   5.979  14.543  0.2532 -0.1058 -0.5831
 3783TIP3    H132840   1.967   5.925  14.616  0.1964 -0.0475 -0.5646
 3783TIP3    H232841   1.930   5.972  14.477  0.0794  0.2313 -0.4405
 3784TIP3   OH232842   3.355   2.074   3.352  0.3118  0.0974  0.2639
 3784TIP3    H132843   3.425   2.016   3.322  1.0247  1.7508 -1.4745
 3784TIP3    H232844   3.382   2.101   3.440  1.9785  0.8196 -0.4334
 3785TIP3   OH232845   1.083   4.442   2.424 -0.3192  0.0323 -0.1874
 3785TIP3    H132846   1.158   4.393   2.392 -1.5736 -0.7101 -2.1393
 3785TIP3    H232847   1.014   4.377   2.436 -0.8211  0.7564  1.1612
 3786TIP3   OH232848   6.736   5.468   3.547 -0.1671  0.3548 -0.5346
 3786TIP3    H132849   6.642   5.453   3.552  0.1028 -1.6752 -0.8228
 3786TIP3    H232850   6.765   5.415   3.472  1.4800 -0.6604  0.7445
 3787TIP3   OH232851   5.854   1.596   5.437 -0.0854  0.4806  0.1048
 3787TIP3    H132852   5.821   1.560   5.519  1.1040  0.3856  0.5611
 3787TIP3    H232853   5.944   1.622   5.457 -0.7323  3.3497 -0.3030
 3788TIP3   OH232854   1.377   4.716  11.440  0.4884 -0.0661  0.4333
 3788TIP3    H132855   1.432   4.666  11.499 -1.2467 -0.1622  2.0640
 3788TIP3    H232856   1.288   4.706  11.475 -0.0690  3.5647  0.4908
 3789TIP3   OH232857   3.526   5.376  13.915 -0.1013 -0.5349  0.0277
 3789TIP3    H132858   3.605   5.397  13.965  0.0808  0.5439 -0.6853
 3789TIP3    H232859   3.523   5.280  13.915  0.8511 -0.5861  0.6030
 3790TIP3   OH232860   2.755   5.265  15.884 -0.1433  0.0455  0.1065
 3790TIP3    H132861   2.757   5.175  15.854 -0.3022  0.2468 -0.5176
 3790TIP3    H232862   2.801   5.315  15.817  1.0432  0.2663  1.0499
 3791TIP3   OH232863   5.496   2.246   6.279  0.6271 -0.9796 -0.1334
 3791TIP3    H132864   5.543   2.246   6.362  0.2236  0.5317  0.1269
 3791TIP3    H232865   5.420   2.190   6.295 -0.2626  0.4861  1.0364
 3792TIP3   OH232866   1.731   2.728  15.537  0.1079  0.3436  0.4764
 3792TIP3    H132867   1.662   2.742  15.602 -0.2182 -0.0097  0.2075
 3792TIP3    H232868   1.786   2.659  15.575  0.0947  0.3573  0.5205
 3793TIP3   OH232869   5.661   3.267  11.464 -0.1803  0.1175  0.0738
 3793TIP3    H132870   5.638   3.223  11.547 -1.9063  0.0105 -0.4249
 3793TIP3    H232871   5.671   3.196  11.401  1.9632  0.1343  0.3205
 3794TIP3   OH232872   0.961   5.239   4.440 -0.0028  0.0358 -0.1358
 3794TIP3    H132873   0.896   5.308   4.454  0.3684  0.6840 -1.4647
 3794TIP3    H232874   1.013   5.239   4.520 -1.1225  0.0631  0.6141
 3795TIP3   OH232875   5.869   5.561   2.165  0.0424 -0.2707 -0.1357
 3795TIP3    H132876   5.865   5.600   2.078 -0.9168 -1.4356 -0.6587
 3795TIP3    H232877   5.945   5.601   2.207  0.2417  0.6535 -1.3387
 3796TIP3   OH232878   2.845   4.905  16.143 -0.2289  0.1812 -0.0371
 3796TIP3    H132879   2.930   4.922  16.101 -1.0129  1.1926 -1.2841
 3796TIP3    H232880   2.803   4.840  16.087 -0.3242 -0.2361  0.5167
 3797TIP3   OH232881   4.597   0.445   0.933  0.9184 -0.2716  0.3931
 3797TIP3    H132882   4.642   0.530   0.938  3.0137 -1.2395 -0.6723
 3797TIP3    H232883   4.585   0.419   1.024 -0.6280  1.5373  0.7807
 3798TIP3   OH232884   4.449   1.521   3.688 -0.0802 -0.8955  0.2818
 3798TIP3    H132885   4.370   1.472   3.666  0.3026 -1.0435 -0.8840
 3798TIP3    H232886   4.455   1.588   3.620  1.2048 -1.3913 -0.1341
 3799TIP3   OH232887   0.139   0.658  14.046  0.4336 -0.2291 -0.0612
 3799TIP3    H132888   0.086   0.614  13.979 -0.9392  0.3201  0.6182
 3799TIP3    H232889   0.204   0.707  13.996 -2.2337  2.4322 -1.2935
 3800TIP3   OH232890   6.310   5.999   2.364  0.6194  0.0931 -0.0778
 3800TIP3    H132891   6.386   5.991   2.423 -0.2563 -2.5200  0.8317
 3800TIP3    H232892   6.234   5.987   2.421 -0.3624 -0.2753 -1.4214
 3801TIP3   OH232893   0.625   2.610   1.030  1.1913 -0.3329 -0.3253
 3801TIP3    H132894   0.703   2.593   1.083  0.7936 -0.5064  0.2182
 3801TIP3    H232895   0.605   2.527   0.988  1.2949 -0.2907 -0.4581
 3802TIP3   OH232896   4.636   3.958  12.423  0.2503  0.2630 -0.0173
 3802TIP3    H132897   4.614   3.868  12.445  0.6793  0.4774  1.3621
 3802TIP3    H232898   4.552   4.000  12.406 -0.2122  0.3087  2.1729
 3803TIP3   OH232899   1.855   0.185   1.163 -0.0972  0.0347  0.4406
 3803TIP3    H132900   1.893   0.220   1.082 -0.7055  2.0902  0.9889
 3803TIP3    H232901   1.763   0.171   1.143 -0.0440 -0.4357  0.5008
 3804TIP3   OH232902   1.694   4.283   1.719 -0.6296 -0.3652 -0.2433
 3804TIP3    H132903   1.603   4.261   1.698 -0.8537  0.1684  0.1465
 3804TIP3    H232904   1.720   4.344   1.650 -1.3462  1.3402  0.9311
 3805TIP3   OH232905   1.409   3.323  15.885 -0.0571  0.7626 -0.4489
 3805TIP3    H132906   1.355   3.336  15.963  1.7954 -0.3693  1.1295
 3805TIP3    H232907   1.467   3.399  15.884 -1.2839  1.7218 -1.8460
 3806TIP3   OH232908   3.179   3.756  17.110  0.0860  0.4722  0.2534
 3806TIP3    H132909   3.161   3.668  17.142 -1.6208  0.5909 -0.3012
 3806TIP3    H232910   3.256   3.746  17.054  0.4751 -0.4867  0.9325
 3807TIP3   OH232911   3.359   2.531  15.183 -0.3648  0.6266  0.7078
 3807TIP3    H132912   3.335   2.614  15.143  0.3225 -0.2328 -1.6447
 3807TIP3    H232913   3.410   2.486  15.116  0.5948 -1.0688  2.4797
 3808TIP3   OH232914   5.558   2.129  16.147 -0.4329 -0.2682  0.3053
 3808TIP3    H132915   5.504   2.057  16.114  0.9462 -0.4858 -1.5914
 3808TIP3    H232916   5.641   2.088  16.169 -0.4534  0.3523  1.6442
 3809TIP3   OH232917   1.643   4.468  11.837  0.2646 -0.3477  0.1019
 3809TIP3    H132918   1.632   4.469  11.932 -3.8383 -0.2811 -0.2094
 3809TIP3    H232919   1.687   4.551  11.817  0.5344 -0.0320  1.8531
 3810TIP3   OH232920   6.020   5.051   4.938  0.4144  0.2501  0.4871
 3810TIP3    H132921   5.962   4.988   4.981  0.4667  0.4248  0.8118
 3810TIP3    H232922   5.981   5.063   4.851 -0.6794  1.1962  1.0668
 3811TIP3   OH232923   2.565   1.060  16.310  0.7158  0.7431  0.9923
 3811TIP3    H132924   2.511   1.039  16.387 -1.0333 -0.4228 -0.4858
 3811TIP3    H232925   2.543   1.151  16.289 -1.4133  0.0469 -0.0766
 3812TIP3   OH232926   5.518   5.079  15.796  0.1711 -0.2590 -0.1252
 3812TIP3    H132927   5.602   5.069  15.840  0.2584  0.7480 -0.0406
 3812TIP3    H232928   5.459   5.114  15.863  0.0931  0.4943 -0.5647
 3813TIP3   OH232929   5.423   5.667  16.748  0.1409  0.5249 -0.1492
 3813TIP3    H132930   5.492   5.636  16.806 -1.1364  0.6432  1.5014
 3813TIP3    H232931   5.422   5.762  16.760 -0.7312  0.4615  0.3744
 3814TIP3   OH232932   4.567   5.061  12.324 -0.1521 -0.1587 -0.1716
 3814TIP3    H132933   4.578   5.061  12.419  0.1613 -1.8607 -0.1850
 3814TIP3    H232934   4.608   5.143  12.295 -0.5307  0.5291  1.1712
 3815TIP3   OH232935   5.044   6.159  13.617  0.0184 -0.0287 -0.2212
 3815TIP3    H132936   4.981   6.224  13.649  0.0585  0.3427 -0.8608
 3815TIP3    H232937   5.100   6.209  13.557 -0.2056 -0.7375 -1.0452
 3816TIP3   OH232938   0.428   3.623  11.378  0.3719  0.1287 -0.0011
 3816TIP3    H132939   0.389   3.710  11.369  1.6860  0.8320  0.7181
 3816TIP3    H232940   0.488   3.616  11.305  0.2009 -0.2169 -0.1091
 3817TIP3   OH232941   5.850   5.742   1.605  0.3174 -0.0575  0.8179
 3817TIP3    H132942   5.864   5.785   1.521  0.7845  0.4788  1.1705
 3817TIP3    H232943   5.920   5.774   1.662 -0.0548 -0.3303  1.4496
 3818TIP3   OH232944   5.586   2.466   1.910  0.2406  0.1095 -0.0041
 3818TIP3    H132945   5.560   2.530   1.976 -1.6757  1.0791 -1.5963
 3818TIP3    H232946   5.656   2.509   1.862  0.5099  0.0715  0.3508
 3819TIP3   OH232947   3.962   0.801   2.506 -0.2427 -0.0985 -0.3419
 3819TIP3    H132948   4.053   0.778   2.527 -1.0171 -1.7137  1.5753
 3819TIP3    H232949   3.939   0.744   2.433 -0.2045 -0.8856  0.2530
 3820TIP3   OH232950   3.571   5.690   3.897 -0.6862  0.0471  0.5332
 3820TIP3    H132951   3.659   5.688   3.934 -0.3776  0.7041 -0.1495
 3820TIP3    H232952   3.517   5.730   3.966 -0.1939  0.8895  0.4396
 3821TIP3   OH232953   5.081   3.753  15.433  0.0251 -0.0550  0.2334
 3821TIP3    H132954   5.128   3.682  15.477 -1.7714 -0.7064  1.1899
 3821TIP3    H232955   5.057   3.813  15.504 -2.4120 -0.8224  0.1284
 3822TIP3   OH232956   6.099   5.867  12.708 -0.2150 -0.1880  0.1488
 3822TIP3    H132957   6.098   5.806  12.635 -1.5793  1.0391 -0.9023
 3822TIP3    H232958   6.127   5.951  12.670  0.5031  0.1321  1.3273
 3823TIP3   OH232959   4.089   6.569  13.873  0.7311 -0.0752  0.0819
 3823TIP3    H132960   4.086   6.505  13.801 -1.9264  0.8011 -0.7200
 3823TIP3    H232961   4.131   6.522  13.945  2.2277 -1.4503 -1.5859
 3824TIP3   OH232962   6.139   4.436  13.362 -0.1911 -0.6138  0.0868
 3824TIP3    H132963   6.221   4.423  13.313  1.6203  0.3752  2.6396
 3824TIP3    H232964   6.083   4.484  13.301  0.6436 -2.2821 -2.1514
 3825TIP3   OH232965   5.690   6.114   5.148  0.0641 -0.4550 -0.1852
 3825TIP3    H132966   5.635   6.170   5.094  0.7878  0.0664 -0.4004
 3825TIP3    H232967   5.752   6.174   5.189 -0.2435 -0.8885  0.9480
 3826TIP3   OH232968   1.910   2.223  13.292  0.2640  0.3935 -0.1472
 3826TIP3    H132969   1.898   2.239  13.198 -0.8313  0.3144 -0.0387
 3826TIP3    H232970   1.987   2.167  13.298  0.1980  0.1998 -1.0215
 3827TIP3   OH232971   4.350   2.041   5.163  0.0641 -0.1347  0.1220
 3827TIP3    H132972   4.418   2.106   5.184 -0.5193  0.7107 -0.5264
 3827TIP3    H232973   4.399   1.960   5.147  0.9333  0.4652 -0.3760
 3828TIP3   OH232974   3.814   0.672   4.163  0.5750 -0.4571 -0.2666
 3828TIP3    H132975   3.866   0.750   4.183  1.3359 -0.5169 -1.8593
 3828TIP3    H232976   3.877   0.600   4.165  0.3461 -0.6909 -1.1095
 3829TIP3   OH232977   5.478   3.456   1.870 -0.0932  0.2651  0.0683
 3829TIP3    H132978   5.408   3.426   1.812  0.0142  2.4926 -1.3255
 3829TIP3    H232979   5.558   3.420   1.832 -0.1950  0.2738 -0.1550
 3830TIP3   OH232980   4.017   2.149   3.003 -0.3723  0.0034 -0.0113
 3830TIP3    H132981   4.102   2.191   3.012 -0.6975  1.1437 -1.7080
 3830TIP3    H232982   3.963   2.192   3.069  0.3151 -0.6268  0.9765
 3831TIP3   OH232983   4.611   4.030   4.568 -0.0245 -0.1830  0.2892
 3831TIP3    H132984   4.588   4.063   4.655 -1.4122  3.7413 -1.3205
 3831TIP3    H232985   4.681   4.088   4.539 -1.1079  0.0640 -2.0075
 3832TIP3   OH232986   2.832   2.941  12.662  0.1196  0.3946  0.0447
 3832TIP3    H132987   2.872   3.007  12.718 -0.5659  2.7066 -1.9829
 3832TIP3    H232988   2.760   2.988  12.619  0.4868 -1.2635 -2.5826
 3833TIP3   OH232989   5.069   1.939  13.654  0.1195 -0.4271  0.1173
 3833TIP3    H132990   5.029   1.900  13.577 -1.3886 -0.4048  0.8469
 3833TIP3    H232991   5.127   2.007  13.620 -2.0389  0.9761 -0.9729
 3834TIP3   OH232992   5.303   4.820  15.712 -0.1146  0.2400 -0.4110
 3834TIP3    H132993   5.338   4.810  15.623 -0.3401 -0.0738 -0.4681
 3834TIP3    H232994   5.378   4.850  15.764  0.5922 -1.6221 -0.2697
 3835TIP3   OH232995   5.470   6.595   1.413  0.6758  0.0434 -0.2482
 3835TIP3    H132996   5.558   6.628   1.433  0.9650 -0.8822  0.0730
 3835TIP3    H232997   5.476   6.564   1.323  0.7366 -0.2001 -0.1609
 3836TIP3   OH232998   0.832   2.743   0.362 -0.3869 -0.2145 -0.1938
 3836TIP3    H132999   0.788   2.685   0.300  1.6731 -2.2756  0.0993
 3836TIP3    H233000   0.817   2.702   0.448  0.7931 -0.1745  0.0632
 3837TIP3   OH233001   4.430   5.024   3.845 -0.9982  0.1121 -0.2140
 3837TIP3    H133002   4.385   5.108   3.852  0.8173  1.2011 -0.9151
 3837TIP3    H233003   4.404   4.990   3.759 -0.2721  0.9014 -0.7688
 3838TIP3   OH233004   1.357   0.019   2.053 -0.3213 -0.4309 -0.1999
 3838TIP3    H133005   1.317  -0.011   2.134 -0.7534  2.7924  0.9306
 3838TIP3    H233006   1.301  -0.019   1.984 -1.2721 -1.4428  1.0631
 3839TIP3   OH233007   2.393   2.666   0.951 -0.0749  0.3812  0.3165
 3839TIP3    H133008   2.322   2.616   0.994 -0.4928  0.3583 -0.3841
 3839TIP3    H233009   2.441   2.600   0.901 -1.3355  0.8275 -1.5588
 3840TIP3   OH233010   5.728   0.074  14.098  0.7583  0.5498 -0.5143
 3840TIP3    H133011   5.696   0.161  14.074  1.2651  0.4858 -1.4714
 3840TIP3    H233012   5.823   0.085  14.104  0.8623 -0.0300 -1.0553
 3841TIP3   OH233013   3.040   2.870   1.420  0.4360 -0.2922  0.0799
 3841TIP3    H133014   3.126   2.902   1.392 -0.2204  0.2814 -1.4080
 3841TIP3    H233015   2.996   2.946   1.457  1.3704 -1.0926  3.0570
 3842TIP3   OH233016   3.361   3.956   3.052 -0.3937 -0.0963  0.1536
 3842TIP3    H133017   3.273   3.994   3.045  0.1928  1.2312 -0.1167
 3842TIP3    H233018   3.393   3.987   3.137 -0.5572 -1.4166  0.7234
 3843TIP3   OH233019   3.879   1.356  10.971  0.0615 -0.6202 -0.2358
 3843TIP3    H133020   3.844   1.382  10.886 -0.6728 -0.2357  0.1644
 3843TIP3    H233021   3.847   1.267  10.984  0.9039 -1.0009 -0.7387
 3844TIP3   OH233022   1.923   6.182   5.675  0.0346  0.0927 -0.2401
 3844TIP3    H133023   1.893   6.271   5.658 -1.0907  0.0025  1.0899
 3844TIP3    H233024   2.010   6.192   5.714 -0.6987  0.7126  1.2907
 3845TIP3   OH233025   4.258   3.710  11.832 -0.2208 -0.1799 -0.2104
 3845TIP3    H133026   4.324   3.768  11.869 -1.4365  0.0374  1.7516
 3845TIP3    H233027   4.255   3.734  11.739 -0.3550  2.6209  0.4382
 3846TIP3   OH233028   5.774   2.646  10.754 -0.5318 -0.0976 -0.1017
 3846TIP3    H133029   5.807   2.735  10.749  0.7277 -0.6048 -1.7688
 3846TIP3    H233030   5.693   2.647  10.703 -0.6612  0.1481  0.1090
 3847TIP3   OH233031   0.452   6.048  15.054 -0.0445 -0.1150  0.3010
 3847TIP3    H133032   0.448   5.983  14.983  3.5090 -3.2688  2.5904
 3847TIP3    H233033   0.434   5.997  15.133 -0.2888  2.4975  2.0383
 3848TIP3   OH233034   5.541   0.430   6.255 -0.4419  0.1979 -0.0761
 3848TIP3    H133035   5.457   0.463   6.286 -0.1108  1.5540 -0.5645
 3848TIP3    H233036   5.606   0.475   6.308  0.0027 -1.5589  0.9685
 3849TIP3   OH233037   0.017   3.196  13.354 -0.1869  0.3601  0.2141
 3849TIP3    H133038  -0.056   3.214  13.294 -0.3718  0.3494  0.4332
 3849TIP3    H233039   0.093   3.236  13.313 -0.3805  0.6485  0.1372
 3850TIP3   OH233040   6.682   0.853  14.844 -0.0075 -0.0148  0.6442
 3850TIP3    H133041   6.691   0.851  14.749 -0.7083  0.2537  0.5657
 3850TIP3    H233042   6.767   0.883  14.876  0.3285 -0.3969  0.1220
 3851TIP3   OH233043   4.000   0.753  14.197 -0.1790 -0.0141 -0.1316
 3851TIP3    H133044   3.932   0.706  14.149  0.1078  0.5678 -1.1538
 3851TIP3    H233045   4.056   0.684  14.233  0.8009 -0.5287 -2.4175
 3852TIP3   OH233046   0.481   5.749   4.166  0.5952  0.2321 -0.3798
 3852TIP3    H133047   0.452   5.829   4.121  0.1354  0.9115  1.0525
 3852TIP3    H233048   0.405   5.691   4.162  0.1653  0.7139  0.4329
 3853TIP3   OH233049   1.505   2.460  15.962  0.9169 -0.1401 -0.2221
 3853TIP3    H133050   1.482   2.394  15.896  0.4893  1.1924 -1.4684
 3853TIP3    H233051   1.426   2.513  15.971  2.0164  1.8187 -1.2804
 3854TIP3   OH233052   5.310   3.083   4.954  0.0743  0.0117 -0.1441
 3854TIP3    H133053   5.290   3.131   5.034 -0.9499  0.7696 -0.8190
 3854TIP3    H233054   5.227   3.082   4.906 -0.1662 -3.1149  0.1506
 3855TIP3   OH233055   4.936   2.529  14.121 -0.3906  0.3029  0.1312
 3855TIP3    H133056   4.862   2.543  14.062 -0.4462  0.8093  0.3207
 3855TIP3    H233057   4.896   2.495  14.201 -0.3056 -0.4807 -0.1525
 3856TIP3   OH233058   0.820   5.615  14.355  0.0523 -0.1307  0.2426
 3856TIP3    H133059   0.911   5.590  14.368  0.2611  0.6164  0.2746
 3856TIP3    H233060   0.794   5.657  14.437 -0.9401 -2.0643  0.9880
 3857TIP3   OH233061   1.807   2.329  12.213  0.3370  0.2551  0.4051
 3857TIP3    H133062   1.827   2.269  12.141  0.8823 -1.6542  2.0797
 3857TIP3    H233063   1.728   2.293  12.253 -0.6766  1.9949  0.0831
 3858TIP3   OH233064   6.030   4.725   2.464 -0.4811  0.1521 -0.0190
 3858TIP3    H133065   6.039   4.635   2.435 -0.7926  0.5419 -1.4315
 3858TIP3    H233066   5.950   4.756   2.420  0.3627  1.5061 -0.6739
 3859TIP3   OH233067   4.410   2.827  15.029  0.3094 -0.0653  0.1854
 3859TIP3    H133068   4.477   2.759  15.032 -0.9629 -1.3765 -0.0082
 3859TIP3    H233069   4.396   2.843  14.935 -0.2279 -0.4075  0.2028
 3860TIP3   OH233070   6.830   5.138  11.019 -0.2209  0.3820  0.9761
 3860TIP3    H133071   6.867   5.071  10.961 -2.9339 -1.5170  1.2517
 3860TIP3    H233072   6.778   5.194  10.961  1.0902  1.6062  0.9265
 3861TIP3   OH233073   0.012   2.513   3.849 -0.4068  0.3341  0.6135
 3861TIP3    H133074   0.057   2.478   3.925  0.1502  1.0241  0.6029
 3861TIP3    H233075  -0.039   2.439   3.815 -1.0885  0.1640  1.9647
 3862TIP3   OH233076   2.197   6.232   4.609 -0.1350 -0.3038 -0.5165
 3862TIP3    H133077   2.288   6.241   4.582  0.3498 -0.0560  1.0555
 3862TIP3    H233078   2.147   6.278   4.542  1.1820  2.5092  0.2636
 3863TIP3   OH233079   0.378   3.857  10.164 -0.1835 -0.3178 -0.1542
 3863TIP3    H133080   0.296   3.875  10.212 -0.4535 -0.9669 -0.3604
 3863TIP3    H233081   0.421   3.942  10.158  0.4390 -0.3788  2.3045
 3864TIP3   OH233082   4.208   1.415   0.907  0.6049  0.2494  0.6235
 3864TIP3    H133083   4.299   1.389   0.900  0.1343 -1.1506 -0.7218
 3864TIP3    H233084   4.184   1.448   0.821 -0.2968  0.1230  0.8062
 3865TIP3   OH233085   2.345   0.765  11.531  0.1530  0.1325 -0.1377
 3865TIP3    H133086   2.399   0.844  11.528  0.8080 -0.3287 -0.7335
 3865TIP3    H233087   2.384   0.707  11.466 -1.2622 -0.0846 -0.8363
 3866TIP3   OH233088   0.374   0.516   1.936 -0.4250  0.2512  0.5447
 3866TIP3    H133089   0.285   0.550   1.923 -0.7310 -1.5383 -3.9683
 3866TIP3    H233090   0.431   0.591   1.922 -1.1936  0.6539 -0.5086
 3867TIP3   OH233091   1.991   4.106   6.079 -0.0804 -0.4112 -0.2387
 3867TIP3    H133092   2.004   4.190   6.036 -0.8814 -0.9875 -1.6572
 3867TIP3    H233093   2.075   4.062   6.074  0.6635  0.7017  1.4946
 3868TIP3   OH233094   3.980   1.296   0.384  0.4689 -0.1362  0.2169
 3868TIP3    H133095   3.976   1.204   0.361  0.0143 -0.1159  0.2100
 3868TIP3    H233096   4.066   1.325   0.353  1.3759 -0.9692  1.7818
 3869TIP3   OH233097   0.196   6.401   0.974 -0.2238  0.3494  0.2658
 3869TIP3    H133098   0.217   6.441   0.889 -1.1375  1.0666  0.3640
 3869TIP3    H233099   0.259   6.441   1.034  0.7930 -0.5698 -0.1462
 3870TIP3   OH233100   1.382   4.958   3.419 -0.4933  0.1501  0.6785
 3870TIP3    H133101   1.373   5.028   3.355 -2.0062 -0.1996  0.4840
 3870TIP3    H233102   1.351   4.996   3.501 -0.9273 -0.1633  0.6619
 3871TIP3   OH233103   0.782   5.179  11.804  0.0163 -0.2736  0.4437
 3871TIP3    H133104   0.735   5.170  11.721  1.3757  0.0472 -0.4024
 3871TIP3    H233105   0.757   5.266  11.836  0.0323 -0.1020  0.0027
 3872TIP3   OH233106   0.592   3.610   2.773  0.2893 -0.3327  0.1968
 3872TIP3    H133107   0.667   3.592   2.828 -0.7970 -0.2629  1.7683
 3872TIP3    H233108   0.574   3.703   2.786 -0.6292 -0.5551  0.5990
 3873TIP3   OH233109   2.047   5.263   3.228  0.4174 -0.4247  0.2193
 3873TIP3    H133110   2.123   5.314   3.255  0.3207 -1.2363  2.1099
 3873TIP3    H233111   2.058   5.252   3.133  1.3543  1.5506  0.0459
 3874TIP3   OH233112   0.737   2.363  11.951  0.5062  0.4127  0.4390
 3874TIP3    H133113   0.691   2.429  12.003  1.5063  2.5818 -1.2837
 3874TIP3    H233114   0.820   2.350  11.997  1.0715  1.7501 -0.1808
 3875TIP3   OH233115   4.960   3.597   3.759  0.6572  0.2244 -0.1297
 3875TIP3    H133116   5.028   3.626   3.697  1.2900 -1.4552 -0.2804
 3875TIP3    H233117   5.003   3.528   3.810 -0.5827 -0.0307  0.5908
 3876TIP3   OH233118   6.279   3.198   0.613 -0.1782  0.5716 -0.0200
 3876TIP3    H133119   6.307   3.107   0.622 -0.6437  0.5354  1.0893
 3876TIP3    H233120   6.282   3.213   0.518 -1.1186 -0.9179 -0.3284
 3877TIP3   OH233121   4.307   4.392   6.547 -0.6086 -0.0746  0.5887
 3877TIP3    H133122   4.393   4.432   6.560 -0.4701  0.0352 -0.5184
 3877TIP3    H233123   4.326   4.300   6.530 -0.7793 -0.2161  1.1423
 3878TIP3   OH233124   6.544   2.409  12.251 -0.1652 -0.0487 -0.4699
 3878TIP3    H133125   6.549   2.360  12.168  0.1898 -0.4561 -0.2128
 3878TIP3    H233126   6.465   2.463  12.242 -1.0298 -1.2692 -0.4402
 3879TIP3   OH233127   1.208   1.468   0.231 -0.0373  0.2936  0.0107
 3879TIP3    H133128   1.188   1.449   0.323  2.4453 -1.2390  0.3445
 3879TIP3    H233129   1.296   1.434   0.219  0.0583  1.2805 -2.7418
 3880TIP3   OH233130   6.551   6.513   5.323 -0.4546  0.2437  0.0481
 3880TIP3    H133131   6.541   6.607   5.316  0.3891  0.4299  1.0871
 3880TIP3    H233132   6.469   6.477   5.290 -2.3463  1.4812  3.0138
 3881TIP3   OH233133   1.390   0.425   1.279 -0.2247 -0.6045  0.5590
 3881TIP3    H133134   1.385   0.487   1.351  0.4120  0.1282 -0.0089
 3881TIP3    H233135   1.474   0.444   1.237 -2.0878  1.6104 -2.6577
 3882TIP3   OH233136   6.201   5.038  16.912  0.7968  0.0716  0.1198
 3882TIP3    H133137   6.222   5.029  16.819 -1.1600  1.5826 -0.5223
 3882TIP3    H233138   6.258   5.108  16.943  0.4905  0.5005 -0.2797
 3883TIP3   OH233139   0.948   5.724   1.998  0.4393  0.4302  0.3798
 3883TIP3    H133140   0.976   5.672   2.073  1.3558  0.5369  0.1315
 3883TIP3    H233141   0.958   5.666   1.922  0.6827  0.7020  0.1989
 3884TIP3   OH233142   5.190   1.734   4.532 -0.2149  0.2907 -0.7886
 3884TIP3    H133143   5.128   1.677   4.487 -1.1303  1.1520 -0.6605
 3884TIP3    H233144   5.216   1.798   4.466 -0.3477  0.6181 -0.5242
 3885TIP3   OH233145   0.876   2.040  14.404  0.5820 -0.3326  0.3187
 3885TIP3    H133146   0.965   2.048  14.368  1.4368 -2.1994  1.8122
 3885TIP3    H233147   0.871   2.106  14.472  0.1895  0.8979 -0.8639
 3886TIP3   OH233148   1.097   4.733  15.504  0.0866  0.1734 -0.0613
 3886TIP3    H133149   1.063   4.645  15.523  2.9145 -0.8631  0.6676
 3886TIP3    H233150   1.051   4.789  15.567 -0.8016 -0.9792  0.3755
 3887TIP3   OH233151   5.950   3.174  11.081  0.5978  0.2844 -0.0595
 3887TIP3    H133152   5.915   3.163  10.993  0.2635  2.0232 -0.1723
 3887TIP3    H233153   6.044   3.184  11.068  0.6640 -0.3535 -0.1202
 3888TIP3   OH233154   1.829   5.681   2.825 -0.3451 -0.0882  0.6021
 3888TIP3    H133155   1.801   5.731   2.749  0.8813  0.9722  0.7994
 3888TIP3    H233156   1.753   5.630   2.851 -1.3861  1.0548 -0.1305
 3889TIP3   OH233157   2.580   4.120   5.025  0.5843 -0.7514  0.0307
 3889TIP3    H133158   2.572   4.028   5.000 -1.3068 -0.0705 -2.1471
 3889TIP3    H233159   2.574   4.168   4.943 -1.8806  1.4836  1.3833
 3890TIP3   OH233160   5.471   5.995   5.534 -0.1239 -0.4548 -0.4125
 3890TIP3    H133161   5.507   5.970   5.620 -2.4544 -1.2129  0.4243
 3890TIP3    H233162   5.525   5.948   5.471  1.9844  0.5246  0.5474
 3891TIP3   OH233163   4.250   3.624  12.161 -0.9420 -0.0905  0.1216
 3891TIP3    H133164   4.328   3.624  12.105 -1.0281  1.2476 -0.0414
 3891TIP3    H233165   4.182   3.583  12.108 -0.8233  0.4628 -0.4675
 3892TIP3   OH233166   2.755   6.036  12.912 -0.0843 -0.2290  0.8586
 3892TIP3    H133167   2.808   6.115  12.925 -1.5240  0.9997 -0.2429
 3892TIP3    H233168   2.668   6.070  12.890 -0.7601 -2.1477  0.3972
 3893TIP3   OH233169   3.452   1.758   1.094 -0.1657 -0.8836 -0.7256
 3893TIP3    H133170   3.407   1.800   1.168  0.4953  0.3462 -0.9919
 3893TIP3    H233171   3.416   1.670   1.091 -1.6966 -0.3066 -0.2052
 3894TIP3   OH233172   1.171   0.880   6.209 -0.4949 -0.0433 -0.4330
 3894TIP3    H133173   1.076   0.890   6.210 -0.3639  1.3729  0.4438
 3894TIP3    H233174   1.198   0.913   6.124 -0.7127  0.5857 -0.2661
 3895TIP3   OH233175   3.490   0.588   3.229  0.2511  0.2739  0.1541
 3895TIP3    H133176   3.429   0.562   3.297 -0.8877  0.6285 -0.6918
 3895TIP3    H233177   3.487   0.684   3.230 -2.8011  0.4011 -2.8753
 3896TIP3   OH233178   2.859   6.263  12.421 -0.2277 -0.1730 -0.1833
 3896TIP3    H133179   2.814   6.271  12.337 -1.5713  0.2055  0.5384
 3896TIP3    H233180   2.934   6.322  12.413 -0.5996  0.2185 -0.9484
 3897TIP3   OH233181   1.474   5.615   3.550 -0.4468  0.3197  0.0666
 3897TIP3    H133182   1.541   5.654   3.606 -2.1162  0.6211  1.9975
 3897TIP3    H233183   1.508   5.528   3.529  1.9169  1.5582 -1.6887
 3898TIP3   OH233184   0.753   4.310   2.977  0.3580  0.0284 -0.2320
 3898TIP3    H133185   0.707   4.242   3.025  1.6716 -1.2661 -0.7182
 3898TIP3    H233186   0.717   4.392   3.010 -0.3792 -0.8650  1.2863
 3899TIP3   OH233187   0.671   5.611   4.708 -0.0688  0.6157  0.6660
 3899TIP3    H133188   0.597   5.612   4.648  0.2930  0.7655  0.2177
 3899TIP3    H233189   0.708   5.523   4.700  1.3985  1.3240 -1.1134
 3900TIP3   OH233190   5.987   4.645  16.900 -0.2214 -0.0300 -0.1662
 3900TIP3    H133191   6.047   4.677  16.832 -1.4415 -1.6236 -2.1431
 3900TIP3    H233192   6.036   4.576  16.945  0.7926  1.4090  1.0162
 3901TIP3   OH233193   6.511   3.587  14.641  0.2354 -0.2551  0.3520
 3901TIP3    H133194   6.478   3.497  14.632  0.3563 -0.2129 -0.6237
 3901TIP3    H233195   6.560   3.586  14.724  1.1835 -1.4128 -0.1775
 3902TIP3   OH233196   5.328   1.561   4.210 -0.1140  0.1755  0.7642
 3902TIP3    H133197   5.326   1.599   4.122 -1.3106 -2.5538 -0.4777
 3902TIP3    H233198   5.421   1.564   4.235  0.4267 -0.0362 -1.0886
 3903TIP3   OH233199   2.141   4.467  17.003 -0.3564 -0.2024 -0.1848
 3903TIP3    H133200   2.092   4.406  16.948  1.3771 -0.3867 -1.6118
 3903TIP3    H233201   2.129   4.552  16.960 -1.1391  0.1479  0.6860
 3904TIP3   OH233202   0.398   5.739  17.083 -0.7818 -0.1045  0.2537
 3904TIP3    H133203   0.313   5.719  17.122 -1.0155  0.2824 -0.0492
 3904TIP3    H233204   0.378   5.802  17.013 -0.3858 -0.8182 -0.5307
 3905TIP3   OH233205   2.606   1.176  13.428  0.0089 -0.6149  0.2090
 3905TIP3    H133206   2.511   1.175  13.436 -0.3255 -2.1213 -2.6424
 3905TIP3    H233207   2.636   1.223  13.506 -2.9273 -1.6438  2.1514
 3906TIP3   OH233208   5.118   4.710  11.840  0.4333  0.1755 -0.3533
 3906TIP3    H133209   5.171   4.693  11.762  1.4617 -1.6381  0.6698
 3906TIP3    H233210   5.079   4.625  11.862  0.4055  0.5743  1.2570
 3907TIP3   OH233211   5.868   5.247  11.557 -0.3408  0.0044  0.2490
 3907TIP3    H133212   5.924   5.234  11.634  0.9402 -1.0641 -0.8258
 3907TIP3    H233213   5.811   5.171  11.556 -0.9263  0.4293  0.5840
 3908TIP3   OH233214   0.063   5.979  16.980  0.4625 -0.4139  0.6059
 3908TIP3    H133215   0.093   6.069  16.990 -1.5063  0.3556  0.0256
 3908TIP3    H233216   0.140   5.932  16.947  1.0494  1.4470 -0.8865
 3909TIP3   OH233217   6.333   6.244   5.704 -0.0435  0.4469  0.0113
 3909TIP3    H133218   6.299   6.248   5.794 -0.2963 -1.1505  0.0219
 3909TIP3    H233219   6.254   6.238   5.650  0.1322 -0.6438 -0.1505
 3910TIP3   OH233220   2.408   5.786   4.534 -0.7673 -0.4159 -0.2692
 3910TIP3    H133221   2.438   5.699   4.560  1.2740  0.7439  1.6334
 3910TIP3    H233222   2.465   5.809   4.460 -0.7696 -0.3927 -0.2638
 3911TIP3   OH233223   1.776   4.328   2.010 -0.5324  0.6702 -0.4508
 3911TIP3    H133224   1.867   4.307   2.031 -0.8292 -0.6680 -0.3656
 3911TIP3    H233225   1.750   4.260   1.947 -1.1263  1.7262 -1.3837
 3912TIP3   OH233226   5.419   1.566   5.370  0.3114  0.6488 -0.5586
 3912TIP3    H133227   5.332   1.541   5.340  0.0242  1.0071 -0.0377
 3912TIP3    H233228   5.461   1.483   5.394 -0.5289  0.5935  0.8813
 3913TIP3   OH233229   2.959   1.342  15.349  0.5090  0.5321 -0.8975
 3913TIP3    H133230   2.891   1.316  15.286 -0.0122  1.2434 -0.6462
 3913TIP3    H233231   3.009   1.262  15.364 -1.2356 -0.4331  0.0929
 3914TIP3   OH233232   4.422   4.376  16.696 -0.2916 -0.0718 -0.1810
 3914TIP3    H133233   4.345   4.321  16.680  0.9050 -1.4091 -1.6657
 3914TIP3    H233234   4.492   4.313  16.713  0.7664  1.0798 -0.1935
 3915TIP3   OH233235   6.111   6.668   0.993  0.2018 -0.3744 -0.0320
 3915TIP3    H133236   6.126   6.666   1.087 -0.8530  1.0848  0.1945
 3915TIP3    H233237   6.044   6.602   0.977 -1.9203  1.5105  0.7339
 3916TIP3   OH233238   1.743   1.447  11.913  0.2203  0.1713  0.6388
 3916TIP3    H133239   1.753   1.541  11.928 -0.7392  0.0730  2.2069
 3916TIP3    H233240   1.648   1.433  11.913  0.3587 -0.9776  1.8936
 3917TIP3   OH233241   6.538   4.295   3.799 -0.0112 -0.2287  0.0053
 3917TIP3    H133242   6.467   4.299   3.863  1.3313  0.2138  1.5610
 3917TIP3    H233243   6.605   4.355   3.834  1.1185 -0.6283 -1.3798
 3918TIP3   OH233244   3.336   6.522   5.885 -0.0826 -0.0646  0.3373
 3918TIP3    H133245   3.373   6.609   5.898 -0.0848  0.0960 -0.6438
 3918TIP3    H233246   3.412   6.465   5.870 -0.1342 -0.0278 -0.0841
 3919TIP3   OH233247   2.284   4.467  10.737  0.1392  0.5783 -0.4905
 3919TIP3    H133248   2.261   4.494  10.826 -0.2971  0.2349 -0.4992
 3919TIP3    H233249   2.379   4.455  10.740  0.0794  0.2163  0.0280
 3920TIP3   OH233250   3.942   4.154   1.073 -0.3039  0.2388 -0.0772
 3920TIP3    H133251   3.864   4.205   1.052 -0.3897  0.4277  0.6642
 3920TIP3    H233252   3.950   4.161   1.168  0.4668  0.0049 -0.1185
 3921TIP3   OH233253   2.230   2.837   1.546 -0.0709 -0.0338 -0.0368
 3921TIP3    H133254   2.253   2.870   1.459 -0.7761  0.1501 -0.1573
 3921TIP3    H233255   2.159   2.775   1.531 -2.1665  2.0604  0.6229
 3922TIP3   OH233256   3.910   3.655  16.170 -0.1415 -0.2128  0.1536
 3922TIP3    H133257   3.836   3.678  16.114 -1.9367 -2.7858  1.2888
 3922TIP3    H233258   3.916   3.726  16.233 -1.3072  0.2830 -0.2796
 3923TIP3   OH233259   3.922   5.318  11.424  0.2252  0.0737 -0.3118
 3923TIP3    H133260   3.900   5.324  11.517  0.8508  0.1809 -0.1658
 3923TIP3    H233261   3.996   5.377  11.413  0.1166  0.1055 -0.8942
 3924TIP3   OH233262   5.494   1.720  12.515 -0.0561 -0.0058  0.0848
 3924TIP3    H133263   5.500   1.637  12.468 -1.9350 -0.8711  1.2705
 3924TIP3    H233264   5.476   1.785  12.447  1.0905 -0.5842 -0.8170
 3925TIP3   OH233265   2.648   0.055   6.377 -0.1664  0.0294  0.1890
 3925TIP3    H133266   2.599   0.114   6.434  0.2170  0.1632  0.3849
 3925TIP3    H233267   2.627   0.085   6.288 -1.8564 -1.0453  0.1842
 3926TIP3   OH233268   2.891   3.010  16.217  0.2725 -0.0675  0.0974
 3926TIP3    H133269   2.937   2.961  16.286  1.4527  0.0170 -0.5952
 3926TIP3    H233270   2.889   2.949  16.143 -0.2009  0.1572 -0.0742
 3927TIP3   OH233271   2.162   3.862   5.280 -0.2998 -0.3937 -0.0226
 3927TIP3    H133272   2.150   3.785   5.335  1.3358  1.3256  2.9967
 3927TIP3    H233273   2.253   3.856   5.250  0.1886  0.8158  1.1285
 3928TIP3   OH233274   0.501   1.956  12.826  0.2000 -0.1851 -0.0685
 3928TIP3    H133275   0.474   1.896  12.895 -1.1701  1.8411  1.2594
 3928TIP3    H233276   0.423   1.967  12.771  0.9987 -1.0358 -1.4316
 3929TIP3   OH233277   1.690   2.623  13.775  0.3530  0.4922  0.0645
 3929TIP3    H133278   1.683   2.605  13.682  2.0784  0.3061 -0.0641
 3929TIP3    H233279   1.778   2.594  13.799 -0.8417 -1.6666  2.2760
 3930TIP3   OH233280   6.017   1.175  12.034  0.4024 -0.1224  0.0246
 3930TIP3    H133281   6.011   1.269  12.054  0.1880 -0.1205 -0.0447
 3930TIP3    H233282   5.936   1.155  11.988 -0.5311 -0.8003  1.8695
 3931TIP3   OH233283   6.831   1.425   0.593  0.4027 -0.2493 -0.2049
 3931TIP3    H133284   6.914   1.380   0.609 -0.0749 -0.5101  1.7441
 3931TIP3    H233285   6.774   1.398   0.665 -0.7697  1.4070 -0.4485
 3932TIP3   OH233286   1.378   5.766  12.150 -0.1804 -0.3314  0.1644
 3932TIP3    H133287   1.309   5.791  12.211 -0.7052 -1.9584  0.2743
 3932TIP3    H233288   1.438   5.712  12.203  0.3725 -0.1816 -0.2993
 3933TIP3   OH233289   2.642   0.799  14.100  0.0118  0.1481  0.2407
 3933TIP3    H133290   2.602   0.747  14.169  1.0184 -1.8076 -0.5601
 3933TIP3    H233291   2.737   0.791  14.116  0.3130 -1.1278 -1.8374
 3934TIP3   OH233292   3.040   4.004  15.075  0.0296 -0.2006 -0.5626
 3934TIP3    H133293   2.993   4.035  15.152 -1.2327  0.2524 -1.4919
 3934TIP3    H233294   3.015   3.912  15.065 -0.9297  0.1141 -1.2184
 3935TIP3   OH233295   2.839   2.492  16.478  0.0956  0.1832 -0.4990
 3935TIP3    H133296   2.825   2.559  16.412  1.5155  0.2700 -0.7564
 3935TIP3    H233297   2.800   2.413  16.441 -0.2799  0.5285 -0.8452
 3936TIP3   OH233298   4.756   3.169   1.970 -0.4549  0.8102 -0.4232
 3936TIP3    H133299   4.849   3.191   1.966 -0.3015  0.7104  1.7030
 3936TIP3    H233300   4.716   3.241   2.018 -1.4301  0.6545 -0.9715
 3937TIP3   OH233301   4.983   2.013   4.121  0.5024 -0.2787  0.3584
 3937TIP3    H133302   5.025   2.057   4.195  0.2068 -0.9754  0.9634
 3937TIP3    H233303   4.945   2.083   4.069 -1.2310  0.1397  2.0831
 3938TIP3   OH233304   1.153   6.309  16.250  0.4292 -0.0337  0.1421
 3938TIP3    H133305   1.164   6.227  16.298  0.6185  0.0146  0.1834
 3938TIP3    H233306   1.080   6.293  16.190  0.5585 -0.2774  0.0513
 3939TIP3   OH233307   1.247   3.350  16.109  0.3320  0.0819  0.3270
 3939TIP3    H133308   1.327   3.332  16.158  0.2056  0.9670  0.8735
 3939TIP3    H233309   1.210   3.428  16.150  0.8664  1.6393 -1.9484
 3940TIP3   OH233310   4.552   1.912   0.088  0.0875  0.5237  0.6127
 3940TIP3    H133311   4.582   2.003   0.098  1.6982  0.4046 -2.1219
 3940TIP3    H233312   4.456   1.918   0.093  0.1476  2.4213  0.3446
 3941TIP3   OH233313   2.159   1.845  11.369  0.0804  0.7280 -0.2083
 3941TIP3    H133314   2.081   1.792  11.351  0.2796  0.7434 -1.1519
 3941TIP3    H233315   2.160   1.912  11.300  0.5815  1.1238  0.1684
 3942TIP3   OH233316   6.440   3.187  13.004 -0.0155 -0.1780 -0.0114
 3942TIP3    H133317   6.483   3.105  12.982  0.1900 -0.0396 -0.1255
 3942TIP3    H233318   6.352   3.161  13.034 -0.0582 -0.4146 -0.3417
 3943TIP3   OH233319   2.958   5.261   1.925  0.1091  0.6781 -0.4128
 3943TIP3    H133320   3.004   5.343   1.938  0.0885  0.7429 -0.7466
 3943TIP3    H233321   3.018   5.194   1.960  1.2620  0.5696 -2.4230
 3944TIP3   OH233322   0.166   6.158  11.494 -0.3646 -0.6454 -0.2163
 3944TIP3    H133323   0.074   6.185  11.492 -0.6878 -1.7359 -0.4653
 3944TIP3    H233324   0.178   6.121  11.582 -0.6053 -1.9602 -0.7196
 3945TIP3   OH233325   4.599   2.061  16.526  0.3786  0.4899  0.0249
 3945TIP3    H133326   4.564   2.037  16.612 -1.5273  0.0976 -0.8061
 3945TIP3    H233327   4.676   2.004  16.514  0.2651  0.0784  1.1756
 3946TIP3   OH233328   3.871   5.686   4.535 -0.2582 -0.1931 -0.1603
 3946TIP3    H133329   3.882   5.781   4.529 -1.4879  0.2024  2.4969
 3946TIP3    H233330   3.948   5.656   4.584 -0.2913 -0.4632 -0.2712
 3947TIP3   OH233331   6.819   1.472   3.031  0.0614 -0.8262  0.3517
 3947TIP3    H133332   6.755   1.480   2.960 -1.2006 -0.9488  1.4199
 3947TIP3    H233333   6.894   1.523   3.002 -0.2318 -1.2386 -1.2569
 3948TIP3   OH233334   3.491   1.416  14.186 -0.2072 -0.0800  0.0237
 3948TIP3    H133335   3.556   1.358  14.145 -0.3590  0.4547 -0.9987
 3948TIP3    H233336   3.422   1.357  14.215  0.2010 -0.5321  0.1028
 3949TIP3   OH233337   0.296   4.567   0.736 -0.1166  0.7416  0.0261
 3949TIP3    H133338   0.238   4.518   0.794  0.1454  1.6079  1.0589
 3949TIP3    H233339   0.382   4.527   0.749 -0.1584  0.5818 -0.1859
 3950TIP3   OH233340   0.101   1.548  16.007  0.2976 -0.3764  0.6875
 3950TIP3    H133341   0.071   1.588  16.089  0.4931  1.2546  0.0113
 3950TIP3    H233342   0.136   1.622  15.956  1.5991 -1.5864 -0.2456
 3951TIP3   OH233343   2.538   5.782  11.127 -1.0095 -0.0479  0.4398
 3951TIP3    H133344   2.570   5.725  11.197  2.1752 -0.1432 -0.9282
 3951TIP3    H233345   2.558   5.871  11.158 -0.5898 -0.0342  0.1422
 3952TIP3   OH233346   2.140   4.845  12.759 -0.3237 -0.3977  0.2635
 3952TIP3    H133347   2.193   4.776  12.799 -0.4357  0.2803  1.6615
 3952TIP3    H233348   2.064   4.852  12.816 -0.5447  0.5376 -0.1298
 3953TIP3   OH233349   3.205   6.678   4.335 -0.0446 -0.0327  0.3256
 3953TIP3    H133350   3.241   6.759   4.299 -0.6481 -0.2560 -0.8406
 3953TIP3    H233351   3.116   6.700   4.362  0.2389  0.0091  1.2544
 3954TIP3   OH233352   6.539   4.798   5.853  0.3063 -0.5524  0.1933
 3954TIP3    H133353   6.526   4.753   5.770 -1.0078  0.3925 -0.1490
 3954TIP3    H233354   6.462   4.774   5.905  0.1103  0.4198  0.3814
 3955TIP3   OH233355   1.870   1.753  11.675  0.0244 -0.2590 -0.4716
 3955TIP3    H133356   1.782   1.764  11.710 -0.0735 -2.0705 -0.0385
 3955TIP3    H233357   1.869   1.666  11.635  2.1060 -1.1102  1.1359
 3956TIP3   OH233358   6.620   0.234  12.102  0.5112 -0.3494 -0.6472
 3956TIP3    H133359   6.578   0.247  12.187  2.5453 -1.8200  0.6494
 3956TIP3    H233360   6.676   0.311  12.091  0.4894 -0.3162 -0.5284
 3957TIP3   OH233361   5.643   2.890  15.588 -0.0818 -0.3586  0.3444
 3957TIP3    H133362   5.605   2.897  15.676  2.0122  0.4696  1.2555
 3957TIP3    H233363   5.738   2.884  15.603  0.4562  1.2236 -1.8864
 3958TIP3   OH233364   1.471   2.549   5.065  0.8272  0.1887 -0.5568
 3958TIP3    H133365   1.483   2.623   5.004  3.1577 -0.2362 -0.6699
 3958TIP3    H233366   1.471   2.472   5.009  1.1985 -0.0830 -0.1855
 3959TIP3   OH233367   4.702   3.395   4.330  0.4343  0.2466 -0.0089
 3959TIP3    H133368   4.745   3.415   4.413 -2.5268  0.0548  1.7334
 3959TIP3    H233369   4.640   3.467   4.318 -0.0978 -0.4133 -1.3644
 3960TIP3   OH233370   0.361   3.783  13.810  0.0113 -0.0287  0.7258
 3960TIP3    H133371   0.375   3.872  13.844  0.0251  0.2066  0.1201
 3960TIP3    H233372   0.445   3.739  13.824  0.7943  0.7679 -1.0585
 3961TIP3   OH233373   4.534   2.553   1.119 -0.3412 -0.4956  0.2811
 3961TIP3    H133374   4.518   2.597   1.203 -1.2860  0.2771 -0.2864
 3961TIP3    H233375   4.475   2.477   1.121  0.1826 -0.9005  0.6215
 3962TIP3   OH233376   6.538   6.130  14.530  0.2101 -0.4025  1.0178
 3962TIP3    H133377   6.583   6.215  14.526  0.1581 -0.3524  1.4964
 3962TIP3    H233378   6.499   6.120  14.443 -0.4884  0.4544  1.2229
 3963TIP3   OH233379   4.627   6.821  14.799  0.1946  0.3036  0.2635
 3963TIP3    H133380   4.669   6.821  14.885  1.7211 -0.4004 -0.4525
 3963TIP3    H233381   4.691   6.781  14.741 -1.8128 -1.6715 -0.7282
 3964TIP3   OH233382   4.347   2.567   5.519  0.2908 -0.0936  0.1938
 3964TIP3    H133383   4.306   2.494   5.565 -1.5882 -0.3825 -1.7963
 3964TIP3    H233384   4.324   2.554   5.427  1.2580  2.1384 -0.4297
 3965TIP3   OH233385   4.050   4.820  13.536  0.1999  0.3204  0.2276
 3965TIP3    H133386   4.075   4.729  13.554  2.0611  0.5564 -0.9771
 3965TIP3    H233387   4.130   4.870  13.550  0.1498  1.3047 -2.5021
 3966TIP3   OH233388   2.488   2.980   2.036  0.4931  0.0521  0.0444
 3966TIP3    H133389   2.573   2.950   2.068  1.6515  0.9843 -2.0360
 3966TIP3    H233390   2.436   2.900   2.028  1.1111 -0.5150  1.4248
 3967TIP3   OH233391   2.403   1.810   3.275 -0.0570  0.3986 -0.3332
 3967TIP3    H133392   2.417   1.877   3.208 -0.9120  0.5463 -0.3757
 3967TIP3    H233393   2.395   1.859   3.357  2.6014  0.1242  0.1776
 3968TIP3   OH233394   1.832   3.557  13.244 -0.0813  0.5417 -0.3189
 3968TIP3    H133395   1.904   3.604  13.202  1.8577 -2.7872 -1.1111
 3968TIP3    H233396   1.762   3.558  13.179 -0.0058  2.0004 -0.4124
 3969TIP3   OH233397   2.279   2.333  11.395 -0.1273  0.0280 -0.4832
 3969TIP3    H133398   2.336   2.267  11.354 -1.0495 -2.2403  1.6373
 3969TIP3    H233399   2.333   2.371  11.464  0.1960  1.1446 -1.3116
 3970TIP3   OH233400   1.283   2.485   5.274  0.1478  0.0163 -0.7206
 3970TIP3    H133401   1.346   2.494   5.203  0.1717 -0.1996 -0.7271
 3970TIP3    H233402   1.335   2.459   5.349 -0.0096 -0.7783 -0.8753
 3971TIP3   OH233403   0.391   0.635  13.319  0.5137 -0.1306 -0.2013
 3971TIP3    H133404   0.335   0.557  13.314  0.9926 -0.4478 -0.8091
 3971TIP3    H233405   0.469   0.612  13.267  1.3538  0.1823  0.8744
 3972TIP3   OH233406   0.540   5.399   3.676 -0.0088  0.0190 -0.6233
 3972TIP3    H133407   0.574   5.311   3.695 -2.6639 -1.0282 -0.1401
 3972TIP3    H233408   0.533   5.402   3.581  1.3510  0.2568 -0.7277
 3973TIP3   OH233409   2.966   4.624  16.644  0.3921  0.4085  0.1295
 3973TIP3    H133410   2.941   4.716  16.636  0.3183  0.2268 -2.8209
 3973TIP3    H233411   3.055   4.619  16.607 -0.2586 -0.8956 -1.4242
 3974TIP3   OH233412   6.535   2.768   5.638  0.4108  0.1889  0.7338
 3974TIP3    H133413   6.550   2.712   5.562 -1.6021 -0.0477  0.4510
 3974TIP3    H233414   6.454   2.815   5.617  0.4955  1.0486  2.2005
 3975TIP3   OH233415   4.807   5.615   3.380  0.0258 -0.0327  0.1531
 3975TIP3    H133416   4.802   5.628   3.474 -0.7940  0.2106  0.0839
 3975TIP3    H233417   4.859   5.689   3.348 -1.0398  0.7840  0.2432
 3976TIP3   OH233418   1.403   4.075  13.666  0.9052 -0.3459  0.3904
 3976TIP3    H133419   1.356   4.032  13.595 -0.4825  1.3861  0.1906
 3976TIP3    H233420   1.338   4.083  13.736  0.7765  2.1809  0.0740
 3977TIP3   OH233421   2.125   3.311   3.312 -0.1994  0.1617  0.2067
 3977TIP3    H133422   2.157   3.275   3.395  0.5855 -1.0618 -0.5880
 3977TIP3    H233423   2.113   3.405   3.330  2.7916  0.5319  0.9208
 3978TIP3   OH233424   2.950   6.397   3.047 -0.4362 -0.5455 -0.0966
 3978TIP3    H133425   2.889   6.420   3.117 -0.5919 -0.4240 -0.2729
 3978TIP3    H233426   3.031   6.443   3.070 -0.0512 -1.5926  0.7369
 3979TIP3   OH233427   0.260   5.775   1.925 -0.1017  0.6159 -0.1127
 3979TIP3    H133428   0.298   5.743   1.844 -0.2614 -1.1585  0.4710
 3979TIP3    H233429   0.334   5.788   1.983 -0.1742 -1.1433  0.4437
 3980TIP3   OH233430   5.387   4.311  16.069  0.0283  0.0236 -0.2142
 3980TIP3    H133431   5.297   4.317  16.036  0.7469  1.2877 -2.0728
 3980TIP3    H233432   5.436   4.269  15.998  0.6841 -2.0540  1.3589
 3981TIP3   OH233433   5.256   1.717  14.564  0.1323  0.8201 -0.0305
 3981TIP3    H133434   5.317   1.672  14.623 -1.5511 -0.4123  0.8569
 3981TIP3    H233435   5.311   1.779  14.515  2.0294 -0.0590  0.8878
 3982TIP3   OH233436   1.095   3.551  13.920 -0.1583 -0.1367  0.3506
 3982TIP3    H133437   1.150   3.607  13.975 -1.4774  1.3570  0.2154
 3982TIP3    H233438   1.044   3.499  13.982 -0.5278  0.4294  0.5278
 3983TIP3   OH233439   6.569   2.372   3.153  0.0894 -0.6560  0.3711
 3983TIP3    H133440   6.546   2.283   3.126  1.7335 -0.9259 -0.2947
 3983TIP3    H233441   6.504   2.395   3.220 -3.7408 -0.2768 -3.0933
 3984TIP3   OH233442   5.734   2.728   1.881  0.1442  0.2661  0.0606
 3984TIP3    H133443   5.743   2.785   1.957 -1.1133  0.0651  0.3903
 3984TIP3    H233444   5.726   2.789   1.807 -0.7368  0.5319  0.3578
 3985TIP3   OH233445   2.023   5.427  16.610 -0.4883 -0.4552 -0.4120
 3985TIP3    H133446   2.028   5.379  16.692 -1.4577  0.3880  0.1686
 3985TIP3    H233447   2.106   5.474  16.604  0.5753 -2.3068 -1.1007
 3986TIP3   OH233448   1.012   5.036   2.621  0.8366 -0.7341  0.3813
 3986TIP3    H133449   0.976   4.949   2.609  0.5692 -0.8218  1.6261
 3986TIP3    H233450   1.045   5.036   2.711  2.6201 -0.1779 -0.2327
 3987TIP3   OH233451   0.998   5.532  11.211  0.4955 -0.8599 -0.3671
 3987TIP3    H133452   0.989   5.625  11.231  0.8995 -1.0038  0.5199
 3987TIP3    H233453   1.013   5.529  11.117 -0.1266 -0.0691 -0.5044
 3988TIP3   OH233454   5.903   0.231  15.118  0.5879 -0.4456  0.1447
 3988TIP3    H133455   5.912   0.223  15.023  1.0307 -1.0110  0.2317
 3988TIP3    H233456   5.991   0.253  15.148  0.4469 -0.2645  0.4264
 3989TIP3   OH233457   0.167   0.301  11.427  0.3012  0.0928 -0.6262
 3989TIP3    H133458   0.152   0.243  11.501  1.3843  0.8077  0.1858
 3989TIP3    H233459   0.220   0.249  11.366 -0.1002 -0.2961 -0.6545
 3990TIP3   OH233460   6.813   3.684  10.964 -0.2862  0.5046 -0.3312
 3990TIP3    H133461   6.734   3.700  10.912  0.3535  1.3561 -1.0727
 3990TIP3    H233462   6.881   3.736  10.921  0.8666 -0.7957 -0.1692
 3991TIP3   OH233463   3.550   5.001   4.173 -0.4626 -0.1598 -0.4332
 3991TIP3    H133464   3.586   4.969   4.256 -0.2503  0.0069 -0.4621
 3991TIP3    H233465   3.483   5.063   4.198  2.0622  2.7585 -0.3546
 3992TIP3   OH233466   3.693   3.312  11.210  1.0335 -0.6568  0.2249
 3992TIP3    H133467   3.672   3.363  11.131  1.9201  0.3105  0.6018
 3992TIP3    H233468   3.787   3.320  11.220  0.6920  1.3965  2.8248
 3993TIP3   OH233469   5.155   5.292  16.811  0.4623 -0.4862 -0.2059
 3993TIP3    H133470   5.249   5.305  16.807  0.3199  0.8300  0.2969
 3993TIP3    H233471   5.145   5.201  16.841  1.5090 -1.6693 -3.1476
 3994TIP3   OH233472   6.683   4.001  12.810 -0.5082 -0.6181 -0.0874
 3994TIP3    H133473   6.710   3.912  12.789  2.2247 -0.1619  1.0731
 3994TIP3    H233474   6.626   3.992  12.886 -1.2822 -1.4290 -0.7483
 3995TIP3   OH233475   3.926   1.350   1.986  0.7802  0.4649  0.0592
 3995TIP3    H133476   3.986   1.280   1.960 -0.5002 -0.3382 -0.8330
 3995TIP3    H233477   3.883   1.377   1.905 -0.9073  0.1933  0.8262
 3996TIP3   OH233478   6.039   6.229  16.020  0.1987 -0.0656  0.4527
 3996TIP3    H133479   6.041   6.234  15.924  0.8369 -0.1332  0.4600
 3996TIP3    H233480   5.968   6.287  16.045 -0.3595 -0.4981 -0.0925
 3997TIP3   OH233481   1.891   6.150   5.253 -0.1963  0.1238 -0.1486
 3997TIP3    H133482   1.921   6.136   5.163  1.4221  0.8398  0.2441
 3997TIP3    H233483   1.968   6.182   5.299 -1.5450  1.8821  0.9906
 3998TIP3   OH233484   0.248   5.233   0.748  0.3444 -0.1952  0.0284
 3998TIP3    H133485   0.243   5.191   0.662  1.4097 -0.6646  0.1688
 3998TIP3    H233486   0.163   5.275   0.760  0.8003  1.4630 -2.0400
 3999TIP3   OH233487   4.747   0.187   0.824  0.0042 -0.4086 -0.0779
 3999TIP3    H133488   4.813   0.211   0.760 -1.5293 -0.3680 -1.7124
 3999TIP3    H233489   4.701   0.269   0.844 -1.1830 -0.8413 -0.9195
 4000TIP3   OH233490   0.987   1.059  14.041  0.7047  0.1787  0.0746
 4000TIP3    H133491   1.064   1.115  14.043  0.9979  0.0447  4.8039
 4000TIP3    H233492   1.021   0.971  14.054 -0.1579 -0.1576  0.1253
 4001TIP3   OH233493   5.712   4.750  15.239 -1.3611 -0.2863  0.0598
 4001TIP3    H133494   5.769   4.748  15.316  0.1494 -1.1529 -1.0211
 4001TIP3    H233495   5.772   4.749  15.165 -2.7868  0.0953 -1.1388
 4002TIP3   OH233496   2.992   6.460   4.263 -0.1283  0.2004 -0.7559
 4002TIP3    H133497   2.993   6.378   4.213  0.1186 -0.7937  0.8052
 4002TIP3    H233498   3.080   6.496   4.251 -0.3183  0.3880 -1.6605
 4003TIP3   OH233499   4.511   1.376  13.391 -0.0637  0.4759  0.4133
 4003TIP3    H133500   4.582   1.427  13.430 -0.1738  0.2975  0.8568
 4003TIP3    H233501   4.552   1.330  13.318  0.3734  0.0772  0.8959
 4004TIP3   OH233502   0.686   3.098   1.722  0.2687  0.4735  0.1398
 4004TIP3    H133503   0.686   3.023   1.664  0.7065  0.6721 -0.1160
 4004TIP3    H233504   0.681   3.174   1.664  2.0659  0.7281  0.2798
 4005TIP3   OH233505   5.909   0.704  16.223 -0.2284  0.0647  0.3915
 4005TIP3    H133506   5.948   0.728  16.139 -0.2289 -0.5184  0.2150
 4005TIP3    H233507   5.912   0.608  16.224 -2.0897 -0.0432  0.1328
 4006TIP3   OH233508   1.683   0.532   4.275  1.0180  0.2023  0.2113
 4006TIP3    H133509   1.721   0.611   4.313  0.1609  0.3711  0.7304
 4006TIP3    H233510   1.592   0.554   4.258  0.3158 -1.1615  1.8938
 4007TIP3   OH233511   4.209   6.305   2.648  0.5404 -0.6068  0.0273
 4007TIP3    H133512   4.225   6.287   2.741  0.8526 -0.1151  0.0737
 4007TIP3    H233513   4.138   6.370   2.648 -1.0244 -2.2393 -0.1573
 4008TIP3   OH233514   5.716   1.432  16.944  0.3769 -0.1091 -0.2416
 4008TIP3    H133515   5.793   1.434  17.000  1.8687  0.3283 -2.2109
 4008TIP3    H233516   5.742   1.378  16.870 -1.2738 -0.0492 -0.8940
 4009TIP3   OH233517   0.631   6.105   4.249  0.2466  0.2726  0.2504
 4009TIP3    H133518   0.619   6.025   4.301  1.2215  0.5229  0.8898
 4009TIP3    H233519   0.716   6.094   4.207 -0.2516  0.3552 -0.8262
 4010TIP3   OH233520   1.779   2.959   0.322 -0.5638 -0.1070 -0.1294
 4010TIP3    H133521   1.734   3.039   0.295  0.0403  0.1489 -0.3770
 4010TIP3    H233522   1.777   2.961   0.418 -2.0000 -0.6198 -0.1181
 4011TIP3   OH233523   4.098   5.613   4.690  0.4487  0.0717 -0.2829
 4011TIP3    H133524   4.165   5.679   4.673  0.8674 -0.0147  0.9630
 4011TIP3    H233525   4.109   5.590   4.782 -0.9995 -0.2897 -0.1728
 4012TIP3   OH233526   5.666   1.564  12.671  0.4313  0.0491 -0.3331
 4012TIP3    H133527   5.620   1.606  12.598  0.2613 -0.5564 -0.5829
 4012TIP3    H233528   5.758   1.568  12.646  0.6693  2.1896  0.6391
 4013TIP3   OH233529   2.422   4.232   1.008  0.2267  0.2858  0.5274
 4013TIP3    H133530   2.342   4.199   1.049 -0.1554  0.8195  0.2170
 4013TIP3    H233531   2.489   4.222   1.076 -0.2580  0.5345  1.0488
 4014TIP3   OH233532   4.024   5.059  12.208  0.4473 -0.3206  0.3209
 4014TIP3    H133533   3.974   5.116  12.266  3.5030  2.2080  0.7569
 4014TIP3    H233534   4.097   5.029  12.262  1.5685 -0.6217 -1.2942
 4015TIP3   OH233535   3.612   2.657   2.152 -0.8886  0.2983  0.0574
 4015TIP3    H133536   3.559   2.581   2.173  0.6040 -0.3246  1.8391
 4015TIP3    H233537   3.616   2.658   2.056 -2.2990 -0.8658 -0.0426
 4016TIP3   OH233538   1.845   2.453   1.964  0.3453  0.2665  0.1188
 4016TIP3    H133539   1.798   2.483   1.886  1.1924  0.0653 -0.4776
 4016TIP3    H233540   1.788   2.387   2.003 -0.4330  0.9169  0.1042
 4017TIP3   OH233541   5.110   3.341  16.210 -0.2784 -0.2004  0.0190
 4017TIP3    H133542   5.194   3.308  16.242 -0.3674  0.2231  0.7171
 4017TIP3    H233543   5.133   3.413  16.152 -0.1548 -0.0597  0.2404
 4018TIP3   OH233544   2.452   6.628   0.744  0.5553  0.3029 -0.0577
 4018TIP3    H133545   2.525   6.567   0.739 -0.9960 -1.7106  0.7283
 4018TIP3    H233546   2.446   6.652   0.836 -0.0120  0.1379 -0.0454
 4019TIP3   OH233547   0.249   2.451  14.977 -0.0908 -0.2420 -0.0983
 4019TIP3    H133548   0.195   2.530  14.969 -1.2065 -1.0451 -0.7900
 4019TIP3    H233549   0.339   2.484  14.986 -0.6224  1.1141  0.5085
 4020TIP3   OH233550   3.042   2.168   5.380 -0.2578 -0.4381  1.0413
 4020TIP3    H133551   3.030   2.261   5.360  1.2058 -0.4210  0.0248
 4020TIP3    H233552   2.957   2.128   5.363  0.0282  0.1249 -2.4228
 4021TIP3   OH233553   2.830   0.125  16.809 -0.2418  0.1151  0.3967
 4021TIP3    H133554   2.852   0.169  16.891 -0.4401  0.5445  0.2273
 4021TIP3    H233555   2.763   0.061  16.833  0.2975 -0.3362  0.7033
 4022TIP3   OH233556   0.570   2.846   3.869  0.4482  0.1047  0.0655
 4022TIP3    H133557   0.486   2.800   3.864  0.6963 -0.6933  2.1575
 4022TIP3    H233558   0.602   2.847   3.779 -3.0565  3.0280 -1.4192
 4023TIP3   OH233559   5.114   3.403   0.035  0.1321  0.2650 -0.2288
 4023TIP3    H133560   5.134   3.416   0.128  0.4702  0.1825 -0.2905
 4023TIP3    H233561   5.088   3.311   0.029 -2.5371  0.8771  0.2590
 4024TIP3   OH233562   2.819   2.115   0.257  0.4149  0.0964  0.0485
 4024TIP3    H133563   2.806   2.043   0.196  1.5943  1.3268 -1.7347
 4024TIP3    H233564   2.912   2.111   0.280  0.2224  0.3290  0.9246
 4025TIP3   OH233565   3.735   1.105  15.635  0.0214 -0.4986  0.0636
 4025TIP3    H133566   3.729   1.096  15.730  3.2393 -0.1167  0.4124
 4025TIP3    H233567   3.733   1.199  15.620 -1.5919 -0.5804 -0.4126
 4026TIP3   OH233568   4.336   4.573   0.540  0.0460 -0.7775  0.1784
 4026TIP3    H133569   4.336   4.665   0.514 -1.2217 -1.1874 -1.4500
 4026TIP3    H233570   4.288   4.572   0.623 -0.0702  0.0158  0.1293
 4027TIP3   OH233571   2.450   6.032   6.684  0.0759 -0.3387  1.1717
 4027TIP3    H133572   2.376   5.971   6.690 -0.4401  0.1816  0.2572
 4027TIP3    H233573   2.502   6.014   6.763  0.8567 -3.1395  0.1486
 4028TIP3   OH233574   1.291   6.329   5.658 -0.2580 -0.0961  0.1502
 4028TIP3    H133575   1.240   6.249   5.645 -0.4171  0.2392 -1.5918
 4028TIP3    H233576   1.362   6.322   5.594  0.7269  0.3789  1.1606
 4029TIP3   OH233577   4.312   3.801  15.583  0.1700 -0.3563  0.5372
 4029TIP3    H133578   4.343   3.885  15.549 -0.4975 -0.9141 -1.6272
 4029TIP3    H233579   4.374   3.736  15.550 -1.6870 -1.1700 -1.6121
 4030TIP3   OH233580   4.315   3.593  12.918  0.2869  0.3226 -0.2337
 4030TIP3    H133581   4.352   3.534  12.852 -0.5534  0.7586 -1.1335
 4030TIP3    H233582   4.224   3.564  12.926 -0.1087  1.4109 -0.6117
 4031TIP3   OH233583   4.594   4.690   4.294 -0.1533 -0.3919 -0.4712
 4031TIP3    H133584   4.666   4.638   4.330 -0.3977 -1.4310 -1.4334
 4031TIP3    H233585   4.611   4.779   4.325  1.4018 -0.6629 -0.4679
 4032TIP3   OH233586   6.333   6.801   2.184 -0.3606  0.1226  0.1547
 4032TIP3    H133587   6.254   6.758   2.152 -0.6376  0.2340  0.6742
 4032TIP3    H233588   6.333   6.786   2.278  0.1119  0.3324  0.1956
 4033TIP3   OH233589   1.161   3.998  13.886  0.0359 -0.9467  0.0785
 4033TIP3    H133590   1.155   3.902  13.878  0.4841 -1.1506  1.7564
 4033TIP3    H233591   1.120   4.016  13.971 -0.4907  0.4196 -0.4477
 4034TIP3   OH233592   3.448   4.628  14.149  0.0105  0.2547 -0.0865
 4034TIP3    H133593   3.482   4.628  14.239 -0.6475  0.2610  0.1668
 4034TIP3    H233594   3.526   4.623  14.094  0.3661 -1.9441  0.5255
 4035TIP3   OH233595   5.075   3.323  12.959 -0.7828  0.5717  0.5107
 4035TIP3    H133596   5.007   3.295  13.020 -0.1712  0.5080  1.1733
 4035TIP3    H233597   5.062   3.269  12.881 -0.7311 -0.2993  1.0962
 4036TIP3   OH233598   4.506   6.330   5.338 -0.0188 -1.0458  0.0181
 4036TIP3    H133599   4.533   6.292   5.254 -0.6435 -0.4902 -0.4440
 4036TIP3    H233600   4.586   6.329   5.391  0.7079 -0.2749 -1.0176
 4037TIP3   OH233601   6.218   1.342   4.781 -0.1961  0.1870  1.0318
 4037TIP3    H133602   6.280   1.311   4.715 -0.1688  0.4345  0.9409
 4037TIP3    H233603   6.263   1.329   4.864 -0.1919 -0.0341  0.9956
 4038TIP3   OH233604   1.163   3.812   0.156  0.5395  0.5412 -0.2422
 4038TIP3    H133605   1.193   3.729   0.119  1.2328  0.5831  0.2123
 4038TIP3    H233606   1.189   3.808   0.248  1.5564  1.7300 -0.4642
 4039TIP3   OH233607   4.130   6.070  13.450 -0.1532  0.0274  0.5679
 4039TIP3    H133608   4.169   6.157  13.443 -0.0247 -0.1523 -1.4260
 4039TIP3    H233609   4.201   6.014  13.483  0.7340  0.0900 -1.1487
 4040TIP3   OH233610   6.208   1.517  10.616 -0.0754 -0.2030 -0.1961
 4040TIP3    H133611   6.255   1.598  10.638 -1.0480  1.0846 -2.4962
 4040TIP3    H233612   6.276   1.456  10.590  0.5717  0.5227 -0.2461
 4041TIP3   OH233613   3.200   2.499   5.955  0.0438 -0.0075 -0.3223
 4041TIP3    H133614   3.167   2.413   5.980  0.3028  0.0747  0.3265
 4041TIP3    H233615   3.283   2.507   6.001 -0.3823  0.9366  0.3249
 4042TIP3   OH233616   4.802   5.852   3.897  0.2694 -1.1761 -0.2584
 4042TIP3    H133617   4.882   5.831   3.849  1.2498 -1.0910  1.2564
 4042TIP3    H233618   4.733   5.806   3.849  1.2501 -1.4808 -1.4481
 4043TIP3   OH233619   5.422   1.919   3.795  0.4325 -0.4804  0.1668
 4043TIP3    H133620   5.380   1.917   3.709  1.1714  0.9937 -0.2498
 4043TIP3    H233621   5.515   1.926   3.776  0.4721  2.3057  1.0327
 4044TIP3   OH233622   2.127   4.094   1.383 -0.9017 -0.0603  0.2367
 4044TIP3    H133623   2.045   4.081   1.432 -0.1200 -0.7467  1.4115
 4044TIP3    H233624   2.196   4.079   1.447  0.1611  0.5695 -0.7249
 4045TIP3   OH233625   0.971   2.678  12.717 -0.7172  0.7837  0.2134
 4045TIP3    H133626   0.941   2.636  12.798 -1.5355 -1.4219 -1.1315
 4045TIP3    H233627   1.066   2.677  12.723 -0.7523 -0.1116  0.7948
 4046TIP3   OH233628   1.770   6.560   1.772  0.3222  0.0588 -0.0622
 4046TIP3    H133629   1.684   6.530   1.803  0.9388 -1.6957  0.0433
 4046TIP3    H233630   1.776   6.526   1.683  1.4592 -1.0092  0.4084
 4047TIP3   OH233631   3.498   4.676   4.860  0.0921 -0.3791  0.5358
 4047TIP3    H133632   3.509   4.613   4.788 -1.1027  0.1988 -0.1727
 4047TIP3    H233633   3.560   4.646   4.927  0.2100 -1.7639 -0.1543
 4048TIP3   OH233634   4.093   3.774  15.762 -0.5972  0.6798 -0.0164
 4048TIP3    H133635   4.128   3.748  15.847 -1.3522 -2.4697 -0.5207
 4048TIP3    H233636   4.169   3.790  15.707 -0.0370 -0.2157  0.4816
 4049TIP3   OH233637   5.806   4.409  11.780 -0.6537 -0.4235  0.5172
 4049TIP3    H133638   5.810   4.391  11.686 -0.2835 -0.5334  0.5504
 4049TIP3    H233639   5.713   4.423  11.798 -0.5976  0.8944 -0.1019
 4050TIP3   OH233640   4.444   6.538  13.663 -0.5836  0.1786  0.0972
 4050TIP3    H133641   4.480   6.568  13.747  2.6064  0.4522 -1.2374
 4050TIP3    H233642   4.503   6.467  13.636 -0.6251  1.0694 -2.5774
 4051TIP3   OH233643   0.034   4.583   0.865  0.3784  0.0721  0.5654
 4051TIP3    H133644   0.030   4.492   0.894 -0.4661  0.0359  0.3753
 4051TIP3    H233645  -0.004   4.634   0.937  2.7847  0.5376  1.5922
 4052TIP3   OH233646   6.446   3.774   2.858  0.0770  0.2986 -0.1438
 4052TIP3    H133647   6.412   3.861   2.835 -0.1777  0.0592 -0.6659
 4052TIP3    H233648   6.487   3.787   2.944 -0.0724  0.9074 -0.1604
 4053TIP3   OH233649   3.216   0.456  14.721  0.2224  0.0775 -0.1546
 4053TIP3    H133650   3.188   0.365  14.712  1.6017 -0.1365 -3.7608
 4053TIP3    H233651   3.161   0.505  14.660 -1.4174  2.0630  2.6373
 4054TIP3   OH233652   3.471   3.925  11.010 -0.1930 -0.7484  0.2378
 4054TIP3    H133653   3.466   3.889  10.922  1.3661 -2.0278  0.6324
 4054TIP3    H233654   3.439   4.015  11.001  2.2962  0.0149 -2.1658
 4055TIP3   OH233655   6.699   0.316  15.467  0.2558  0.2735 -0.2043
 4055TIP3    H133656   6.789   0.310  15.498 -0.5473 -0.5968  2.2808
 4055TIP3    H233657   6.656   0.238  15.503 -1.2982  0.1596 -2.1197
 4056TIP3   OH233658   4.515   5.770  11.584  0.7357  0.1032  0.1513
 4056TIP3    H133659   4.595   5.823  11.585  1.7329 -1.1622  3.6348
 4056TIP3    H233660   4.445   5.832  11.564  2.2334  1.9991  0.5082
 4057TIP3   OH233661   6.463   5.967   5.638  0.5207  0.2161 -0.6436
 4057TIP3    H133662   6.428   6.056   5.641  0.3537  0.1391 -0.2301
 4057TIP3    H233663   6.386   5.911   5.639  0.6253  0.0624 -0.9065
 4058TIP3   OH233664   5.243   4.069   5.203 -0.2290 -0.0014  0.7176
 4058TIP3    H133665   5.285   4.060   5.289 -0.5582  0.5899  0.9398
 4058TIP3    H233666   5.299   4.018   5.144 -0.8344 -1.6957  1.5431
 4059TIP3   OH233667   6.734   5.155  16.441 -0.1775 -0.4434 -0.1890
 4059TIP3    H133668   6.779   5.210  16.377 -0.6408  0.3095  0.1188
 4059TIP3    H233669   6.713   5.075  16.393  0.3095 -0.2676 -0.7068
 4060TIP3   OH233670   0.465   6.485  12.256  0.2700  0.3323  0.3417
 4060TIP3    H133671   0.498   6.468  12.167  0.4491  0.5072  0.3743
 4060TIP3    H233672   0.496   6.410  12.307  0.1912  0.2453  0.2622
 4061TIP3   OH233673   1.638   3.825   5.745  0.0050  0.0504  0.1054
 4061TIP3    H133674   1.603   3.771   5.674  2.2443  0.9973 -1.8421
 4061TIP3    H233675   1.605   3.913   5.726 -0.1133  0.1636  0.7932
 4062TIP3   OH233676   2.015   4.311  16.792  0.2071  0.3084 -0.1861
 4062TIP3    H133677   1.964   4.252  16.848  0.6223  0.2807  0.1699
 4062TIP3    H233678   1.953   4.379  16.766  0.1039  0.5378  0.6322
 4063TIP3   OH233679   0.080   3.353  13.833 -0.1095  0.0479 -0.9186
 4063TIP3    H133680  -0.008   3.383  13.857 -2.7541 -4.9157 -3.0079
 4063TIP3    H233681   0.105   3.408  13.758 -3.2387 -0.6220 -2.6251
 4064TIP3   OH233682   1.450   2.084   3.783 -0.2128 -0.1432  0.1854
 4064TIP3    H133683   1.499   2.037   3.851  0.5398 -2.3657 -1.7670
 4064TIP3    H233684   1.364   2.042   3.783  0.5095 -1.7429 -1.6716
 4065TIP3   OH233685   4.107   1.748  10.835  0.0429 -0.0724 -0.1886
 4065TIP3    H133686   4.098   1.805  10.911 -1.0307  1.4825 -1.4022
 4065TIP3    H233687   4.198   1.719  10.837  0.5222  1.3772  0.7124
 4066TIP3   OH233688   2.538   1.563  13.801 -0.2202  0.6889  0.3675
 4066TIP3    H133689   2.598   1.596  13.867  0.5500  0.5541 -0.2518
 4066TIP3    H233690   2.550   1.622  13.726 -0.4805  0.3582  0.0602
 4067TIP3   OH233691   5.352   2.873   2.587  0.0648 -0.0657  0.1182
 4067TIP3    H133692   5.305   2.832   2.514 -0.8794 -0.9867  1.2047
 4067TIP3    H233693   5.321   2.963   2.589 -0.4563 -0.2381 -0.1677
 4068TIP3   OH233694   6.045   1.277   5.843 -0.1972 -0.1897  0.0586
 4068TIP3    H133695   5.969   1.225   5.870 -0.6117  1.0562  1.4602
 4068TIP3    H233696   6.113   1.213   5.825 -0.9590 -1.2494  0.8119
 4069TIP3   OH233697   0.535   1.103   0.590  0.0355  0.0289 -0.2377
 4069TIP3    H133698   0.503   1.188   0.622  1.1457  0.1921  0.4874
 4069TIP3    H233699   0.557   1.055   0.669 -0.7587 -1.0253 -0.6398
 4070TIP3   OH233700   1.887   1.960  16.565 -0.2217 -0.2437  0.2002
 4070TIP3    H133701   1.939   2.024  16.517 -0.5409 -0.7448 -0.8407
 4070TIP3    H233702   1.818   2.012  16.607  1.3281  0.4876  1.9765
 4071TIP3   OH233703   1.436   0.161   0.568 -0.6513  0.1319  0.0252
 4071TIP3    H133704   1.458   0.204   0.651  1.1533 -0.9333  0.1487
 4071TIP3    H233705   1.398   0.230   0.514 -0.5177  1.1782  1.2238
 4072TIP3   OH233706   0.007   4.114  11.247  0.7379  0.2774  0.0477
 4072TIP3    H133707   0.008   4.018  11.254 -0.1801  0.1678 -1.0197
 4072TIP3    H233708   0.059   4.144  11.321  1.2647 -1.0599  0.2466
 4073TIP3   OH233709   4.115   5.058  11.322  0.0529  0.6802  0.1100
 4073TIP3    H133710   4.148   5.084  11.408  2.2078  0.3315 -0.5766
 4073TIP3    H233711   4.022   5.040  11.337 -0.0333  2.3089  1.9849
 4074TIP3   OH233712   0.407   3.287  15.561  0.2731  0.9400 -0.3676
 4074TIP3    H133713   0.433   3.379  15.562  0.1052  1.0010 -0.9276
 4074TIP3    H233714   0.488   3.238  15.573  0.7462  1.1109 -2.4087
 4075TIP3   OH233715   0.143   2.459  16.166  0.0084 -0.4544 -0.1014
 4075TIP3    H133716   0.069   2.518  16.182 -0.1086 -1.1682  2.5236
 4075TIP3    H233717   0.109   2.371  16.183  1.2632 -0.8575  0.4889
 4076TIP3   OH233718   4.935   0.644  13.130  0.4157  0.4768 -0.1704
 4076TIP3    H133719   4.961   0.589  13.055 -1.0571 -1.4794  0.6552
 4076TIP3    H233720   4.977   0.603  13.205 -0.1982  0.8568  0.3927
 4077TIP3   OH233721   6.529   6.428   0.150  0.1665  0.2728 -0.0357
 4077TIP3    H133722   6.536   6.500   0.087 -0.6189 -0.7886 -1.3970
 4077TIP3    H233723   6.531   6.349   0.097 -0.9510 -0.6573  1.2293
 4078TIP3   OH233724   4.161   1.337  14.569  0.0572  0.0661 -0.1143
 4078TIP3    H133725   4.233   1.293  14.613 -1.0130  0.2792  1.9492
 4078TIP3    H233726   4.154   1.293  14.484  0.4658 -2.2280  0.9774
 4079TIP3   OH233727   6.444   4.983   4.932  0.1389  0.0339  0.2345
 4079TIP3    H133728   6.377   5.023   4.877  0.2158  0.3792  0.3925
 4079TIP3    H233729   6.395   4.929   4.994 -0.1215  1.6070  1.4573
 4080TIP3   OH233730   5.925   2.390  10.645  0.2526 -0.0972  0.1667
 4080TIP3    H133731   5.904   2.420  10.557 -1.7670 -1.8546 -0.0496
 4080TIP3    H233732   6.012   2.351  10.637 -0.2700 -1.0606 -1.3188
 4081TIP3   OH233733   6.378   6.435  13.060  0.4035 -0.2237 -0.6219
 4081TIP3    H133734   6.395   6.442  12.966  2.4203  2.3246 -0.1845
 4081TIP3    H233735   6.319   6.360  13.068 -2.3805  1.2904 -4.1988
 4082TIP3   OH233736   1.372   4.805   1.713 -0.3435  0.8917 -0.2130
 4082TIP3    H133737   1.426   4.781   1.638  0.2639  0.8088  0.2419
 4082TIP3    H233738   1.394   4.896   1.731 -0.2475  0.8204  0.0508
 4083TIP3   OH233739   1.727   3.365   1.879 -0.1062 -0.3462 -0.0254
 4083TIP3    H133740   1.691   3.334   1.796  0.1225  0.8184 -0.5862
 4083TIP3    H233741   1.713   3.460   1.877  0.3125 -0.2458  1.0683
 4084TIP3   OH233742   0.472   2.471  13.583 -0.5492  0.8007  0.4612
 4084TIP3    H133743   0.550   2.474  13.639 -0.2912  3.0370  0.0781
 4084TIP3    H233744   0.486   2.395  13.527  1.0181  0.7438  0.8794
 4085TIP3   OH233745   0.951   2.090  14.041 -0.7665 -0.9346  0.1752
 4085TIP3    H133746   0.929   1.997  14.041 -0.6975 -0.9523 -0.4076
 4085TIP3    H233747   0.999   2.104  13.959  0.3853 -0.6641  0.8721
 4086TIP3   OH233748   1.698   1.967   5.637 -0.3651  0.0566  0.4943
 4086TIP3    H133749   1.662   2.055   5.653 -0.2987  0.1403  0.1872
 4086TIP3    H233750   1.707   1.962   5.542 -0.5733 -0.3642  0.4955
 4087TIP3   OH233751   5.121   3.005  11.052 -0.8248 -0.0579  0.3289
 4087TIP3    H133752   5.185   3.039  10.989 -0.1157 -0.5569  0.7624
 4087TIP3    H233753   5.100   2.917  11.019 -1.0251 -0.0288  0.3766
 4088TIP3   OH233754   3.029   5.966  12.426 -0.0858 -0.2518  0.1792
 4088TIP3    H133755   2.944   5.943  12.388  0.2770  1.5271 -1.8803
 4088TIP3    H233756   3.007   6.016  12.505 -0.9579 -0.2054 -0.0844
 4089TIP3   OH233757   2.278   0.369  15.761  0.3079 -0.4304 -0.7166
 4089TIP3    H133758   2.295   0.321  15.842  0.9763  0.8763 -0.0439
 4089TIP3    H233759   2.358   0.360  15.710 -0.3468 -1.8054 -1.5664
 4090TIP3   OH233760   1.965   2.715   6.110  0.4182  0.0990  0.4065
 4090TIP3    H133761   1.960   2.795   6.164  1.1938 -0.7340  1.7664
 4090TIP3    H233762   2.055   2.685   6.119  0.3531 -0.4973 -0.7577
 4091TIP3   OH233763   2.487   6.148   5.631 -0.1199  1.0000 -0.3928
 4091TIP3    H133764   2.419   6.108   5.685  0.5056  1.1079  0.4884
 4091TIP3    H233765   2.449   6.150   5.543 -0.6584 -0.3666 -0.2214
 4092TIP3   OH233766   2.162   4.863  13.234 -0.7474 -0.7368  0.2327
 4092TIP3    H133767   2.170   4.958  13.224 -1.3009 -0.7651 -0.6121
 4092TIP3    H233768   2.243   4.828  13.197 -0.2790 -0.5797  1.0808
 4093TIP3   OH233769   0.673   4.278  10.984 -0.7044  0.1541 -0.4394
 4093TIP3    H133770   0.655   4.360  10.939 -0.1245 -0.1488 -1.2398
 4093TIP3    H233771   0.601   4.220  10.958 -1.3137  0.5001  0.4119
 4094TIP3   OH233772   6.752   2.129   5.836  0.4504 -0.6158  0.0709
 4094TIP3    H133773   6.767   2.038   5.860 -1.0324 -1.3040 -1.3559
 4094TIP3    H233774   6.798   2.180   5.902  1.4763 -2.3965  0.7880
 4095TIP3   OH233775   2.367   5.207  13.626 -0.2056 -0.4574  0.0146
 4095TIP3    H133776   2.428   5.278  13.604 -0.8230 -0.3090 -1.3635
 4095TIP3    H233777   2.340   5.226  13.715 -1.0109  1.5770 -0.5997
 4096TIP3   OH233778   0.021   6.254  12.678 -0.0901  0.5476 -0.1432
 4096TIP3    H133779   0.045   6.220  12.591 -1.2744 -4.8621  1.2267
 4096TIP3    H233780  -0.060   6.207  12.700  0.6461  0.8984  4.1959
 4097TIP3   OH233781   6.122   3.430  10.877 -0.8560 -0.0631  0.3551
 4097TIP3    H133782   6.143   3.465  10.790 -0.9578  2.6361  1.3266
 4097TIP3    H233783   6.026   3.432  10.881 -0.8301  0.8320  0.8647
 4098TIP3   OH233784   3.871   4.315   1.949 -0.4932  0.0434 -0.7690
 4098TIP3    H133785   3.909   4.274   2.027 -0.7882  2.2657  0.6129
 4098TIP3    H233786   3.784   4.343   1.977 -0.5961  0.9005 -1.9046
 4099TIP3   OH233787   4.748   0.727  12.892 -0.1477  0.1491 -0.3583
 4099TIP3    H133788   4.805   0.760  12.961 -0.1230 -0.6816  0.0383
 4099TIP3    H233789   4.659   0.739  12.926 -0.1704  0.5123 -0.5435
 4100TIP3   OH233790   6.407   3.511   4.628  0.3548 -0.6821 -0.0242
 4100TIP3    H133791   6.385   3.463   4.708 -0.0553 -1.5465 -0.6390
 4100TIP3    H233792   6.419   3.443   4.561  0.1941  0.0469 -0.8150
 4101TIP3   OH233793   4.549   6.564   0.984  0.5670 -0.5142 -0.1243
 4101TIP3    H133794   4.597   6.536   1.062  0.9798  0.5790  0.0236
 4101TIP3    H233795   4.562   6.659   0.979 -2.6586  0.0753  0.6512
 4102TIP3   OH233796   4.231   0.439  12.075 -0.0512  0.3005  0.2133
 4102TIP3    H133797   4.176   0.491  12.016 -0.2836 -1.3451 -1.0814
 4102TIP3    H233798   4.202   0.465  12.163  0.8991  3.4469 -0.2804
 4103TIP3   OH233799   5.492   0.128  13.182  0.1231 -0.0198  0.0329
 4103TIP3    H133800   5.527   0.069  13.116  2.3845 -0.8012  1.7865
 4103TIP3    H233801   5.422   0.079  13.224 -0.6521  0.1044 -1.0995
 4104TIP3   OH233802   0.177   4.098  13.036  0.2528  0.1940  0.0220
 4104TIP3    H133803   0.166   4.076  12.944 -1.6708 -1.0014  0.4733
 4104TIP3    H233804   0.205   4.016  13.077 -1.9301 -0.1707  0.9275
 4105TIP3   OH233805   6.537   3.029   6.193  0.0684  0.4459 -0.5266
 4105TIP3    H133806   6.589   2.950   6.202  0.1724  0.1437 -3.0536
 4105TIP3    H233807   6.452   3.006   6.230  0.1068 -0.8810 -1.1912
 4106TIP3   OH233808   2.274   0.927  13.868 -0.3416  0.1492 -0.5176
 4106TIP3    H133809   2.318   0.981  13.934 -2.6335  0.4145  0.8882
 4106TIP3    H233810   2.346   0.880  13.825  1.2746 -0.3566  2.4538
 4107TIP3   OH233811   0.253   6.574  14.481  0.0090  0.1048  0.2673
 4107TIP3    H133812   0.288   6.596  14.567 -1.1716  1.6435  0.4012
 4107TIP3    H233813   0.197   6.497  14.497  0.4345 -0.1235  0.7047
 4108TIP3   OH233814   3.359   2.628  12.796  0.2447 -0.7218 -0.0260
 4108TIP3    H133815   3.290   2.617  12.861  0.4383 -0.6188  0.1974
 4108TIP3    H233816   3.352   2.550  12.740 -0.4812 -0.3925 -0.4092
 4109TIP3   OH233817   5.021   0.962   6.063 -0.0822  0.1929 -0.6148
 4109TIP3    H133818   4.959   0.891   6.053  1.1247 -0.9466 -0.3277
 4109TIP3    H233819   4.972   1.041   6.041 -1.7799 -0.5906  0.2025
 4110TIP3   OH233820   5.404   6.333   2.833 -0.4427 -0.0292  0.1523
 4110TIP3    H133821   5.464   6.329   2.908  1.9695 -1.2481 -1.7098
 4110TIP3    H233822   5.410   6.424   2.803  0.5638 -0.1395 -0.0336
 4111TIP3   OH233823   6.766   1.897  10.690 -0.0235 -0.2385  0.2669
 4111TIP3    H133824   6.712   1.889  10.769 -0.0547  0.2471  0.2950
 4111TIP3    H233825   6.724   1.839  10.627  0.2483 -0.9673  0.7373
 4112TIP3   OH233826   5.963   0.901   4.660 -0.2653 -0.6327 -0.7085
 4112TIP3    H133827   6.056   0.922   4.663 -0.2978 -0.5578  0.4690
 4112TIP3    H233828   5.960   0.811   4.629  0.3138 -1.1015  0.4909
 4113TIP3   OH233829   1.887   0.365   0.425 -0.1031 -0.0686  1.0708
 4113TIP3    H133830   1.890   0.427   0.498 -0.0452 -0.4710  1.4170
 4113TIP3    H233831   1.973   0.323   0.426  0.0220  0.1624  0.5523
 4114TIP3   OH233832   4.500   6.562   2.096 -0.0341 -0.0431  0.0242
 4114TIP3    H133833   4.566   6.598   2.155 -0.4014  0.0153  0.4061
 4114TIP3    H233834   4.462   6.489   2.145 -0.0127 -0.2955 -0.3322
 4115TIP3   OH233835   2.668   0.033  13.934 -0.1886 -0.0288 -0.6634
 4115TIP3    H133836   2.688  -0.019  13.856 -0.0593  0.7382 -1.1571
 4115TIP3    H233837   2.630  -0.029  13.996  2.0017 -1.1745 -0.3926
 4116TIP3   OH233838   0.133   2.098   4.277 -0.2527 -0.9793  0.2617
 4116TIP3    H133839   0.145   2.015   4.325  0.7858  0.2874  2.3397
 4116TIP3    H233840   0.141   2.165   4.345 -4.0840  0.7752 -0.7764
 4117TIP3   OH233841   1.309   5.650  13.178  0.0458  0.4234 -0.2246
 4117TIP3    H133842   1.344   5.738  13.167  0.3159  0.3971  0.3765
 4117TIP3    H233843   1.312   5.612  13.090 -1.1058  1.3821 -0.6927
 4118TIP3   OH233844   0.168   1.829   1.625 -0.3821  0.3861 -0.0307
 4118TIP3    H133845   0.118   1.851   1.546 -0.4996 -0.0413 -0.0801
 4118TIP3    H233846   0.252   1.871   1.613 -0.1080 -0.3402 -0.7677
 4119TIP3   OH233847   2.223   3.965   2.057  0.1463  0.4690  0.1597
 4119TIP3    H133848   2.166   3.894   2.029  0.5328  0.3898 -0.4313
 4119TIP3    H233849   2.232   3.953   2.152 -0.0260 -0.0948  0.1049
 4120TIP3   OH233850   4.387   4.996  15.779 -0.1131 -0.2253  0.4199
 4120TIP3    H133851   4.482   5.010  15.772 -0.1703  0.4367  0.8603
 4120TIP3    H233852   4.357   5.067  15.835 -1.0110  0.1327 -0.4920
 4121TIP3   OH233853   0.468   5.940  15.302 -0.2270  0.3224  0.3214
 4121TIP3    H133854   0.489   5.846  15.304 -0.8746  0.1217 -1.1073
 4121TIP3    H233855   0.451   5.962  15.394  0.2183 -0.8936  0.7221
 4122TIP3   OH233856   0.158   1.148  16.139  0.3031  0.4319  0.0210
 4122TIP3    H133857   0.134   1.057  16.160 -2.2124  1.0571  0.2559
 4122TIP3    H233858   0.130   1.198  16.215  2.9734  1.3023  0.5062
 4123TIP3   OH233859   0.941   4.780  16.403 -0.3107 -0.0947 -0.9719
 4123TIP3    H133860   0.899   4.706  16.447  0.6905  0.6683  1.4050
 4123TIP3    H233861   0.870   4.843  16.389 -0.2620  0.9739  2.5444
 4124TIP3   OH233862   4.487   4.312  14.455 -0.2013 -0.3043  0.1861
 4124TIP3    H133863   4.560   4.251  14.441 -2.0075 -2.6112  0.0766
 4124TIP3    H233864   4.501   4.346  14.544  0.8647 -0.9155  0.2711
 4125TIP3   OH233865   5.698   1.018  12.980  0.2509 -0.6158  0.5118
 4125TIP3    H133866   5.776   0.995  12.931  0.0680  0.0840 -0.1283
 4125TIP3    H233867   5.716   1.106  13.014  0.0900 -0.8051  1.0998
 4126TIP3   OH233868   4.507   0.840  15.324 -0.6626  0.1619 -0.7840
 4126TIP3    H133869   4.418   0.806  15.337 -0.5290  0.0158 -0.2036
 4126TIP3    H233870   4.495   0.926  15.283 -1.1407  0.7571  0.5463
 4127TIP3   OH233871   0.400   1.348   1.187 -0.6810  0.3117 -0.4482
 4127TIP3    H133872   0.429   1.426   1.234  0.1796  0.7628 -1.6821
 4127TIP3    H233873   0.374   1.287   1.256  0.5659  0.9333  0.6203
 4128TIP3   OH233874   6.727   2.810  14.870  0.0038 -0.2667 -0.1978
 4128TIP3    H133875   6.740   2.777  14.959  0.5025  0.9001  0.1787
 4128TIP3    H233876   6.771   2.895  14.870  0.6273 -0.5680 -1.7709
 4129TIP3   OH233877   4.626   1.108   0.426  0.2143  0.3420  0.3149
 4129TIP3    H133878   4.713   1.083   0.457 -0.2375 -1.6189  0.1489
 4129TIP3    H233879   4.573   1.115   0.506  0.2754  0.4087  0.3484
 4130TIP3   OH233880   3.861   3.032   0.328  0.1788  0.2540  0.0481
 4130TIP3    H133881   3.856   3.067   0.418  1.7667  0.5650  0.0523
 4130TIP3    H233882   3.927   3.087   0.286  0.9859 -1.2388 -0.6767
 4131TIP3   OH233883   5.793   2.118  15.586  0.0957 -0.1620  0.4385
 4131TIP3    H133884   5.874   2.068  15.599 -0.3273 -1.6502 -1.9404
 4131TIP3    H233885   5.724   2.051  15.581 -0.5756  0.6006 -2.2777
 4132TIP3   OH233886   0.764   2.014   3.928 -0.0374  0.0459 -0.0260
 4132TIP3    H133887   0.818   1.938   3.952 -0.0878  0.0492  0.1000
 4132TIP3    H233888   0.752   2.062   4.011 -1.6547 -0.8438  0.2908
 4133TIP3   OH233889   4.292   2.769   1.484  0.0667  0.1128 -0.5344
 4133TIP3    H133890   4.207   2.794   1.522 -0.6736 -1.9083 -0.7781
 4133TIP3    H233891   4.286   2.796   1.392  0.2236  1.1554 -0.2548
 4134TIP3   OH233892   3.467   6.507  15.449  0.0377 -0.4385 -0.3691
 4134TIP3    H133893   3.541   6.557  15.414 -0.9120  1.1921 -0.1615
 4134TIP3    H233894   3.452   6.544  15.536 -1.1979 -0.5179 -0.5287
 4135TIP3   OH233895   6.474   3.987   3.457  0.1928 -1.0637  0.1510
 4135TIP3    H133896   6.458   4.075   3.491  2.1408  0.3570 -2.2783
 4135TIP3    H233897   6.395   3.938   3.479  0.4240  0.2117  4.6317
 4136TIP3   OH233898   4.471   6.362  16.512  0.6504  0.3509  0.0762
 4136TIP3    H133899   4.507   6.310  16.583 -0.0262 -1.0455 -0.5622
 4136TIP3    H233900   4.500   6.318  16.432 -1.4773 -0.2235 -0.4642
 4137TIP3   OH233901   1.900   5.208  15.464  0.1735 -0.3775 -0.8594
 4137TIP3    H133902   1.926   5.300  15.466 -0.7607 -0.1089 -0.0273
 4137TIP3    H233903   1.925   5.178  15.377  0.1606  0.7639 -1.2758
 4138TIP3   OH233904   3.606   1.982   0.999 -0.1528 -0.0497 -0.2457
 4138TIP3    H133905   3.678   1.980   1.062 -1.8660  0.6332  1.8400
 4138TIP3    H233906   3.568   1.895   1.002 -0.7854  0.2379  0.3707
 4139TIP3   OH233907   1.094   1.978   2.175 -0.3429  0.5421 -0.1125
 4139TIP3    H133908   1.178   2.021   2.185  1.4919 -2.3112 -1.7246
 4139TIP3    H233909   1.084   1.927   2.256  0.7697 -1.0152 -0.9088
 4140TIP3   OH233910   2.922   6.711  12.530 -0.2595  0.0007 -0.5826
 4140TIP3    H133911   2.894   6.746  12.445 -2.0683 -0.1655 -0.0989
 4140TIP3    H233912   2.926   6.788  12.587 -1.4495 -0.1844 -0.2278
 4141TIP3   OH233913   1.705   1.551   2.843  0.3065  0.4027 -0.5803
 4141TIP3    H133914   1.638   1.544   2.775  0.6425 -1.2433 -0.7758
 4141TIP3    H233915   1.705   1.465   2.885  1.9650  0.5370 -0.2705
 4142TIP3   OH233916   1.308   5.768  16.087  0.6862 -0.2078 -0.1731
 4142TIP3    H133917   1.351   5.708  16.148  0.6019  0.5389  0.6416
 4142TIP3    H233918   1.367   5.843  16.082  0.3108  0.0734 -0.4049
 4143TIP3   OH233919   4.472   3.910   3.093  0.0487 -0.6996 -0.1455
 4143TIP3    H133920   4.414   3.880   3.163  0.6706 -0.0551  0.6540
 4143TIP3    H233921   4.520   3.983   3.131  1.3684 -1.1964 -0.8045
 4144TIP3   OH233922   2.865   4.859   0.043 -0.7577  0.4574 -0.1127
 4144TIP3    H133923   2.893   4.920  -0.025 -2.1406  0.7256 -0.4831
 4144TIP3    H233924   2.852   4.914   0.120 -0.1994  0.3220  0.0793
 4145TIP3   OH233925   1.336   4.314  12.277 -0.8729  0.1076 -0.1234
 4145TIP3    H133926   1.313   4.403  12.251 -2.1399 -0.2120 -0.1491
 4145TIP3    H233927   1.332   4.264  12.196  0.2102  0.0782 -0.1760
 4146TIP3   OH233928   3.806   2.368   0.195  0.2282 -0.1280  0.4483
 4146TIP3    H133929   3.757   2.286   0.198 -0.2738  0.1268 -0.4115
 4146TIP3    H233930   3.897   2.342   0.209  0.3041 -1.0641 -1.4973
 4147TIP3   OH233931   2.831   6.607  13.179  0.1400  0.3662  0.2839
 4147TIP3    H133932   2.909   6.646  13.139 -0.4835  0.6228 -0.7194
 4147TIP3    H233933   2.812   6.531  13.124  0.9982 -1.0512  1.8728
 4148TIP3   OH233934   1.275   2.949  11.404 -0.1036  0.3096 -0.0090
 4148TIP3    H133935   1.370   2.947  11.414  0.0227  1.0929 -0.9143
 4148TIP3    H233936   1.254   2.871  11.352  0.3009  1.2127 -1.5953
 4149TIP3   OH233937   0.768   5.049  11.169  0.0769  0.3377  0.0626
 4149TIP3    H133938   0.798   5.044  11.078 -0.0450 -0.7893  0.0738
 4149TIP3    H233939   0.845   5.078  11.217  0.9238 -1.5289 -0.0614
 4150TIP3   OH233940   3.165   6.708   2.328  0.4921  0.1281 -0.0937
 4150TIP3    H133941   3.079   6.669   2.312 -0.0223  0.8096  0.8783
 4150TIP3    H233942   3.146   6.797   2.359  1.5270  0.1739  0.4797
 4151TIP3   OH233943   4.236   2.341  12.031 -0.0051 -0.1797 -0.2598
 4151TIP3    H133944   4.256   2.427  11.995  2.4935 -1.3906 -2.1815
 4151TIP3    H233945   4.262   2.280  11.961 -1.1630 -2.5078  1.2082
 4152TIP3   OH233946   3.499   6.419   3.444  0.0204  0.4967  0.2608
 4152TIP3    H133947   3.492   6.513   3.430  0.2401  0.7889  1.8449
 4152TIP3    H233948   3.551   6.411   3.524 -2.4510 -0.8295  1.8953
 4153TIP3   OH233949   6.746   0.889   1.773 -0.3225 -0.2289 -0.2092
 4153TIP3    H133950   6.783   0.933   1.697  0.0211 -0.6290 -0.2807
 4153TIP3    H233951   6.821   0.872   1.830 -0.6263  0.3618  0.3713
 4154TIP3   OH233952   2.871   4.309   1.649  0.3171  0.4621 -0.4959
 4154TIP3    H133953   2.813   4.233   1.651  0.5449  0.2986 -0.1278
 4154TIP3    H233954   2.909   4.314   1.737 -0.0927  1.3118 -0.3595
 4155TIP3   OH233955   0.413   3.996   5.822  0.6275  0.2310 -0.7546
 4155TIP3    H133956   0.475   4.051   5.871  0.3347  0.0504 -0.1779
 4155TIP3    H233957   0.331   4.045   5.824  0.3412 -0.2705 -0.1574
 4156TIP3   OH233958   5.500   6.544  16.133 -0.4251 -0.3968  0.0758
 4156TIP3    H133959   5.589   6.574  16.114 -0.7020 -0.1556 -0.9203
 4156TIP3    H233960   5.493   6.547  16.228 -0.3049  2.4053  0.0785
 4157TIP3   OH233961   0.402   5.189   2.847 -0.3320  0.6258  0.8016
 4157TIP3    H133962   0.357   5.105   2.858  0.2635 -0.0836 -1.4462
 4157TIP3    H233963   0.333   5.254   2.849 -1.2087 -0.2262 -0.2426
 4158TIP3   OH233964   6.371   1.646  14.112  0.0567 -0.6615 -0.2137
 4158TIP3    H133965   6.447   1.597  14.080  0.7796  1.4332 -1.8858
 4158TIP3    H233966   6.399   1.737  14.111 -1.7923 -0.0171  1.2575
 4159TIP3   OH233967   6.375   0.923  15.609  0.1349 -0.1187 -0.1374
 4159TIP3    H133968   6.392   0.841  15.654  0.8713  0.0384 -0.1276
 4159TIP3    H233969   6.279   0.927  15.604  0.0802 -0.8033  0.1695
 4160TIP3   OH233970   6.696   0.714   5.868 -0.3874 -0.4640  0.3030
 4160TIP3    H133971   6.747   0.715   5.787  1.5121 -1.3288  1.4299
 4160TIP3    H233972   6.604   0.712   5.839  0.2170  0.3635 -1.7919
 4161TIP3   OH233973   0.154   1.070  17.106 -0.3038  0.0091 -0.1459
 4161TIP3    H133974   0.200   1.018  17.040  1.2043 -0.2418  1.0662
 4161TIP3    H233975   0.160   1.018  17.186  0.5444  1.6735  0.9102
 4162TIP3   OH233976   2.494   6.638  13.903  0.1643  0.0312 -0.0254
 4162TIP3    H133977   2.401   6.615  13.893  0.4382 -1.1928  0.0550
 4162TIP3    H233978   2.520   6.670  13.817 -0.2330  0.0032 -0.1595
 4163TIP3   OH233979   0.654   4.033  12.090 -0.4202  0.0576 -0.2841
 4163TIP3    H133980   0.727   4.029  12.152 -0.1857 -0.6435 -0.5964
 4163TIP3    H233981   0.695   4.056  12.007 -0.3418 -1.6477 -0.7572
 4164TIP3   OH233982   3.436   3.671   3.830 -0.2582  0.0604  0.2378
 4164TIP3    H133983   3.400   3.662   3.919 -1.6183 -0.8389 -0.3662
 4164TIP3    H233984   3.442   3.581   3.798  1.2711  0.2991 -0.2045
 4165TIP3   OH233985   3.665   2.309  13.691 -0.4578 -0.5085  0.1574
 4165TIP3    H133986   3.590   2.249  13.687  0.3658 -1.6331  0.8640
 4165TIP3    H233987   3.707   2.289  13.775  0.2483  0.5859  0.0874
 4166TIP3   OH233988   2.160   5.874  11.017 -0.2496 -0.3270 -0.2047
 4166TIP3    H133989   2.129   5.795  10.972 -1.5077  0.1325 -0.1867
 4166TIP3    H233990   2.183   5.843  11.105 -0.0939 -0.7844 -0.3989
 4167TIP3   OH233991   2.692   1.272  13.690 -0.3513  0.2961  0.0527
 4167TIP3    H133992   2.717   1.362  13.667  0.5536 -0.3401 -1.5554
 4167TIP3    H233993   2.769   1.236  13.733 -0.4734  0.0675  0.0802
 4168TIP3   OH233994   3.825   6.680  13.062  0.3865 -0.3965 -0.0663
 4168TIP3    H133995   3.857   6.715  12.979  0.4828 -1.1772 -0.3651
 4168TIP3    H233996   3.819   6.586  13.048 -0.1153 -0.4814  0.6412
 4169TIP3   OH233997   4.426   4.554  14.903  0.0162  0.4942 -0.1178
 4169TIP3    H133998   4.333   4.578  14.895  0.4503  2.0850 -0.8846
 4169TIP3    H233999   4.443   4.557  14.997 -0.6768  0.3321  0.0208
 4170TIP3   OH234000   1.918   0.601  14.249 -0.2821 -0.2016  0.2043
 4170TIP3    H134001   1.984   0.533  14.235 -0.2938 -0.9172  2.9116
 4170TIP3    H234002   1.835   0.556  14.234 -0.2378  0.0712 -0.9400
 4171TIP3   OH234003   5.258   0.974   6.418 -0.1367 -0.0107 -0.0114
 4171TIP3    H134004   5.333   1.032   6.405 -0.5260  0.3363 -0.8279
 4171TIP3    H234005   5.184   1.034   6.427 -0.2708 -0.3397  1.1820
 4172TIP3   OH234006   6.205   2.957   1.241 -0.2824 -0.5738  0.3762
 4172TIP3    H134007   6.125   2.964   1.189 -1.4611 -0.2794  2.1438
 4172TIP3    H234008   6.275   2.981   1.181 -1.6530  0.4946 -0.8633
 4173TIP3   OH234009   2.908   1.331   4.149  0.1007 -0.4368 -0.2749
 4173TIP3    H134010   2.950   1.264   4.095  0.5389  0.1671 -0.6987
 4173TIP3    H234011   2.862   1.281   4.217  0.2629 -1.1713 -0.6880
 4174TIP3   OH234012   2.278   5.798  14.177 -0.0097  0.1536  0.3133
 4174TIP3    H134013   2.229   5.770  14.254 -0.8958 -1.1194 -0.6727
 4174TIP3    H234014   2.233   5.876  14.147  0.2225  0.5450  0.9559
 4175TIP3   OH234015   1.420   2.494  13.242 -0.3370  0.4548 -0.0539
 4175TIP3    H134016   1.384   2.582  13.242  0.6837  0.9046  1.2038
 4175TIP3    H234017   1.355   2.441  13.288 -0.0748  0.9740  0.9489
 4176TIP3   OH234018   2.453   0.164  15.292 -0.0572  0.3442 -0.3504
 4176TIP3    H134019   2.471   0.085  15.241  0.4279  0.7307 -0.7885
 4176TIP3    H234020   2.404   0.132  15.368  0.3616 -0.4154 -0.3818
 4177TIP3   OH234021   6.059   2.484  14.670 -0.1395  0.4121  1.0597
 4177TIP3    H134022   6.031   2.470  14.580  0.5909  0.8183  0.7535
 4177TIP3    H234023   6.013   2.563  14.698 -0.3586  0.2919  1.0390
 4178TIP3   OH234024   3.681   3.187  13.165  0.8274  0.1260  0.5474
 4178TIP3    H134025   3.639   3.273  13.164  1.4960  0.4623 -0.2839
 4178TIP3    H234026   3.618   3.129  13.208 -0.2354  0.7321 -0.1595
 4179TIP3   OH234027   4.367   5.252   5.598  0.3677  0.4616 -0.8275
 4179TIP3    H134028   4.376   5.211   5.684  0.0739  1.2701 -0.3973
 4179TIP3    H234029   4.416   5.334   5.604  0.5397  0.4200 -1.5085
 4180TIP3   OH234030   3.628   3.448  15.562  0.0032 -0.8141 -0.0488
 4180TIP3    H134031   3.643   3.463  15.656  0.3294 -1.2470 -0.0270
 4180TIP3    H234032   3.557   3.508  15.539  0.0829 -0.5322  0.4219
 4181TIP3   OH234033   0.607   5.561   5.166  0.4757 -0.2424 -0.1929
 4181TIP3    H134034   0.541   5.497   5.196 -1.0734  0.4982 -1.8450
 4181TIP3    H234035   0.583   5.642   5.211  0.1952  0.0545 -0.8765
 4182TIP3   OH234036   2.198   0.236   4.429  0.3654 -0.6958 -0.2329
 4182TIP3    H134037   2.106   0.246   4.452  0.3602 -1.0698 -0.0690
 4182TIP3    H234038   2.212   0.295   4.355  0.5071  0.9288  1.0482
 4183TIP3   OH234039   0.286   1.550  12.053  0.5061 -0.0155 -0.5427
 4183TIP3    H134040   0.356   1.486  12.061  1.5254  1.1625  0.2452
 4183TIP3    H234041   0.320   1.629  12.094 -1.4233  0.4870  0.2262
 4184TIP3   OH234042   5.242   6.372  14.783  0.1266 -0.0792  0.9550
 4184TIP3    H134043   5.265   6.383  14.691 -0.9097 -2.0667  0.3839
 4184TIP3    H234044   5.150   6.396  14.788  0.2372  0.2308  1.5144
 4185TIP3   OH234045   5.446   4.879   4.616 -0.4390  0.0952  0.1186
 4185TIP3    H134046   5.534   4.841   4.617  0.2535  1.5687 -0.8177
 4185TIP3    H234047   5.394   4.819   4.564  0.3312 -0.1862 -0.3419
 4186TIP3   OH234048   1.991   1.692  16.178  0.0500 -0.2743  0.2092
 4186TIP3    H134049   2.022   1.625  16.239 -1.1571 -0.2495  0.8726
 4186TIP3    H234050   1.939   1.752  16.232 -0.2541  0.2821 -0.6762
 4187TIP3   OH234051   5.293   6.126  15.435  0.2883  0.3693  0.2385
 4187TIP3    H134052   5.303   6.031  15.435  0.8652  0.4076 -1.0135
 4187TIP3    H234053   5.307   6.151  15.526 -0.4857 -0.7939  0.7050
 4188TIP3   OH234054   4.206   5.389   2.248 -0.1950  0.0406 -0.0488
 4188TIP3    H134055   4.123   5.397   2.202 -0.5899 -0.1989  0.6087
 4188TIP3    H234056   4.194   5.315   2.307  0.0753  0.7202  0.8838
 4189TIP3   OH234057   5.151   6.308   3.620 -0.2747 -0.8536  0.1445
 4189TIP3    H134058   5.132   6.386   3.672  0.2297 -1.5229  1.3657
 4189TIP3    H234059   5.243   6.289   3.638  0.2423 -0.4709 -1.8788
 4190TIP3   OH234060   2.172   5.087   5.466 -0.1324  0.4037  0.1687
 4190TIP3    H134061   2.256   5.043   5.462  0.6608  1.8852 -0.3980
 4190TIP3    H234062   2.160   5.124   5.379 -0.9499  0.9439  0.4931
 4191TIP3   OH234063   3.584   6.087  11.116  0.2364  0.1217  0.2285
 4191TIP3    H134064   3.521   6.096  11.044 -0.4942 -0.7445  0.7275
 4191TIP3    H234065   3.669   6.078  11.074 -0.1488 -0.0783 -0.5141
 4192TIP3   OH234066   0.682   4.699   0.680 -0.0867 -0.1571 -0.3893
 4192TIP3    H134067   0.766   4.702   0.727 -0.2582  1.8122 -0.1308
 4192TIP3    H234068   0.617   4.718   0.747 -0.7282 -1.2693 -0.6747
 4193TIP3   OH234069   4.771   0.018  11.881  0.9525  0.3873 -0.1019
 4193TIP3    H134070   4.776   0.098  11.829 -0.5070  1.3062  1.0788
 4193TIP3    H234071   4.717  -0.041  11.828 -1.5465  1.7370  0.7556
 4194TIP3   OH234072   5.097   2.132  10.353  0.5744  0.3546 -0.4041
 4194TIP3    H134073   5.057   2.207  10.309  0.6235  0.7126  0.1588
 4194TIP3    H234074   5.030   2.064  10.350  0.3934  0.5391 -0.5900
 4195TIP3   OH234075   2.953   3.451  13.365 -0.1862  0.1288 -0.1371
 4195TIP3    H134076   2.966   3.406  13.449  0.5662  1.2585  0.3711
 4195TIP3    H234077   3.013   3.408  13.305  1.6358  1.3754  0.7152
 4196TIP3   OH234078   2.987   0.840  12.978  0.3836 -0.2064  0.1773
 4196TIP3    H134079   2.913   0.782  12.961 -1.0562  1.6779 -0.3065
 4196TIP3    H234080   2.991   0.897  12.902  2.1623 -0.0613  0.3487
 4197TIP3   OH234081   1.982   1.857  14.716 -0.4850 -0.2906  0.1744
 4197TIP3    H134082   2.064   1.860  14.666  0.2286 -1.2155  1.2324
 4197TIP3    H234083   1.922   1.807  14.661  0.6044 -2.2137  0.6214
 4198TIP3   OH234084   1.879   5.858   5.536  0.3827  0.9192  0.6632
 4198TIP3    H134085   1.861   5.804   5.613 -1.0398  0.7694  0.2632
 4198TIP3    H234086   1.900   5.945   5.572 -0.3352  0.8715  1.2322
 4199TIP3   OH234087   2.599   1.314   2.156  0.0273  0.2621  0.0690
 4199TIP3    H134088   2.595   1.347   2.245  2.7314 -0.8381  0.6961
 4199TIP3    H234089   2.587   1.220   2.165  3.7887 -0.4161 -0.1128
 4200TIP3   OH234090   6.145   5.391  16.949  0.3764 -0.1919 -0.4898
 4200TIP3    H134091   6.225   5.350  16.981  0.0452 -1.7924 -1.6177
 4200TIP3    H234092   6.074   5.339  16.987 -0.1500  0.9211  0.1121
 4201TIP3   OH234093   2.488   1.637   1.345 -0.0751 -0.0066  0.3400
 4201TIP3    H134094   2.460   1.601   1.260 -0.1761 -0.2016  0.4533
 4201TIP3    H234095   2.583   1.628   1.345 -0.0674  0.0751  0.2107
 4202TIP3   OH234096   3.002   1.895   2.099 -0.1569  0.1261  0.4088
 4202TIP3    H134097   2.999   1.828   2.167 -0.4206  1.0737  1.3636
 4202TIP3    H234098   2.912   1.902   2.069 -0.8589  2.3404  2.6778
 4203TIP3   OH234099   2.675   5.768   4.071 -0.7463  0.8742 -0.1797
 4203TIP3    H134100   2.750   5.787   4.015  0.7848 -1.1665  1.0459
 4203TIP3    H234101   2.638   5.687   4.035 -0.9712  0.6445  0.5457
 4204TIP3   OH234102   2.977   1.658  12.364  0.3567  0.3040  0.3433
 4204TIP3    H134103   2.914   1.690  12.428 -0.6128 -0.3812 -0.2536
 4204TIP3    H234104   3.062   1.671  12.407 -0.2789 -0.4919  1.9361
 4205TIP3   OH234105   2.148   0.756  17.111 -0.5174 -0.0547  0.0769
 4205TIP3    H134106   2.240   0.729  17.115 -0.9287 -1.4563  0.9460
 4205TIP3    H234107   2.149   0.848  17.136  0.6816  0.0677 -0.3395
 4206TIP3   OH234108   0.540   2.727   2.772 -0.3209  0.2356 -0.0911
 4206TIP3    H134109   0.599   2.656   2.747  0.0856  0.0164  1.3926
 4206TIP3    H234110   0.555   2.796   2.707  0.1833 -0.5524 -0.8203
 4207TIP3   OH234111   3.782   1.875   5.722  0.1325  0.0080  0.2594
 4207TIP3    H134112   3.777   1.916   5.808  0.2545 -0.1275  0.3303
 4207TIP3    H234113   3.809   1.946   5.663 -0.4718  0.2270  0.2426
 4208TIP3   OH234114   2.441   6.661   3.012  0.1584  0.0305  0.2116
 4208TIP3    H134115   2.421   6.569   2.991  2.0980 -0.4911  0.4091
 4208TIP3    H234116   2.489   6.692   2.935 -1.9231  1.4468 -0.5835
 4209TIP3   OH234117   4.934   3.270  15.332  0.3495  0.4312  0.5051
 4209TIP3    H134118   5.017   3.278  15.379  0.6055  2.2851 -0.1861
 4209TIP3    H234119   4.959   3.277  15.240 -0.5662  1.0114  0.2934
 4210TIP3   OH234120   4.932   1.804   5.683 -0.0858 -0.5205  0.4237
 4210TIP3    H134121   4.953   1.791   5.591  0.3033  1.0555  0.2778
 4210TIP3    H234122   4.908   1.716   5.714  2.4793 -1.6238 -0.4668
 4211TIP3   OH234123   4.272   1.970   2.916 -0.2656 -0.3245  0.3870
 4211TIP3    H134124   4.240   2.055   2.945 -1.3386 -0.5944  0.0608
 4211TIP3    H234125   4.273   1.916   2.995 -0.0122 -0.1359  0.5127
 4212TIP3   OH234126   3.309   5.241  16.898 -0.1384 -0.1026 -0.1009
 4212TIP3    H134127   3.328   5.335  16.903  1.8060 -0.4123 -0.7969
 4212TIP3    H234128   3.391   5.199  16.924 -0.7637 -1.6196 -0.4975
 4213TIP3   OH234129   2.566   4.593  15.536 -0.3027 -0.4283  0.1994
 4213TIP3    H134130   2.539   4.625  15.621  0.5780 -0.1704  0.3970
 4213TIP3    H234131   2.607   4.508  15.555  0.8669  0.1111  0.1947
 4214TIP3   OH234132   2.483   5.542  13.162  0.9511 -0.0901  0.0410
 4214TIP3    H134133   2.516   5.585  13.241  3.3508 -0.1720 -0.8409
 4214TIP3    H234134   2.541   5.571  13.092 -0.8567 -0.3389 -1.6712
 4215TIP3   OH234135   6.358   1.119   6.297 -0.0241 -0.3188  0.0402
 4215TIP3    H134136   6.352   1.052   6.365  0.1763 -0.1622  0.2142
 4215TIP3    H234137   6.287   1.098   6.236 -0.7441  0.0363  0.7350
 4216TIP3   OH234138   4.231   2.058  16.016 -0.5495  0.6545  0.2495
 4216TIP3    H134139   4.269   2.145  16.026  1.6821 -0.3776  1.5641
 4216TIP3    H234140   4.263   2.027  15.931  2.7211 -0.6054  1.7744
 4217TIP3   OH234141   6.199   4.353  10.629  0.0240 -0.5008 -0.1407
 4217TIP3    H134142   6.271   4.389  10.577 -0.7552 -0.0967 -0.9657
 4217TIP3    H234143   6.231   4.268  10.660  0.8892 -0.2770 -0.4070
 4218TIP3   OH234144   4.451   6.754   5.102  0.0656 -0.1004 -0.2959
 4218TIP3    H134145   4.380   6.742   5.039 -0.0403  0.5452 -0.3118
 4218TIP3    H234146   4.523   6.702   5.068 -0.6592 -1.4602  0.1607
 4219TIP3   OH234147   0.856   0.464   4.387 -0.4786 -0.2075 -0.4612
 4219TIP3    H134148   0.909   0.414   4.325  0.4383  0.2982 -0.0963
 4219TIP3    H234149   0.892   0.442   4.473 -0.1767  0.9172 -0.2818
 4220TIP3   OH234150   1.688   5.836  14.711 -0.0683 -0.8699  0.2380
 4220TIP3    H134151   1.774   5.854  14.749  0.0463  0.2323 -0.4804
 4220TIP3    H234152   1.650   5.923  14.694 -1.0149 -1.3357 -0.1326
 4221TIP3   OH234153   4.112   1.072  12.689  0.3372 -0.4252 -0.2780
 4221TIP3    H134154   4.017   1.079  12.676  0.0782  1.0558  1.8377
 4221TIP3    H234155   4.150   1.131  12.623 -0.4082  0.9302  0.4452
 4222TIP3   OH234156   0.697   0.432   5.664  0.3700  0.1718  0.2078
 4222TIP3    H134157   0.768   0.388   5.711  0.2821  1.2074  1.3582
 4222TIP3    H234158   0.636   0.460   5.733  0.3505  1.9504 -0.4906
 4223TIP3   OH234159   0.634   5.507   1.222 -0.6013 -0.5247 -0.4386
 4223TIP3    H134160   0.571   5.567   1.183 -0.4493  0.1569  0.3442
 4223TIP3    H234161   0.604   5.494   1.312 -0.8012 -1.8739 -0.6819
 4224TIP3   OH234162   4.666   4.096  11.890  0.2115 -0.1792 -0.2423
 4224TIP3    H134163   4.601   4.145  11.840  0.4944  1.0106  0.5355
 4224TIP3    H234164   4.723   4.162  11.929  0.5593 -1.1104  0.9033
 4225TIP3   OH234165   3.867   4.204   4.445 -0.2349  0.0104  0.2152
 4225TIP3    H134166   3.789   4.254   4.419  0.0267  0.5661  0.4983
 4225TIP3    H234167   3.884   4.230   4.535  1.7890  1.8631 -0.6205
 4226TIP3   OH234168   5.655   2.815  14.608  0.1983  0.1745 -0.1055
 4226TIP3    H134169   5.626   2.886  14.664  0.7384 -0.4320  0.9792
 4226TIP3    H234170   5.672   2.856  14.523  0.3783  1.3007  0.4660
 4227TIP3   OH234171   1.951   1.844   6.841 -0.1056 -0.1418  0.0763
 4227TIP3    H134172   1.921   1.814   6.756  0.0492  0.8014 -0.3235
 4227TIP3    H234173   2.043   1.818   6.845  1.1050  3.2171 -1.7674
 4228TIP3   OH234174   2.771   0.989  16.079 -0.2694  0.0635  1.3417
 4228TIP3    H134175   2.697   0.941  16.117 -0.8599  0.8451  1.2090
 4228TIP3    H234176   2.730   1.050  16.017  0.3691  1.3592  2.1603
 4229TIP3   OH234177   5.030   6.626  16.121 -0.2649  0.4936  0.7522
 4229TIP3    H134178   5.006   6.589  16.206 -1.9535 -2.2690 -0.7716
 4229TIP3    H234179   4.960   6.689  16.102  0.0036  0.9622  1.2787
 4230TIP3   OH234180   6.640   0.378  13.589  0.0334 -0.3340  0.2043
 4230TIP3    H134181   6.732   0.353  13.601  0.2318  0.4672  0.4205
 4230TIP3    H234182   6.592   0.296  13.590  0.5138 -0.6316  2.2585
 4231TIP3   OH234183   5.337   1.984   5.091 -0.3118 -0.2223 -0.2608
 4231TIP3    H134184   5.265   1.930   5.059  0.4902 -0.2162 -2.1876
 4231TIP3    H234185   5.390   1.925   5.145 -1.2276 -0.4652  0.3927
 4232TIP3   OH234186   5.689   0.806  12.403 -0.2532 -0.2413  0.2403
 4232TIP3    H134187   5.722   0.721  12.434 -0.2839 -0.1964  0.3991
 4232TIP3    H234188   5.766   0.849  12.365 -0.2442 -0.3522  0.1325
 4233TIP3   OH234189   4.716   3.077   0.836 -0.4839  0.3842  0.7884
 4233TIP3    H134190   4.667   2.997   0.816 -1.2316  1.3197 -1.3561
 4233TIP3    H234191   4.730   3.073   0.931 -2.6165 -1.0841  1.1137
 4234TIP3   OH234192   1.042   4.903  13.215 -0.2986  0.1863  0.0753
 4234TIP3    H134193   0.964   4.954  13.190  0.2202  1.6214  1.1930
 4234TIP3    H234194   1.020   4.867  13.301  0.1074  0.2320  0.1990
 4235TIP3   OH234195   6.565   6.217   2.971 -0.1690  0.3651 -0.4641
 4235TIP3    H134196   6.602   6.258   2.893 -0.3842  1.4521 -0.0028
 4235TIP3    H234197   6.637   6.165   3.007 -0.2286 -0.6085 -1.6830
 4236TIP3   OH234198   2.744   2.942  14.987  0.6934 -0.4575  0.2094
 4236TIP3    H134199   2.741   3.037  14.977 -0.8273 -0.5753 -0.6324
 4236TIP3    H234200   2.823   2.926  15.039  1.3479  1.2033 -0.2260
 4237TIP3   OH234201   5.574   6.208  11.067  0.5202 -0.3408 -0.2596
 4237TIP3    H134202   5.636   6.277  11.044  0.0956  0.5549  1.1404
 4237TIP3    H234203   5.572   6.209  11.163 -0.2708 -1.6120 -0.2451
 4238TIP3   OH234204   4.974   6.299   1.379 -0.8914  0.0307 -0.3366
 4238TIP3    H134205   4.996   6.209   1.355 -0.1819 -0.0750  0.6341
 4238TIP3    H234206   5.053   6.349   1.361 -0.8773  0.2306  0.2576
 4239TIP3   OH234207   5.206   1.718   3.063 -0.0822  0.2060 -0.2937
 4239TIP3    H134208   5.294   1.701   3.031  0.5506 -0.4983  1.7128
 4239TIP3    H234209   5.164   1.632   3.065 -0.4169  0.3694 -0.0959
 4240TIP3   OH234210   5.447   5.117   5.219 -0.1566  0.2656 -0.0346
 4240TIP3    H134211   5.434   5.114   5.124 -0.5368  1.0059 -0.0150
 4240TIP3    H234212   5.392   5.190   5.248  2.2604  2.0296  0.3713
 4241TIP3   OH234213   1.433   5.210  16.435  0.1684  0.0624  0.8675
 4241TIP3    H134214   1.454   5.122  16.404  2.0811  0.2707  1.4769
 4241TIP3    H234215   1.361   5.196  16.498 -0.7867 -0.8273 -0.3697
 4242TIP3   OH234216   3.038   6.077   5.589  0.3972 -0.1774 -0.3254
 4242TIP3    H134217   2.970   6.088   5.523 -0.2486 -0.6593  0.2483
 4242TIP3    H234218   3.049   6.165   5.627  0.5670  0.0370 -0.8635
 4243TIP3   OH234219   6.513   1.869   5.097 -0.3671 -0.0104 -0.0634
 4243TIP3    H134220   6.558   1.936   5.148 -2.0460  1.4211 -0.3510
 4243TIP3    H234221   6.466   1.817   5.162  0.3282 -0.4533  0.0979
 4244TIP3   OH234222   6.333   1.784   2.619 -0.0453 -0.5628  0.0909
 4244TIP3    H134223   6.380   1.701   2.609 -0.1628 -0.7772  1.1836
 4244TIP3    H234224   6.255   1.761   2.670 -1.2466 -0.1777 -1.4833
 4245TIP3   OH234225   3.285   4.714  12.856 -0.2726 -0.1211  0.5000
 4245TIP3    H134226   3.269   4.758  12.940  0.2067  1.1622 -0.0449
 4245TIP3    H234227   3.343   4.774  12.808  0.0448 -1.1626 -0.4714
 4246TIP3   OH234228   4.938   6.385  13.932  0.1895  0.6590  0.0687
 4246TIP3    H134229   4.878   6.314  13.953  2.1701 -1.0511  0.2286
 4246TIP3    H234230   5.025   6.345  13.934  1.5554  3.3835  1.5822
 4247TIP3   OH234231   3.872   3.629  15.640 -0.5826 -0.8512 -0.2093
 4247TIP3    H134232   3.959   3.670  15.638  0.1086 -2.2599 -2.7150
 4247TIP3    H234233   3.890   3.535  15.640 -2.1596 -1.1874  0.9432
 4248TIP3   OH234234   4.260   2.468   1.374  0.4086 -0.6110 -0.5034
 4248TIP3    H134235   4.344   2.493   1.336  0.5139 -3.2130 -2.2323
 4248TIP3    H234236   4.274   2.381   1.410 -1.2548 -0.5942  0.3087
 4249TIP3   OH234237   4.601   0.916  15.692 -0.1920  0.7085  0.1268
 4249TIP3    H134238   4.554   0.994  15.664 -0.2618  0.5664 -0.1505
 4249TIP3    H234239   4.680   0.949  15.734 -0.0957  0.9184 -0.2230
 4250TIP3   OH234240   3.617   6.608  16.635  0.5360  0.4878  0.2127
 4250TIP3    H134241   3.705   6.605  16.598  0.3728 -1.8947 -0.1642
 4250TIP3    H234242   3.563   6.644  16.565  0.7770 -0.8115 -0.6868
 4251TIP3   OH234243   4.676   2.927  13.911  0.5578 -0.1918  0.1250
 4251TIP3    H134244   4.746   2.896  13.968  0.8160  0.3485  0.1067
 4251TIP3    H234245   4.610   2.858  13.914  1.0969 -0.7158  0.1300
 4252TIP3   OH234246   3.400   5.553   0.847 -0.3024 -0.2209 -0.3028
 4252TIP3    H134247   3.392   5.648   0.847  0.1163 -0.1850 -0.8601
 4252TIP3    H234248   3.411   5.529   0.755  0.5197 -0.7231 -0.0848
 4253TIP3   OH234249   6.484   1.510   1.217  0.1567 -0.6569  0.2262
 4253TIP3    H134250   6.518   1.532   1.303 -0.8362 -2.1347  1.0494
 4253TIP3    H234251   6.400   1.468   1.235 -0.6800  0.1602 -1.5456
 4254TIP3   OH234252   0.730   1.124  13.724 -0.5923 -0.0130  0.2330
 4254TIP3    H134253   0.825   1.130  13.728 -0.5795 -0.0641 -0.0128
 4254TIP3    H234254   0.712   1.066  13.650 -0.7783 -1.2857  1.2372
 4255TIP3   OH234255   4.678   6.352   4.813  0.4375 -0.3117  0.0079
 4255TIP3    H134256   4.583   6.362   4.805  0.6790  1.2517 -1.3726
 4255TIP3    H234257   4.689   6.263   4.848 -1.4843 -0.8789 -0.6707
 4256TIP3   OH234258   6.295   2.594   2.712  0.1985  0.3006  0.1048
 4256TIP3    H134259   6.284   2.685   2.741 -0.2759  1.1125 -2.4226
 4256TIP3    H234260   6.387   2.589   2.685 -0.6923  1.3846 -3.6984
 4257TIP3   OH234261   1.549   6.421  10.608  0.1882  0.2288 -0.2282
 4257TIP3    H134262   1.632   6.449  10.570  0.0029  0.2221 -0.6526
 4257TIP3    H234263   1.545   6.464  10.693  0.1479  1.0903 -0.6451
 4258TIP3   OH234264   4.047   6.142  14.033 -0.4223  0.2459 -0.2728
 4258TIP3    H134265   3.966   6.174  14.074 -0.5203  0.1805 -0.4142
 4258TIP3    H234266   4.105   6.218  14.034  0.2224 -0.2232  1.6011
 4259TIP3   OH234267   4.478   6.497   5.894 -0.3171 -0.4180 -0.0286
 4259TIP3    H134268   4.519   6.531   5.974  1.2174 -0.2880 -0.8296
 4259TIP3    H234269   4.384   6.503   5.911 -0.0411  0.4220  1.4186
 4260TIP3   OH234270   6.673   1.128  16.486  0.2637 -0.2993 -0.0705
 4260TIP3    H134271   6.654   1.045  16.531 -0.2307 -0.2700 -0.2254
 4260TIP3    H234272   6.652   1.111  16.394 -0.2275  0.1202 -0.0411
 4261TIP3   OH234273   1.388   5.521   6.309  0.4344 -0.1170 -0.5648
 4261TIP3    H134274   1.451   5.485   6.372  1.8479 -1.7565 -2.7820
 4261TIP3    H234275   1.310   5.468   6.321  0.9623 -0.9379 -0.6886
 4262TIP3   OH234276   1.674   2.544   3.356  0.1806  0.0549 -0.1300
 4262TIP3    H134277   1.711   2.457   3.343 -2.9537 -1.5198  0.4974
 4262TIP3    H234278   1.631   2.565   3.273 -1.2519 -0.1967  0.5176
 4263TIP3   OH234279   3.773   5.496  15.214  0.0390 -0.4131  0.6077
 4263TIP3    H134280   3.758   5.575  15.266 -0.9741 -0.6783  0.7373
 4263TIP3    H234281   3.698   5.440  15.233 -0.0084 -0.7937 -0.6352
 4264TIP3   OH234282   5.967   3.343   0.999  0.1057 -0.2330  0.2973
 4264TIP3    H134283   5.905   3.275   0.971  0.8004 -1.2388  1.1529
 4264TIP3    H234284   6.030   3.349   0.927  1.6774 -2.5574  1.3653
 4265TIP3   OH234285   6.748   4.281  13.577  0.1848 -0.5277  0.1802
 4265TIP3    H134286   6.842   4.297  13.591 -0.1148  1.3693  0.2191
 4265TIP3    H234287   6.745   4.206  13.517  1.7212 -0.6261  0.1934
 4266TIP3   OH234288   2.756   5.116  16.266 -0.4048 -0.0805 -0.3695
 4266TIP3    H134289   2.766   5.169  16.345  1.0759  1.4971 -1.5410
 4266TIP3    H234290   2.824   5.050  16.272 -1.7071 -1.3907  0.6812
 4267TIP3   OH234291   3.322   4.222  14.108 -0.7047 -0.5107  0.4200
 4267TIP3    H134292   3.295   4.314  14.109 -0.9282 -0.5656 -0.1967
 4267TIP3    H234293   3.378   4.214  14.030 -1.3443 -1.0784  0.0133
 4268TIP3   OH234294   6.549   5.423   2.491 -0.1037  0.3230 -0.1310
 4268TIP3    H134295   6.540   5.484   2.418  0.2841 -0.6422 -1.0096
 4268TIP3    H234296   6.641   5.398   2.490  0.4880  2.1138  2.2147
 4269TIP3   OH234297   4.055   1.925  11.057  0.1018  0.1539 -0.0031
 4269TIP3    H134298   4.091   1.916  11.146 -0.6597  2.1235  0.5587
 4269TIP3    H234299   3.967   1.888  11.063  0.2100 -0.1235 -0.0788
 4270TIP3   OH234300   1.890   2.693   3.061 -0.1311 -0.0809 -0.2287
 4270TIP3    H134301   1.951   2.705   3.134 -0.1141  1.0622 -0.4181
 4270TIP3    H234302   1.929   2.742   2.989 -1.1152  0.3906 -0.4515
 4271TIP3   OH234303   1.589   0.193   5.214  0.2149 -0.2400  0.1007
 4271TIP3    H134304   1.525   0.264   5.216 -0.5904 -0.8740 -1.2500
 4271TIP3    H234305   1.674   0.237   5.213 -0.2646  0.7029 -0.2407
 4272TIP3   OH234306   3.308   0.657  13.641  0.2154  0.3247 -0.7543
 4272TIP3    H134307   3.215   0.680  13.629 -0.2352 -0.0277  1.6208
 4272TIP3    H234308   3.315   0.568  13.608 -1.0926 -0.8538  1.9061
 4273TIP3   OH234309   4.546   3.594   0.619  0.3223 -0.2876 -0.1476
 4273TIP3    H134310   4.487   3.538   0.568 -0.4602 -0.7738  1.2506
 4273TIP3    H234311   4.569   3.664   0.558 -2.2616  0.3095 -0.5849
 4274TIP3   OH234312   0.960   0.882   3.492 -1.5929  0.5082 -0.0440
 4274TIP3    H134313   0.934   0.954   3.434 -0.4129 -0.0200 -1.2722
 4274TIP3    H234314   0.901   0.810   3.470 -1.5498  0.5012 -0.1342
 4275TIP3   OH234315   3.602   1.423   1.249  0.5234  0.5271  0.0605
 4275TIP3    H134316   3.516   1.438   1.289  1.5161  1.3010  1.9865
 4275TIP3    H234317   3.598   1.333   1.217 -1.2292  0.7710 -0.5242
 4276TIP3   OH234318   6.794   2.827   1.292 -0.2066 -0.2707  0.4918
 4276TIP3    H134319   6.803   2.753   1.353  0.6074 -0.4393  0.1812
 4276TIP3    H234320   6.835   2.900   1.337 -1.9475  0.2904  1.2520
 4277TIP3   OH234321   4.953   1.621   4.665  0.1282  0.2315 -0.6759
 4277TIP3    H134322   4.893   1.632   4.739  1.0915  0.2073  0.1431
 4277TIP3    H234323   4.993   1.708   4.654 -0.6287  0.4657 -1.7511
 4278TIP3   OH234324   6.405   0.073  13.915  0.1552 -0.4341 -0.0311
 4278TIP3    H134325   6.396   0.080  13.820  1.0879  0.0602 -0.0904
 4278TIP3    H234326   6.494   0.040  13.929  0.0081 -0.5584  0.6672
 4279TIP3   OH234327   0.897   1.187  15.855 -0.5401 -0.4557 -0.6743
 4279TIP3    H134328   0.859   1.113  15.807 -2.1044 -1.2725  1.6258
 4279TIP3    H234329   0.830   1.256  15.849  0.3330  0.3442 -1.6712
 4280TIP3   OH234330   0.330   3.416   2.132  0.0092  0.8380  0.3310
 4280TIP3    H134331   0.257   3.446   2.186 -1.3406  1.3194 -1.6516
 4280TIP3    H234332   0.362   3.495   2.088 -0.4569  0.1425 -1.3236
 4281TIP3   OH234333   3.449   2.651  11.502  0.2272 -0.2335  0.4349
 4281TIP3    H134334   3.486   2.652  11.590  1.7467 -0.4586 -0.1739
 4281TIP3    H234335   3.490   2.724  11.457  1.2342 -1.4564 -0.7408
 4282TIP3   OH234336   0.101   6.266   2.113  0.9650  0.0607  0.1490
 4282TIP3    H134337   0.027   6.245   2.056 -0.1544  0.4260  1.4229
 4282TIP3    H234338   0.176   6.227   2.070 -0.2043 -1.7279 -0.3673
 4283TIP3   OH234339   6.852   6.771   3.408 -0.1216  0.4990  0.0010
 4283TIP3    H134340   6.856   6.754   3.502 -0.0922  1.7785  0.2505
 4283TIP3    H234341   6.761   6.752   3.384  0.2996 -1.5835 -0.1001
 4284TIP3   OH234342   6.553   1.923   2.233  0.0711  0.3551 -0.1836
 4284TIP3    H134343   6.574   1.921   2.140  0.0453 -0.4226 -0.1775
 4284TIP3    H234344   6.485   1.856   2.244 -0.1336  0.6494  0.3400
 4285TIP3   OH234345   2.813   3.944  15.446 -0.3928 -0.2795 -0.0495
 4285TIP3    H134346   2.746   3.914  15.507 -0.1441  0.9541  0.8671
 4285TIP3    H234347   2.779   3.921  15.359 -0.8380 -1.8998  0.5181
 4286TIP3   OH234348   6.632   3.409   2.521  0.1144  0.0137 -0.2561
 4286TIP3    H134349   6.643   3.501   2.499 -0.1455 -0.0366 -0.6128
 4286TIP3    H234350   6.537   3.399   2.535  0.0855 -0.2819 -0.6305
 4287TIP3   OH234351   2.763   6.534   5.668 -0.0256 -0.3084 -0.3161
 4287TIP3    H134352   2.808   6.616   5.649  1.3785 -1.1377 -0.7541
 4287TIP3    H234353   2.823   6.487   5.727 -1.5612 -0.3520  1.2864
 4288TIP3   OH234354   0.599   5.442   5.873  0.5150  0.2018  0.1313
 4288TIP3    H134355   0.660   5.411   5.940 -0.4744 -1.9313  0.1316
 4288TIP3    H234356   0.528   5.484   5.922  1.0507  0.9905  0.2418
 4289TIP3   OH234357   2.590   2.133  16.694  0.5568  0.7210 -0.0843
 4289TIP3    H134358   2.600   2.069  16.623 -0.4639  0.8835 -0.3944
 4289TIP3    H234359   2.503   2.170  16.680  0.6215  1.2474  0.8593
 4290TIP3   OH234360   1.920   6.322  15.126  0.1687  0.3283  0.2984
 4290TIP3    H134361   1.923   6.269  15.046 -0.0963  0.2934  0.3088
 4290TIP3    H234362   1.871   6.268  15.188 -1.1503  1.0480 -0.0581
 4291TIP3   OH234363   1.466   2.385   1.558 -0.0827 -0.3531  0.0235
 4291TIP3    H134364   1.452   2.317   1.492  0.6322 -0.1801 -0.3116
 4291TIP3    H234365   1.498   2.461   1.509  0.8123 -0.3342  0.6064
 4292TIP3   OH234366   5.090   6.436  10.640  0.2799 -0.6732 -0.4487
 4292TIP3    H134367   5.079   6.516  10.588 -0.1098 -0.5744 -0.2198
 4292TIP3    H234368   5.158   6.387  10.594 -0.5478 -0.9156 -1.4653
 4293TIP3   OH234369   3.800   0.185   3.865 -0.1444  0.4820 -0.4191
 4293TIP3    H134370   3.850   0.104   3.859  1.3300  1.2190  1.0679
 4293TIP3    H234371   3.731   0.166   3.927 -2.3760 -0.7879 -3.0779
 4294TIP3   OH234372   2.437   2.900  12.625 -0.0994 -0.2912  0.4595
 4294TIP3    H134373   2.470   2.831  12.568 -0.9182 -0.3630  0.0572
 4294TIP3    H234374   2.503   2.969  12.620  0.7960 -1.0951  0.9830
 4295TIP3   OH234375   2.148   1.962   6.621  0.1890  0.2594 -0.1683
 4295TIP3    H134376   2.198   1.886   6.649 -1.1111 -0.6049 -0.1507
 4295TIP3    H234377   2.186   2.035   6.670  2.4915 -0.0608 -1.3259
 4296TIP3   OH234378   4.038   1.498  15.169  0.4141 -0.1532  0.1830
 4296TIP3    H134379   3.976   1.551  15.119 -0.5229 -0.4531  1.0118
 4296TIP3    H234380   4.113   1.487  15.110 -0.6104 -0.3847 -1.1085
 4297TIP3   OH234381   5.602   4.027   1.081 -0.3149 -0.2136 -0.1697
 4297TIP3    H134382   5.575   3.965   1.149  0.4875 -1.5261 -1.0172
 4297TIP3    H234383   5.671   4.078   1.122  0.3081 -1.1368 -0.0475
 4298TIP3   OH234384   6.007   5.985   1.728 -0.2141  0.1732  0.2178
 4298TIP3    H134385   5.999   6.006   1.821  0.1204  0.8731  0.0944
 4298TIP3    H234386   6.096   5.948   1.720 -0.0171  0.6712  0.0784
 4299TIP3   OH234387   3.688   6.269   1.063 -0.1497 -0.0164 -0.6450
 4299TIP3    H134388   3.682   6.360   1.034 -1.4193 -0.2552 -1.2148
 4299TIP3    H234389   3.621   6.223   1.012  0.3407 -1.2397 -0.2356
 4300TIP3   OH234390   2.398   5.204   4.884 -0.0525 -0.1346  0.3079
 4300TIP3    H134391   2.447   5.131   4.847  1.2930 -0.4115  2.4783
 4300TIP3    H234392   2.307   5.188   4.858  0.4422 -1.7310 -0.5417
 4301TIP3   OH234393   6.092   3.456  11.911 -0.2005 -0.3768  0.8006
 4301TIP3    H134394   6.101   3.529  11.851 -1.3555  0.1829  1.2746
 4301TIP3    H234395   6.172   3.405  11.899 -0.8318 -0.9039 -2.0075
 4302TIP3   OH234396   5.360   3.642   3.253  0.5106  0.2891 -0.4718
 4302TIP3    H134397   5.403   3.641   3.338 -2.1345  0.2312  0.9656
 4302TIP3    H234398   5.332   3.551   3.239  1.3164  0.2034 -1.6434
 4303TIP3   OH234399   4.510   3.851   3.705 -0.1550  0.8119 -0.4305
 4303TIP3    H134400   4.585   3.822   3.757  0.5404  0.0960 -1.7661
 4303TIP3    H234401   4.515   3.946   3.705 -0.3839  0.8377  1.0808
 4304TIP3   OH234402   3.283   1.454  11.653  0.1447  0.1934 -0.0610
 4304TIP3    H134403   3.218   1.520  11.679 -0.3629 -0.9700  1.8175
 4304TIP3    H234404   3.367   1.495  11.668 -0.1270  1.2034 -1.1302
 4305TIP3   OH234405   6.719   3.779   6.349 -0.0408 -0.4256 -0.0463
 4305TIP3    H134406   6.768   3.782   6.431 -1.0192 -0.4855  0.5460
 4305TIP3    H234407   6.670   3.861   6.345 -0.4402 -0.6673 -0.2902
 4306TIP3   OH234408   2.277   4.046   1.615 -0.5371  0.1088  0.6638
 4306TIP3    H134409   2.342   4.029   1.682  1.5289  0.4872 -1.1425
 4306TIP3    H234410   2.209   4.097   1.660  0.9882  0.7518  2.3428
 4307TIP3   OH234411   6.276   2.525  11.822  0.0583  0.1271 -0.0989
 4307TIP3    H134412   6.330   2.582  11.878 -0.2697 -0.1614  0.5237
 4307TIP3    H234413   6.339   2.468  11.778  0.4115  1.1443 -0.9333
 4308TIP3   OH234414   3.683   0.633   2.462  0.3990 -0.3517 -0.2727
 4308TIP3    H134415   3.597   0.641   2.504  0.3359 -0.5458 -0.3648
 4308TIP3    H234416   3.743   0.676   2.523  0.4604 -1.4966  0.5033
 4309TIP3   OH234417   0.008   0.405   0.439 -0.4359  0.4718 -0.3197
 4309TIP3    H134418  -0.046   0.478   0.469 -0.2620  0.7654 -0.7112
 4309TIP3    H234419   0.068   0.445   0.375 -1.4589 -0.3272 -1.8151
 4310TIP3   OH234420   2.432   0.818  14.871  0.4052  0.2374 -0.2246
 4310TIP3    H134421   2.368   0.748  14.860  0.9126 -0.0261 -1.5968
 4310TIP3    H234422   2.379   0.898  14.876 -0.1205 -0.1442  0.4911
 4311TIP3   OH234423   3.816   1.001   4.283  0.7404 -0.0379 -0.2911
 4311TIP3    H134424   3.784   1.090   4.301  1.6014  0.1026  0.6014
 4311TIP3    H234425   3.871   0.979   4.358  4.2469  0.4435 -2.4448
 4312TIP3   OH234426   6.166   0.532  13.967  0.2194 -0.1326  0.3074
 4312TIP3    H134427   6.117   0.580  14.034 -0.3560 -1.0821  0.5923
 4312TIP3    H234428   6.242   0.587  13.949 -0.9069  1.3579 -0.1057
 4313TIP3   OH234429   1.760   0.046  13.015  0.1034 -0.0191  1.0891
 4313TIP3    H134430   1.717   0.049  12.929  0.2026 -0.9540  0.9997
 4313TIP3    H234431   1.814   0.125  13.017  1.1343 -0.6383 -0.2706
 4314TIP3   OH234432   2.480   3.062  11.995 -0.3507 -0.2644 -0.4834
 4314TIP3    H134433   2.501   3.134  12.055 -1.6084 -1.1053  1.0450
 4314TIP3    H234434   2.458   3.105  11.912  0.3538  1.0119 -0.0273
 4315TIP3   OH234435   0.696   0.312  13.406 -0.0388 -0.2407  0.1344
 4315TIP3    H134436   0.757   0.332  13.477  0.0984 -0.4343  0.0728
 4315TIP3    H234437   0.710   0.219  13.388 -0.6766 -0.3997  0.4268
 4316TIP3   OH234438   0.377   6.704  17.069  0.3771 -0.2377  0.2789
 4316TIP3    H134439   0.340   6.764  17.004  1.5754 -0.8531 -1.0022
 4316TIP3    H234440   0.314   6.632  17.074 -0.0511  0.1364  0.3081
 4317TIP3   OH234441   5.496   1.555   3.286  0.4916  0.1590  0.1409
 4317TIP3    H134442   5.412   1.513   3.267  0.0761  1.0450 -0.0834
 4317TIP3    H234443   5.558   1.483   3.298  0.2349 -0.5021 -2.1288
 4318TIP3   OH234444   1.263   5.250  14.126 -0.2785 -0.6643 -0.2770
 4318TIP3    H134445   1.324   5.179  14.109  0.3198  0.1829 -1.8305
 4318TIP3    H234446   1.223   5.269  14.041  0.7155  1.8784 -0.2511
 4319TIP3   OH234447   2.266   2.934  14.754  0.1201  0.5558  0.3869
 4319TIP3    H134448   2.344   2.916  14.807  0.1563  0.7844  0.4110
 4319TIP3    H234449   2.223   3.007  14.799 -0.1180  0.4196  0.3841
 4320TIP3   OH234450   3.077   1.603  10.449  0.1842 -0.3885  0.2143
 4320TIP3    H134451   3.131   1.540  10.495 -2.0763 -1.5723  1.4176
 4320TIP3    H234452   3.023   1.550  10.390  0.6761  0.7934 -1.3680
 4321TIP3   OH234453   4.212   1.608   0.074 -0.1922 -0.2550 -0.5572
 4321TIP3    H134454   4.249   1.557   0.002 -0.2223  0.6947 -1.2572
 4321TIP3    H234455   4.288   1.636   0.125  0.1770  1.9941 -2.1896
 4322TIP3   OH234456   5.074   3.330   1.546 -0.0479  0.0668 -0.1886
 4322TIP3    H134457   5.106   3.292   1.465  1.1461  1.5355 -0.4378
 4322TIP3    H234458   5.147   3.324   1.607 -0.1815  0.9695  0.0846
 4323TIP3   OH234459   6.623   5.879   3.586  0.0622  0.5480  0.0590
 4323TIP3    H134460   6.701   5.857   3.638 -1.1357  1.0598  2.1776
 4323TIP3    H234461   6.602   5.969   3.613 -0.7627  0.7358 -1.1511
 4324TIP3   OH234462   6.347   4.077   5.194 -0.3566  0.4076  0.2199
 4324TIP3    H134463   6.423   4.040   5.238  0.1524 -0.8484 -1.6132
 4324TIP3    H234464   6.274   4.057   5.253  0.1682 -1.9549  0.1759
 4325TIP3   OH234465   1.611   1.517  13.067 -0.0983 -0.4642  0.1774
 4325TIP3    H134466   1.597   1.612  13.066  0.9377 -0.2988 -0.0717
 4325TIP3    H234467   1.525   1.480  13.045 -0.4421  0.4206 -0.0276
 4326TIP3   OH234468   5.091   4.351  16.710  0.3638 -0.5326  0.3606
 4326TIP3    H134469   5.156   4.390  16.652 -0.7147  1.3105  0.3239
 4326TIP3    H234470   5.141   4.318  16.785  1.2006  3.3759  1.7276
 4327TIP3   OH234471   2.173   3.122   5.462  0.0587 -0.0389  0.3771
 4327TIP3    H134472   2.212   3.189   5.406 -0.3000  0.1213  0.3096
 4327TIP3    H234473   2.079   3.143   5.461 -0.4784 -2.1328 -1.8486
 4328TIP3   OH234474   1.779   3.148  12.486 -0.0109 -0.4129  0.2048
 4328TIP3    H134475   1.768   3.075  12.547 -2.3958  0.8369  1.4177
 4328TIP3    H234476   1.863   3.187  12.510  0.3099 -1.5022  0.9200
 4329TIP3   OH234477   1.145   3.907   4.270  0.1330  0.4964 -0.0859
 4329TIP3    H134478   1.084   3.929   4.341 -0.9816  0.6608 -1.0470
 4329TIP3    H234479   1.221   3.963   4.285  0.3544 -0.1753  1.5147
 4330TIP3   OH234480   1.054   5.304  14.600 -0.6303 -0.8781  0.0772
 4330TIP3    H134481   1.006   5.242  14.655 -1.3733 -0.9931 -0.6853
 4330TIP3    H234482   1.067   5.258  14.517  0.4172 -0.6807  0.1163
 4331TIP3   OH234483   6.303   6.789   4.512  0.7424  0.2148 -0.0281
 4331TIP3    H134484   6.333   6.880   4.507  1.4812  0.0648  1.3724
 4331TIP3    H234485   6.208   6.796   4.527  0.7154  0.7331 -0.3908
 4332TIP3   OH234486   3.168   0.192  14.717 -0.2400 -0.0614  0.2163
 4332TIP3    H134487   3.182   0.187  14.623 -0.8977  0.5983  0.0778
 4332TIP3    H234488   3.076   0.167  14.729 -0.6358  1.4751  0.5058
 4333TIP3   OH234489   2.753   4.634  13.263  0.3080 -0.0572  0.3377
 4333TIP3    H134490   2.721   4.634  13.353  1.2225  2.0570  0.7302
 4333TIP3    H234491   2.836   4.585  13.266 -0.3173 -1.1473  0.3390
 4334TIP3   OH234492   4.860   4.263  16.590  0.0063 -0.1968 -0.1845
 4334TIP3    H134493   4.876   4.171  16.610  0.2016 -0.5696 -1.9662
 4334TIP3    H234494   4.936   4.309  16.625  0.2352 -0.7852  0.0958
 4335TIP3   OH234495   3.896   4.255  10.862  0.0696 -0.3882 -0.1898
 4335TIP3    H134496   3.877   4.172  10.819  0.1237  0.1882 -1.3709
 4335TIP3    H234497   3.843   4.253  10.942 -0.6698 -1.1595 -0.6783
 4336TIP3   OH234498   3.688   1.251   4.310  0.1415 -0.0234 -0.2518
 4336TIP3    H134499   3.745   1.325   4.330  0.0796  0.4479 -1.7228
 4336TIP3    H234500   3.648   1.273   4.226  0.5893 -1.9840 -1.0398
 4337TIP3   OH234501   0.026   1.028  15.825  0.3307  0.1501  0.7625
 4337TIP3    H134502   0.058   1.115  15.853 -0.2026  0.5747  0.0651
 4337TIP3    H234503  -0.040   1.005  15.890 -0.7737  1.0538 -0.0165
 4338TIP3   OH234504   2.079   6.521  14.627  0.2783 -0.0410  0.3628
 4338TIP3    H134505   2.095   6.428  14.610 -1.4241 -0.3390  0.1816
 4338TIP3    H234506   2.081   6.562  14.541 -1.9052 -0.4457  0.0742
 4339TIP3   OH234507   2.194   0.439  16.304  0.4167  0.6633 -0.0406
 4339TIP3    H134508   2.161   0.510  16.358  1.2547  1.0216  0.0231
 4339TIP3    H234509   2.122   0.377  16.298 -0.5146  1.7673 -0.5605
 4340TIP3   OH234510   4.810   5.244  12.386  0.2542 -0.2543  0.2360
 4340TIP3    H134511   4.824   5.179  12.317  0.6918  0.6112 -0.5167
 4340TIP3    H234512   4.750   5.307  12.348  0.5383  0.2624  0.6276
 4341TIP3   OH234513   2.798   4.132  12.081 -0.4782 -0.5789 -0.0042
 4341TIP3    H134514   2.851   4.055  12.098  0.0582  0.0321  1.2226
 4341TIP3    H234515   2.736   4.135  12.154  0.9881  1.3703  1.2856
 4342TIP3   OH234516   3.904   0.757  11.391  0.6303 -0.2947 -0.1171
 4342TIP3    H134517   3.984   0.792  11.354  0.2573  0.3557 -0.3199
 4342TIP3    H234518   3.915   0.662  11.388  2.0247 -0.2096  1.2354
 4343TIP3   OH234519   2.571   5.127   6.112 -0.1340 -0.3707  0.3103
 4343TIP3    H134520   2.487   5.167   6.092 -1.5344 -2.7105  1.0540
 4343TIP3    H234521   2.550   5.058   6.176  2.2309 -1.5138 -0.0306
 4344TIP3   OH234522   2.769   6.364   4.392  0.0283  0.0478 -0.1444
 4344TIP3    H134523   2.713   6.440   4.410  0.6915  0.3142  0.8648
 4344TIP3    H234524   2.842   6.399   4.340 -0.1344 -0.0860 -0.4711
 4345TIP3   OH234525   1.454   5.610  15.876  0.1326 -0.0120 -0.1889
 4345TIP3    H134526   1.442   5.696  15.838  0.8809 -0.6552 -1.9716
 4345TIP3    H234527   1.526   5.621  15.938 -0.0409  0.7243 -0.1120
 4346TIP3   OH234528   5.255   5.993   3.091  0.1520 -0.1799 -0.0798
 4346TIP3    H134529   5.288   5.995   3.002  0.6682 -0.4810  0.1018
 4346TIP3    H234530   5.251   6.085   3.117 -2.0381  0.0907 -1.1361
 4347TIP3   OH234531   5.901   2.914  15.642  0.9666 -0.3693  0.1627
 4347TIP3    H134532   5.935   2.919  15.553  0.6493  1.6129  0.1013
 4347TIP3    H234533   5.931   2.995  15.684  0.3364 -0.8333  1.5761
 4348TIP3   OH234534   1.878   0.483   5.445 -0.6931 -0.0623 -0.0514
 4348TIP3    H134535   1.868   0.417   5.375  0.4256 -1.1775  0.7924
 4348TIP3    H234536   1.863   0.566   5.401  0.4690 -0.6872 -1.7707
 4349TIP3   OH234537   0.219   2.822  12.808 -0.7773  0.2693  0.0014
 4349TIP3    H134538   0.212   2.823  12.712  0.7303  2.0017 -0.1424
 4349TIP3    H234539   0.309   2.793  12.825 -1.2137 -0.5934  0.9374
 4350TIP3   OH234540   5.784   0.207   3.096 -0.0727  0.0877 -0.0262
 4350TIP3    H134541   5.739   0.258   3.029  1.5430  0.3484 -0.9893
 4350TIP3    H234542   5.870   0.248   3.103  0.5095 -1.1936  0.7412
 4351TIP3   OH234543   5.171   4.053  16.370 -0.0336  0.3462  0.5043
 4351TIP3    H134544   5.258   4.088  16.350  0.1686  0.4903  1.5879
 4351TIP3    H234545   5.115   4.130  16.379 -0.4857  0.2332 -1.0073
 4352TIP3   OH234546   1.504   3.650   0.405  0.0607 -0.4167 -0.4554
 4352TIP3    H134547   1.439   3.687   0.346 -0.0269 -0.4078 -0.3539
 4352TIP3    H234548   1.552   3.726   0.439 -1.7570 -0.1052  1.7173
 4353TIP3   OH234549   4.057   6.170   2.467 -0.2310 -0.2146  0.3041
 4353TIP3    H134550   4.097   6.230   2.529 -0.8682  1.2367 -0.6326
 4353TIP3    H234551   4.128   6.148   2.406 -0.5608  1.6215 -0.8146
 4354TIP3   OH234552   1.173   3.999  15.606  0.0840  0.1432  0.2127
 4354TIP3    H134553   1.205   3.964  15.689  1.9989 -0.0219 -0.5432
 4354TIP3    H234554   1.109   3.934  15.575 -0.3941  0.0426  1.3782
 4355TIP3   OH234555   3.313   3.689  12.480 -0.2530  0.4819 -0.5665
 4355TIP3    H134556   3.289   3.671  12.571 -2.6552  1.0364 -1.0255
 4355TIP3    H234557   3.369   3.616  12.455  0.5696  0.3845  1.3819
 4356TIP3   OH234558   1.349   0.781   2.200  0.0514  0.0364 -0.1855
 4356TIP3    H134559   1.306   0.799   2.116 -0.3136  0.5945  0.1126
 4356TIP3    H234560   1.325   0.691   2.220  0.2235 -0.1338 -0.7297
 4357TIP3   OH234561   0.524   0.508  16.391  0.1437 -0.0572 -0.1111
 4357TIP3    H134562   0.608   0.536  16.353 -0.4975  2.0085 -0.0874
 4357TIP3    H234563   0.458   0.546  16.335 -0.8112 -0.4415  0.7249
 4358TIP3   OH234564   6.044   0.234   1.993 -0.5677 -0.0285 -0.2739
 4358TIP3    H134565   6.052   0.235   2.089  0.6570 -0.6981 -0.3487
 4358TIP3    H234566   5.978   0.167   1.975  0.5276 -1.2368  0.0561
 4359TIP3   OH234567   3.832   3.606  13.095  0.1747  0.2124 -0.3209
 4359TIP3    H134568   3.829   3.665  13.019  0.7587 -0.9207 -1.2650
 4359TIP3    H234569   3.875   3.658  13.164 -0.9142  1.4702 -0.5456
 4360TIP3   OH234570   4.384   2.829  13.113  0.1072  1.1428 -0.1301
 4360TIP3    H134571   4.459   2.889  13.120  2.0352 -0.9363 -1.4127
 4360TIP3    H234572   4.394   2.788  13.027 -3.0151  1.3009 -0.6835
 4361TIP3   OH234573   2.412   1.201  14.356  1.2710 -0.2896 -0.3245
 4361TIP3    H134574   2.409   1.194  14.452  0.8628 -1.5399 -0.4151
 4361TIP3    H234575   2.480   1.140  14.330  1.1288 -0.2192 -0.8629
 4362TIP3   OH234576   3.201   0.582   6.263 -0.0013  0.0254 -0.4602
 4362TIP3    H134577   3.121   0.632   6.281 -0.4807 -0.4743 -1.1805
 4362TIP3    H234578   3.247   0.634   6.197 -0.0075  0.0141 -0.4730
 4363TIP3   OH234579   5.398   2.136  11.294  0.0296 -0.1567 -0.0499
 4363TIP3    H134580   5.492   2.143  11.313  0.2346 -1.7378 -0.3098
 4363TIP3    H234581   5.394   2.075  11.220 -1.2873 -1.4164  1.0143
 4364TIP3   OH234582   6.359   3.619   1.240 -0.6298 -0.0421  0.2618
 4364TIP3    H134583   6.275   3.577   1.262 -1.6913  2.0716  0.5135
 4364TIP3    H234584   6.347   3.649   1.150  0.5231 -1.1830 -0.2981
 4365TIP3   OH234585   5.096   0.503  12.933  0.1817  0.0748 -0.1005
 4365TIP3    H134586   5.147   0.460  13.003  1.1190  0.3714 -0.5912
 4365TIP3    H234587   5.148   0.580  12.910 -0.4244  0.2972 -0.7221
 4366TIP3   OH234588   2.230   3.309  16.281  0.1112  0.2154 -0.0413
 4366TIP3    H134589   2.284   3.349  16.349  1.1098 -2.7310  1.0566
 4366TIP3    H234590   2.292   3.260  16.227 -1.2385 -2.9130  1.0068
 4367TIP3   OH234591   4.844   0.522  12.217  0.3019  0.2273  0.3697
 4367TIP3    H134592   4.901   0.458  12.260 -0.6704 -1.9151 -1.3334
 4367TIP3    H234593   4.872   0.521  12.125 -0.5698  1.3316  0.0760
 4368TIP3   OH234594   4.152   5.935   4.703 -0.1403 -0.2316  0.3067
 4368TIP3    H134595   4.095   5.939   4.780  0.6398  0.5705  0.8638
 4368TIP3    H234596   4.215   6.006   4.716 -2.3170  2.5933 -2.9683
 4369TIP3   OH234597   5.356   0.512  14.262  0.7526  0.0848 -0.1658
 4369TIP3    H134598   5.299   0.453  14.213 -0.4248  0.1105  1.1256
 4369TIP3    H234599   5.361   0.474  14.349  3.2369 -0.2441 -0.3706
 4370TIP3   OH234600   3.630   1.714   2.895 -0.0690 -0.1844 -0.1627
 4370TIP3    H134601   3.594   1.655   2.961  1.3379 -1.5495 -0.5535
 4370TIP3    H234602   3.724   1.714   2.913 -0.0913  2.6404  0.3389
 4371TIP3   OH234603   1.487   6.220   2.557  0.0984 -0.1269 -0.0616
 4371TIP3    H134604   1.455   6.293   2.610  0.2786  0.8056 -1.1849
 4371TIP3    H234605   1.534   6.262   2.485 -0.9795 -1.2989 -1.5163
 4372TIP3   OH234606   1.501   5.046  15.872 -0.3614  0.5837 -0.2152
 4372TIP3    H134607   1.499   5.026  15.966  1.8951  1.5133  0.1085
 4372TIP3    H234608   1.525   4.963  15.831 -4.1635 -0.6262 -0.4001
 4373TIP3   OH234609   6.063   0.710  12.804  0.0291 -0.0645 -1.1131
 4373TIP3    H134610   6.028   0.666  12.881  0.4282  0.1476 -0.8036
 4373TIP3    H234611   6.047   0.650  12.732 -1.2015  0.1339 -1.0314
 4374TIP3   OH234612   5.248   5.729  12.615 -0.4244 -0.1142  0.6549
 4374TIP3    H134613   5.195   5.650  12.623  0.1005 -0.3295  2.7664
 4374TIP3    H234614   5.338   5.696  12.606 -0.4135  0.2564 -0.7628
 4375TIP3   OH234615   4.735   2.160  15.104  0.2913  0.1274  1.2618
 4375TIP3    H134616   4.771   2.094  15.045 -1.4052  0.0236  0.2641
 4375TIP3    H234617   4.788   2.238  15.088  1.1093 -0.4605  1.0511
 4376TIP3   OH234618   0.533   3.905  11.365  0.3464  0.0388  0.0261
 4376TIP3    H134619   0.441   3.921  11.342  0.4195  1.1224  0.4555
 4376TIP3    H234620   0.534   3.905  11.461  0.7677 -0.2156  0.0256
 4377TIP3   OH234621   5.785   2.968  12.151 -0.0460  0.5476  0.2959
 4377TIP3    H134622   5.805   2.961  12.244  1.2829  1.5843  0.1072
 4377TIP3    H234623   5.704   3.020  12.148  0.7294  1.8313  0.8247
 4378TIP3   OH234624   4.438   4.013  13.095 -0.1546 -0.3267  0.1144
 4378TIP3    H134625   4.442   3.991  13.188  1.8157  0.6982  0.3433
 4378TIP3    H234626   4.359   3.971  13.063 -0.8807 -0.6973  2.2554
 4379TIP3   OH234627   0.760   6.722   5.053  0.5245 -0.6035  0.0615
 4379TIP3    H134628   0.817   6.646   5.069  1.0311 -0.2571 -0.0777
 4379TIP3    H234629   0.746   6.722   4.958 -0.8318 -1.4792  0.2318
 4380TIP3   OH234630   1.124   1.132  13.037 -0.9750  0.0853 -0.0376
 4380TIP3    H134631   1.213   1.136  13.002 -1.2776  0.3827 -0.7805
 4380TIP3    H234632   1.131   1.171  13.125 -0.8048  2.2822 -0.9640
 4381TIP3   OH234633   4.970   2.895  12.923 -0.4248  0.1316  0.0553
 4381TIP3    H134634   4.939   2.930  12.839 -2.3206 -0.6087  0.3981
 4381TIP3    H234635   4.931   2.951  12.989 -1.0662 -0.8236  0.5086
 4382TIP3   OH234636   1.178   4.134   1.957  0.0005  0.0595  0.5430
 4382TIP3    H134637   1.124   4.136   1.878 -0.2818 -3.1861  0.5202
 4382TIP3    H234638   1.117   4.112   2.027  0.2894  2.7051  1.7439
 4383TIP3   OH234639   4.125   1.212   4.963 -0.2281 -0.5242  0.1209
 4383TIP3    H134640   4.093   1.209   4.872 -0.2232 -0.7257  0.1249
 4383TIP3    H234641   4.135   1.120   4.987 -2.1911 -0.5555  1.0100
 4384TIP3   OH234642   3.275   4.448  16.896 -0.1547 -0.0736  0.5014
 4384TIP3    H134643   3.339   4.518  16.890 -0.6437  0.2986 -0.6505
 4384TIP3    H234644   3.247   4.432  16.806  0.4564 -2.2442  0.6273
 4385TIP3   OH234645   1.247   0.103  12.426 -0.0493  0.0466  0.0025
 4385TIP3    H134646   1.236   0.198  12.422 -1.7420 -0.1400 -1.8293
 4385TIP3    H234647   1.248   0.076  12.334 -0.5696 -1.7901  0.4961
 4386TIP3   OH234648   0.024   1.252  13.675  0.1361 -0.3166  0.3957
 4386TIP3    H134649   0.104   1.302  13.691  1.6771 -2.3536 -0.5060
 4386TIP3    H234650   0.006   1.208  13.759 -1.1935  1.6046  1.1740
 4387TIP3   OH234651   2.191   4.316  14.027  0.0048 -0.4587  0.0831
 4387TIP3    H134652   2.230   4.251  14.085 -0.3447 -0.5087  0.2627
 4387TIP3    H234653   2.097   4.313  14.046 -0.2879 -1.3333 -1.3127
 4388TIP3   OH234654   0.635   1.447   2.228 -0.8412  0.5814  0.1166
 4388TIP3    H134655   0.611   1.468   2.318 -1.1212  2.1607 -0.2879
 4388TIP3    H234656   0.555   1.412   2.189 -0.2865 -1.6619  0.8905
 4389TIP3   OH234657   5.528   0.695  14.141 -0.2908  0.7679 -0.5598
 4389TIP3    H134658   5.467   0.627  14.170  0.8776 -0.5403 -1.1189
 4389TIP3    H234659   5.491   0.726  14.058  0.4278 -0.9247 -1.5647
 4390TIP3   OH234660   1.543   4.438   2.963  0.0974  0.3472 -0.2106
 4390TIP3    H134661   1.539   4.409   2.872 -2.7121 -1.1055  0.2739
 4390TIP3    H234662   1.552   4.533   2.958  0.7104  0.2265 -1.9778
 4391TIP3   OH234663   5.707   5.957   4.256  0.1717 -0.2081  0.0112
 4391TIP3    H134664   5.625   5.997   4.227 -0.0465 -0.4472  0.2966
 4391TIP3    H234665   5.683   5.869   4.283  0.5580 -0.3484 -0.0903
 4392TIP3   OH234666   5.204   6.258   3.163 -0.2595 -0.4574 -0.1946
 4392TIP3    H134667   5.252   6.338   3.143  0.9089 -1.9089 -3.8804
 4392TIP3    H234668   5.167   6.274   3.250  2.0330  3.0240  0.3421
 4393TIP3   OH234669   5.870   4.502  14.734 -0.5848  0.4630  0.2840
 4393TIP3    H134670   5.870   4.409  14.713 -0.7888  0.8558 -1.7573
 4393TIP3    H234671   5.935   4.512  14.802 -1.0229 -1.2505  1.0008
 4394TIP3   OH234672   4.924   0.431   1.167 -0.2492 -0.1250  1.0409
 4394TIP3    H134673   4.991   0.405   1.230  1.5518  1.5783 -0.0281
 4394TIP3    H234674   4.930   0.365   1.098  1.0738  0.5203  0.4980
 4395TIP3   OH234675   3.239   5.236  13.620 -0.8075 -0.2582 -0.2620
 4395TIP3    H134676   3.204   5.225  13.709  0.6467  1.4993  0.5807
 4395TIP3    H234677   3.280   5.322  13.621 -0.9290 -0.1089 -2.7355
 4396TIP3   OH234678   5.629   4.530  14.310 -0.2839 -0.4364 -0.6122
 4396TIP3    H134679   5.696   4.581  14.357  1.1906 -1.3521 -1.6460
 4396TIP3    H234680   5.616   4.577  14.228 -0.1895 -0.7956 -0.8328
 4397TIP3   OH234681   4.689   1.782   0.395 -0.4592  0.0625 -1.0834
 4397TIP3    H134682   4.738   1.793   0.313  0.8574 -0.7466 -0.4425
 4397TIP3    H234683   4.742   1.720   0.446 -1.0250  0.8671  0.5577
 4398TIP3   OH234684   0.568   6.528  13.903 -0.1510 -0.1588  0.1997
 4398TIP3    H134685   0.651   6.514  13.949 -0.5132 -0.3617  0.8052
 4398TIP3    H234686   0.521   6.591  13.958 -1.3096 -1.7184  1.0588
 4399TIP3   OH234687   6.380   1.522  12.482 -0.0997 -0.4276  0.4908
 4399TIP3    H134688   6.350   1.439  12.518 -0.4803 -1.1524 -1.3907
 4399TIP3    H234689   6.304   1.557  12.435  0.4539  0.2974  0.1151
 4400TIP3   OH234690   3.542   5.570   4.213  0.1236  0.3708  0.0373
 4400TIP3    H134691   3.606   5.537   4.277 -0.4588  0.3902  0.6421
 4400TIP3    H234692   3.478   5.617   4.266  0.7227  2.1802 -0.7611
 4401TIP3   OH234693   0.536   5.372  14.244 -0.0611 -0.0110 -0.2707
 4401TIP3    H134694   0.550   5.281  14.219 -0.5741 -0.4652  1.0232
 4401TIP3    H234695   0.602   5.389  14.311 -1.0353  0.0379  0.6964
 4402TIP3   OH234696   2.227   3.579   4.315 -0.0764  0.5715 -0.1717
 4402TIP3    H134697   2.286   3.510   4.345  1.3796  0.8958 -2.1117
 4402TIP3    H234698   2.148   3.532   4.287  0.4385 -0.1995 -0.3669
 4403TIP3   OH234699   5.480   3.623  13.129 -0.3481  0.0474  0.0472
 4403TIP3    H134700   5.414   3.608  13.061  0.6258 -2.2749 -0.5159
 4403TIP3    H234701   5.561   3.638  13.080  0.0985 -0.2417  0.6856
 4404TIP3   OH234702   0.895   2.590   2.158 -0.0480  1.2095 -0.2635
 4404TIP3    H134703   0.875   2.556   2.071  1.9380  1.9876 -1.0956
 4404TIP3    H234704   0.965   2.533   2.190 -0.6797  1.0041  0.8034
 4405TIP3   OH234705   5.664   2.949  13.141 -0.0996 -0.5347 -0.0383
 4405TIP3    H134706   5.724   2.921  13.071 -0.2769  2.7564 -1.6621
 4405TIP3    H234707   5.701   3.031  13.174 -2.1622  0.0709  0.9592
 4406TIP3   OH234708   3.677   0.639   4.909  0.3312 -0.3710  0.1955
 4406TIP3    H134709   3.715   0.623   4.995 -0.1830 -0.7280  0.3596
 4406TIP3    H234710   3.587   0.665   4.927  0.1308 -0.7402 -0.2443
 4407TIP3   OH234711   6.728   3.633  13.172  0.1638 -0.0025 -0.9542
 4407TIP3    H134712   6.761   3.682  13.097 -4.1159  1.3837 -2.2429
 4407TIP3    H234713   6.651   3.587  13.138  0.1005 -2.2558  1.8324
 4408TIP3   OH234714   0.810   6.497  14.008 -0.1463 -0.2111  0.2529
 4408TIP3    H134715   0.832   6.590  14.008 -0.3362 -0.1491  1.5910
 4408TIP3    H234716   0.889   6.454  14.038 -0.2484 -0.4314  0.2071
 4409TIP3   OH234717   0.689   0.737  14.861  0.0512 -0.2503 -0.0200
 4409TIP3    H134718   0.754   0.773  14.800 -0.7597 -0.2061 -0.8764
 4409TIP3    H234719   0.686   0.644  14.839 -1.3090  0.0163 -1.0857
 4410TIP3   OH234720   2.357   5.764  14.999  0.1036  0.5078 -0.1397
 4410TIP3    H134721   2.293   5.829  14.970 -0.4553 -0.9312 -2.3191
 4410TIP3    H234722   2.369   5.783  15.092 -2.8574  1.3574  0.1646
 4411TIP3   OH234723   0.385   6.018   3.660 -0.2011  0.1018 -0.8661
 4411TIP3    H134724   0.479   6.025   3.679 -0.3179 -0.7844  0.1321
 4411TIP3    H234725   0.359   6.107   3.637  0.6829  0.5752 -0.1362
 4412TIP3   OH234726   5.383   5.990   3.614 -0.0010 -0.0163  0.5246
 4412TIP3    H134727   5.338   5.969   3.532 -0.5718  1.2998  0.4838
 4412TIP3    H234728   5.415   5.905   3.645  0.8381 -0.4671 -1.3963
 4413TIP3   OH234729   5.679   0.118  12.049  0.1233  0.6940 -0.1815
 4413TIP3    H134730   5.673   0.040  12.103 -0.1913 -0.0129 -1.2087
 4413TIP3    H234731   5.773   0.126  12.029 -0.0364 -0.6085 -1.7064
 4414TIP3   OH234732   6.676   3.558   0.698 -0.3001  0.0572 -0.1814
 4414TIP3    H134733   6.627   3.477   0.680 -0.1205 -0.1311  0.1712
 4414TIP3    H234734   6.730   3.571   0.620 -0.6611  0.0839 -0.4320
 4415TIP3   OH234735   5.559   5.398   2.691 -0.2486  0.1467  0.3629
 4415TIP3    H134736   5.475   5.435   2.717 -0.2291  0.3128  0.1951
 4415TIP3    H234737   5.585   5.343   2.765 -1.5100 -1.6171 -0.4363
 4416TIP3   OH234738   2.553   3.905   0.020 -0.0010  0.2247  0.3235
 4416TIP3    H134739   2.531   3.997   0.027  1.0652  0.4347  1.2047
 4416TIP3    H234740   2.506   3.863   0.092  2.5441  0.7168  2.3838
 4417TIP3   OH234741   1.401   0.592   0.437  0.2308 -0.4538 -0.4803
 4417TIP3    H134742   1.447   0.657   0.489  0.3511 -0.3425 -0.7215
 4417TIP3    H234743   1.451   0.512   0.449  1.3789 -0.0041 -1.9091
 4418TIP3   OH234744   1.038   4.003   0.795  0.3581 -0.1989 -0.3843
 4418TIP3    H134745   1.067   4.076   0.850 -2.6583  0.0508  1.0298
 4418TIP3    H234746   0.983   4.045   0.728 -2.2112 -1.1649  1.0207
 4419TIP3   OH234747   0.724   0.791  16.583  0.4432 -0.2680 -0.0502
 4419TIP3    H134748   0.803   0.844  16.588  0.4332 -0.0273 -1.8107
 4419TIP3    H234749   0.754   0.704  16.556  0.0312  0.1671 -2.0452
 4420TIP3   OH234750   6.346   1.968  16.956  0.5738  0.0856  0.1534
 4420TIP3    H134751   6.314   1.995  16.870  0.4417 -0.1218  0.1383
 4420TIP3    H234752   6.433   1.932  16.939  0.4558 -0.1637  0.0761
 4421TIP3   OH234753   0.088   4.149   1.283 -0.3786 -0.4242 -0.1331
 4421TIP3    H134754   0.088   4.244   1.295  0.1709 -0.1094 -2.2455
 4421TIP3    H234755   0.171   4.121   1.321  0.1391  0.1423 -0.8275
 4422TIP3   OH234756   2.524   1.598   0.251  0.1698  0.2721 -0.4547
 4422TIP3    H134757   2.511   1.511   0.289 -3.2369  0.3001 -1.2114
 4422TIP3    H234758   2.519   1.657   0.326 -0.1726 -0.0360 -0.2294
 4423TIP3   OH234759   1.997   6.104   5.001  0.1394  0.1818 -0.5647
 4423TIP3    H134760   1.980   6.175   4.938  0.6254  0.3020 -0.5624
 4423TIP3    H234761   2.081   6.067   4.973 -0.0130 -0.2638 -0.4418
 4424TIP3   OH234762   6.605   0.948  13.068 -1.4233  0.4896 -0.5698
 4424TIP3    H134763   6.662   0.932  12.993 -0.6613  1.0713 -0.1211
 4424TIP3    H234764   6.524   0.900  13.047 -1.1336  0.4448 -1.6419
 4425TIP3   OH234765   3.477   4.467   4.653  0.5879  0.6478  0.3435
 4425TIP3    H134766   3.516   4.387   4.691 -1.9529 -0.1038  1.6120
 4425TIP3    H234767   3.397   4.437   4.611 -0.0528  2.4511  0.1948
 4426TIP3   OH234768   3.274   2.959  14.049  0.1837  0.4759 -0.3064
 4426TIP3    H134769   3.184   2.927  14.047  0.3584 -0.1294  0.7366
 4426TIP3    H234770   3.318   2.914  13.977 -0.2764  0.5923 -0.6667
 4427TIP3   OH234771   0.033   2.581  12.805  0.0663  0.2318 -0.0011
 4427TIP3    H134772   0.028   2.585  12.900  1.2850 -0.1311  0.0954
 4427TIP3    H234773   0.113   2.628  12.783  0.5543 -0.8999 -0.7291
 4428TIP3   OH234774   0.271   2.688  11.443 -0.0067 -0.5070 -0.7695
 4428TIP3    H134775   0.219   2.628  11.496 -0.0071  0.4052  0.3179
 4428TIP3    H234776   0.358   2.649  11.441 -0.1323 -0.8011 -0.4971
 4429TIP3   OH234777   5.417   6.836   4.545  0.3075  0.6855 -0.6180
 4429TIP3    H134778   5.344   6.776   4.532  0.7278  0.3090 -1.3212
 4429TIP3    H234779   5.441   6.825   4.637  0.8263 -0.7780 -0.8892
 4430TIP3   OH234780   2.159   3.796   1.133  0.2936  0.1418 -0.0599
 4430TIP3    H134781   2.092   3.747   1.182 -0.0947  0.4527 -0.2799
 4430TIP3    H234782   2.189   3.735   1.066  0.4652 -0.1089  0.2379
 4431TIP3   OH234783   2.447   3.930   3.001  0.0939  0.2798  0.2551
 4431TIP3    H134784   2.357   3.956   3.019  0.1565  0.7830 -0.1177
 4431TIP3    H234785   2.481   3.901   3.085 -0.8561 -1.3326  0.1387
 4432TIP3   OH234786   3.016   0.459  16.414  0.2157 -0.0129 -0.3164
 4432TIP3    H134787   2.975   0.446  16.499 -1.4749  1.7781 -0.8036
 4432TIP3    H234788   2.966   0.403  16.354  3.1212 -3.4933  0.1684
 4433TIP3   OH234789   5.837   3.806  16.257 -0.3242  0.7480 -0.1441
 4433TIP3    H134790   5.851   3.720  16.218  0.3986 -0.1801  1.9871
 4433TIP3    H234791   5.884   3.867  16.199 -1.8109 -0.0664 -2.3231
 4434TIP3   OH234792   2.575   5.564   3.891  0.5820 -0.3582 -0.0866
 4434TIP3    H134793   2.509   5.573   3.823  0.7542 -1.0564 -0.3580
 4434TIP3    H234794   2.631   5.493   3.861  2.4039  1.2335 -0.6382
 4435TIP3   OH234795   5.746   0.968  14.318  0.6151 -0.1862  0.5234
 4435TIP3    H134796   5.748   0.874  14.301 -0.5232 -0.3539  1.1778
 4435TIP3    H234797   5.658   0.995  14.293  1.0555  0.7852 -0.0166
 4436TIP3   OH234798   5.194   4.617   2.521  0.2453 -0.6634  0.1926
 4436TIP3    H134799   5.153   4.653   2.442  0.0195 -0.8609  0.2205
 4436TIP3    H234800   5.278   4.662   2.526 -0.1647  0.1151  0.4018
 4437TIP3   OH234801   4.068   0.238   3.582 -0.6394 -0.2062 -0.2652
 4437TIP3    H134802   4.118   0.313   3.551 -0.9276 -0.3317 -1.0653
 4437TIP3    H234803   3.980   0.251   3.545 -1.7986  1.0048  2.6145
 4438TIP3   OH234804   6.121   5.609  14.755  0.1802  0.2394  0.3375
 4438TIP3    H134805   6.027   5.594  14.757  0.2262 -0.0843  2.2411
 4438TIP3    H234806   6.150   5.573  14.671 -1.1750 -1.0759  0.3990
 4439TIP3   OH234807   3.093   1.661  14.455  0.7886  0.3556  0.2208
 4439TIP3    H134808   3.117   1.660  14.548 -0.5559  0.6915  0.5954
 4439TIP3    H234809   3.085   1.754  14.434  0.7383  0.2712 -0.1352
 4440TIP3   OH234810   6.260   2.349   2.303 -0.3472  0.1819  0.0174
 4440TIP3    H134811   6.201   2.294   2.355  1.0834 -0.1517  1.3745
 4440TIP3    H234812   6.207   2.377   2.229 -1.3270 -2.5927 -0.4733
 4441TIP3   OH234813   2.013   4.909   6.205 -0.0918  0.3347 -0.5958
 4441TIP3    H134814   2.091   4.959   6.232 -0.3405  1.2000 -1.4104
 4441TIP3    H234815   1.989   4.947   6.121 -1.8996  0.6473  0.0338
 4442TIP3   OH234816   5.825   1.585   1.839  0.4916  0.2141  0.9999
 4442TIP3    H134817   5.875   1.510   1.804  3.3546  1.9710  0.9580
 4442TIP3    H234818   5.753   1.545   1.888  2.3907 -2.6300  1.7377
 4443TIP3   OH234819   6.161   3.360   1.638 -0.1718 -0.1446  0.3336
 4443TIP3    H134820   6.118   3.438   1.601 -2.2795 -1.8423 -1.0645
 4443TIP3    H234821   6.230   3.339   1.576 -0.3987 -0.0780  0.0553
 4444TIP3   OH234822   1.975   5.852   5.128 -0.3563 -0.4095  0.0745
 4444TIP3    H134823   1.960   5.943   5.103  0.1520 -0.4677 -0.4437
 4444TIP3    H234824   2.070   5.843   5.131 -0.4013 -1.0691 -0.3984
 4445TIP3   OH234825   4.338   3.502   3.806  0.0108  0.9326  0.6591
 4445TIP3    H134826   4.418   3.451   3.791 -0.3990  0.4556  0.0677
 4445TIP3    H234827   4.337   3.565   3.735 -0.0761  1.0213  0.7399
 4446TIP3   OH234828   6.837   1.907   0.304  0.3433  0.0091 -0.4202
 4446TIP3    H134829   6.796   1.837   0.356  0.9232  1.7214  2.5684
 4446TIP3    H234830   6.887   1.860   0.237  0.0989 -2.4407  0.9673
 4447TIP3   OH234831   0.062   2.309  13.076  0.6385 -0.1856 -0.2360
 4447TIP3    H134832   0.102   2.236  13.123  0.3305 -0.9507 -1.1337
 4447TIP3    H234833   0.136   2.356  13.038  0.8014 -0.5139 -0.3356
 4448TIP3   OH234834   4.953   0.463   5.324 -0.2422  0.1529 -0.2622
 4448TIP3    H134835   4.884   0.430   5.382  0.7131  0.1956  0.9542
 4448TIP3    H234836   5.010   0.514   5.382  1.2054 -0.4791 -1.0790
 4449TIP3   OH234837   2.924   2.517  11.726  0.2282 -0.6095  0.5327
 4449TIP3    H134838   2.917   2.564  11.642 -1.1421 -1.6616  0.0160
 4449TIP3    H234839   3.004   2.465  11.718  1.2683  0.8937  0.7532
 4450TIP3   OH234840   4.129   4.729  14.832  0.6643  0.7700  0.5664
 4450TIP3    H134841   4.206   4.731  14.776  1.2825 -0.2105  1.3419
 4450TIP3    H234842   4.120   4.819  14.864  0.8812  1.1134 -0.3201
 4451TIP3   OH234843   5.564   0.436  16.157 -0.0428  0.2219 -0.4172
 4451TIP3    H134844   5.577   0.526  16.127  0.4025  0.1156 -0.5462
 4451TIP3    H234845   5.566   0.384  16.076 -0.1291  0.0765 -0.3252
 4452TIP3   OH234846   3.682   6.776  14.270  0.4366  0.8723  0.0298
 4452TIP3    H134847   3.636   6.722  14.334 -1.1903  2.3544  0.2091
 4452TIP3    H234848   3.733   6.714  14.218  1.4806 -0.4346  2.4419
 4453TIP3   OH234849   0.069   4.832   4.293 -0.1680 -0.0565  0.0996
 4453TIP3    H134850   0.024   4.757   4.254 -0.2925  0.5568 -0.9631
 4453TIP3    H234851   0.117   4.795   4.367  0.3180 -1.3112 -0.8090
 4454TIP3   OH234852   1.912   3.401   0.256  0.6053  0.1030  0.0583
 4454TIP3    H134853   1.957   3.363   0.332  1.7682  0.3301 -0.4951
 4454TIP3    H234854   1.907   3.495   0.277  0.1542  0.0411  0.2313
 4455TIP3   OH234855   6.797   6.464   3.896  0.1379  0.1545 -0.0633
 4455TIP3    H134856   6.751   6.517   3.831 -1.3208 -1.5201 -0.4899
 4455TIP3    H234857   6.798   6.519   3.975 -0.4438  1.1833 -0.7430
 4456TIP3   OH234858   3.154   5.626   1.131 -0.1715 -0.1570 -0.0716
 4456TIP3    H134859   3.106   5.634   1.048 -1.1905  1.7967  0.6366
 4456TIP3    H234860   3.110   5.687   1.190  1.5303 -0.3096  1.4434
 4457TIP3   OH234861   3.406   2.073   2.695 -0.5521 -0.0959  0.2490
 4457TIP3    H134862   3.433   2.165   2.695 -0.2230 -0.1915  0.4366
 4457TIP3    H234863   3.476   2.027   2.743 -0.5654 -0.4854 -0.0988
 4458TIP3   OH234864   6.286   5.993   3.197 -0.0942  0.7020 -0.2561
 4458TIP3    H134865   6.335   5.911   3.206  0.3199  0.9780  0.0231
 4458TIP3    H234866   6.280   6.027   3.286 -1.9488  0.0273 -0.0714
 4459TIP3   OH234867   6.028   2.269   4.411  0.2314 -0.1893  0.6436
 4459TIP3    H134868   6.059   2.348   4.367 -0.8293  0.4099  0.9297
 4459TIP3    H234869   6.026   2.203   4.342  0.4564  0.2252  0.2323
 4460TIP3   OH234870   3.333   0.298  11.266  0.3905  0.5468  0.8243
 4460TIP3    H134871   3.327   0.204  11.282  1.5216  0.4598  0.7828
 4460TIP3    H234872   3.423   0.313  11.238 -0.1897  1.3976 -0.7707
 4461TIP3   OH234873   2.503   4.952   0.459  0.2302  0.6992  0.4941
 4461TIP3    H134874   2.410   4.953   0.482 -0.1235  1.8307 -0.8463
 4461TIP3    H234875   2.512   4.880   0.397 -0.0034  1.3042 -0.2579
 4462TIP3   OH234876   4.097   3.664   2.890 -0.3031  0.0312  0.3714
 4462TIP3    H134877   4.180   3.692   2.853  0.9499 -0.0181  2.9324
 4462TIP3    H234878   4.043   3.743   2.889  0.4453  0.5559  0.4119
 4463TIP3   OH234879   6.281   1.072  12.449  0.0729 -0.4124  0.1395
 4463TIP3    H134880   6.346   1.142  12.449 -0.4048  0.0678  1.3766
 4463TIP3    H234881   6.245   1.072  12.361  1.5929 -0.5682 -0.5141
 4464TIP3   OH234882   6.629   5.063   5.804  0.5841  0.0541  0.2038
 4464TIP3    H134883   6.693   5.052   5.874  0.7623 -1.3565 -0.1535
 4464TIP3    H234884   6.582   4.980   5.801  0.0931  0.3477 -0.8754
 4465TIP3   OH234885   4.787   5.134  15.051  0.3854 -0.3262  0.0097
 4465TIP3    H134886   4.779   5.228  15.035 -1.0020 -0.8426 -2.9831
 4465TIP3    H234887   4.746   5.120  15.136  1.6554  1.8528  1.0637
 4466TIP3   OH234888   2.124   5.620  17.002  0.0075 -0.2301 -0.0028
 4466TIP3    H134889   2.218   5.636  17.005 -0.0768  0.2152  2.6754
 4466TIP3    H234890   2.093   5.677  16.931  1.4235  1.7957  0.9041
 4467TIP3   OH234891   0.156   3.573  15.237 -0.0823  0.7207 -0.7739
 4467TIP3    H134892   0.127   3.563  15.146  1.4840  0.0610 -1.2426
 4467TIP3    H234893   0.202   3.658  15.238  1.0412  0.1304 -0.9471
 4468TIP3   OH234894   1.867   0.296   2.913 -0.3443 -0.6474  0.1190
 4468TIP3    H134895   1.923   0.220   2.924 -0.9225 -1.1768 -0.5282
 4468TIP3    H234896   1.782   0.260   2.888 -0.5279  0.2268 -0.5553
 4469TIP3   OH234897   2.300   1.013  15.907 -0.1647 -0.6173 -0.2097
 4469TIP3    H134898   2.217   0.997  15.862 -0.7906  0.4357  0.4879
 4469TIP3    H234899   2.273   1.056  15.989  1.1501  1.2955 -0.7211
 4470TIP3   OH234900   0.659   3.270   1.474  0.3851  0.4061  0.3176
 4470TIP3    H134901   0.599   3.242   1.405  2.3929 -0.1617 -1.3241
 4470TIP3    H234902   0.620   3.349   1.510 -0.1477  1.4494 -2.3439
 4471TIP3   OH234903   5.427   1.117  13.920  0.0613 -0.3884  0.4396
 4471TIP3    H134904   5.352   1.074  13.962 -0.9213 -0.1983 -1.0260
 4471TIP3    H234905   5.441   1.066  13.840 -1.3336  2.0935 -1.5139
 4472TIP3   OH234906   2.652   3.610  12.835 -0.4744 -0.2703 -0.0560
 4472TIP3    H134907   2.716   3.666  12.878  0.8524 -1.3295 -0.5917
 4472TIP3    H234908   2.598   3.670  12.784  1.6311  0.4714 -1.5484
 4473TIP3   OH234909   3.145   1.912   4.306 -0.2538 -0.5538  0.3216
 4473TIP3    H134910   3.074   1.973   4.325  3.2533  4.0282  0.6429
 4473TIP3    H234911   3.193   1.905   4.389  1.2629 -1.0905 -0.5588
 4474TIP3   OH234912   2.485   1.370  15.899 -0.1169  0.0551  0.1136
 4474TIP3    H134913   2.403   1.375  15.948  0.0266  0.9764  0.2772
 4474TIP3    H234914   2.527   1.455  15.913  0.7291 -0.2945 -0.2132
 4475TIP3   OH234915   3.584   2.903   6.329 -0.3474  0.3361  0.7010
 4475TIP3    H134916   3.597   2.995   6.305  2.0976 -0.0775  0.2168
 4475TIP3    H234917   3.490   2.896   6.344 -0.8167  2.5894 -0.6263
 4476TIP3   OH234918   0.909   0.517   3.732  0.0088 -0.0509  0.0056
 4476TIP3    H134919   0.888   0.545   3.821  0.2337 -1.8210  0.6472
 4476TIP3    H234920   1.004   0.506   3.732 -0.1219 -1.2939 -0.0491
 4477TIP3   OH234921   5.218   1.337   1.449 -0.2531 -0.5133  0.2687
 4477TIP3    H134922   5.264   1.392   1.386 -0.8607  0.1511  0.3822
 4477TIP3    H234923   5.136   1.314   1.405 -0.9752  0.4820  1.0133
 4478TIP3   OH234924   6.050   5.680  12.415  0.3731  0.0970 -0.1552
 4478TIP3    H134925   6.008   5.657  12.332 -1.1337 -2.2069  1.1551
 4478TIP3    H234926   6.101   5.602  12.439  0.3195  0.4973  1.3627
 4479TIP3   OH234927   5.434   5.272   0.751  0.3720 -0.2483 -0.1566
 4479TIP3    H134928   5.413   5.336   0.683 -1.1785 -1.0169 -0.4397
 4479TIP3    H234929   5.369   5.288   0.820  1.0445 -0.4027  0.5275
 4480TIP3   OH234930   2.093   1.716   1.791  0.1294  0.2873 -0.1446
 4480TIP3    H134931   2.129   1.706   1.880  0.8804 -0.3312 -0.5070
 4480TIP3    H234932   2.079   1.627   1.761  3.2988  0.2534 -1.9973
 4481TIP3   OH234933   4.610   6.715  15.476  0.1171  0.5588 -0.5458
 4481TIP3    H134934   4.577   6.792  15.430 -0.8489  1.4064  1.4463
 4481TIP3    H234935   4.539   6.651  15.470 -0.6024  1.1635  0.8197
 4482TIP3   OH234936   1.447   4.101   1.962 -0.1238  0.3401  0.2687
 4482TIP3    H134937   1.356   4.131   1.957 -1.1186 -2.0832  1.8573
 4482TIP3    H234938   1.470   4.111   2.055  1.2620  0.9272 -0.1184
 4483TIP3   OH234939   2.241   5.459   3.847  0.6378  0.7678 -0.2957
 4483TIP3    H134940   2.305   5.448   3.776 -0.8560 -0.8474 -1.4599
 4483TIP3    H234941   2.157   5.464   3.803 -0.1127  2.4420  1.2463
 4484TIP3   OH234942   0.920   1.064  12.665 -0.3404  0.8014 -0.3119
 4484TIP3    H134943   0.828   1.039  12.676 -0.4401  1.1065 -0.4726
 4484TIP3    H234944   0.933   1.134  12.728  0.6517 -1.3956  2.1430
 4485TIP3   OH234945   6.730   5.085   0.118  0.4108  0.2265 -0.5604
 4485TIP3    H134946   6.681   5.043   0.047 -0.5581  0.3847 -0.0133
 4485TIP3    H234947   6.705   5.035   0.196  0.7573  0.6230 -0.1944
 4486TIP3   OH234948   2.228   6.083  13.322 -0.2827 -0.3707  0.1938
 4486TIP3    H134949   2.137   6.091  13.293 -0.2055 -0.5802 -0.1191
 4486TIP3    H234950   2.277   6.069  13.241 -0.0074 -0.5296  0.3864
 4487TIP3   OH234951   3.813   6.098   1.387  0.3866  0.3318 -0.0867
 4487TIP3    H134952   3.799   6.003   1.380 -1.0567  0.5973 -1.1626
 4487TIP3    H234953   3.901   6.111   1.352 -0.1626 -0.4096 -1.8269
 4488TIP3   OH234954   3.600   2.177   0.465 -0.1056  0.0373  0.0770
 4488TIP3    H134955   3.570   2.181   0.556  0.5300  0.1379  0.2892
 4488TIP3    H234956   3.564   2.256   0.425 -0.2834  0.0587  0.2732
 4489TIP3   OH234957   5.523   3.717  16.437 -0.3724  0.0348  0.3238
 4489TIP3    H134958   5.429   3.725  16.453 -1.0341 -2.1647 -1.8568
 4489TIP3    H234959   5.536   3.756  16.351  0.8360  0.7369  0.8051
 4490TIP3   OH234960   1.876   2.076   3.926  0.3006  0.2688  0.5159
 4490TIP3    H134961   1.884   2.172   3.932 -2.6228  0.6004  1.1885
 4490TIP3    H234962   1.888   2.056   3.833  2.6361  1.0149  0.6013
 4491TIP3   OH234963   4.147   6.359   4.846  0.1197  0.4244 -0.6487
 4491TIP3    H134964   4.196   6.300   4.904 -0.1532  0.6369 -0.1937
 4491TIP3    H234965   4.067   6.311   4.826 -0.2078  0.7218 -0.0920
 4492TIP3   OH234966   4.104   4.005  15.366 -0.1500  0.5102 -0.4147
 4492TIP3    H134967   4.106   3.912  15.388  0.6542 -0.1537 -2.9689
 4492TIP3    H234968   4.196   4.033  15.374 -0.2631  0.8920 -0.4346
 4493TIP3   OH234969   6.314   2.276   3.821  0.4221  0.0414  0.3544
 4493TIP3    H134970   6.297   2.367   3.846 -0.9807  0.6090 -2.2382
 4493TIP3    H234971   6.346   2.282   3.731 -0.7996 -2.0559 -0.2912
 4494TIP3   OH234972   2.388   5.534   5.217  0.3692  0.0536  0.3162
 4494TIP3    H134973   2.408   5.556   5.126 -0.8764  1.4811  0.3552
 4494TIP3    H234974   2.325   5.462   5.211 -1.1137  1.3487 -0.0219
 4495TIP3   OH234975   5.019   6.560   5.544  0.4867  0.1251  0.0162
 4495TIP3    H134976   5.045   6.541   5.454  1.0920 -1.6115  0.5119
 4495TIP3    H234977   4.951   6.495   5.564  2.3323 -1.4844  1.6548
 4496TIP3   OH234978   5.981   2.318  10.999 -0.1310 -0.0135  0.1496
 4496TIP3    H134979   6.011   2.233  10.968 -1.8970 -0.2241 -1.1287
 4496TIP3    H234980   6.026   2.331  11.083 -0.4064 -2.5334  0.7482
 4497TIP3   OH234981   2.676   3.712   3.119  0.1918  0.5739  0.4213
 4497TIP3    H134982   2.724   3.661   3.184  2.2644 -0.9962 -2.1456
 4497TIP3    H234983   2.602   3.656   3.094  0.5577  0.2664  0.0072
 4498TIP3   OH234984   1.278   1.596  12.905  0.4655 -0.0834 -0.5468
 4498TIP3    H134985   1.251   1.544  12.829  0.4554 -1.4715  0.3809
 4498TIP3    H234986   1.206   1.658  12.918  0.3893  0.0554 -1.5571
 4499TIP3   OH234987   4.381   5.849  15.011 -1.0012  0.1785  0.4885
 4499TIP3    H134988   4.456   5.792  14.994  0.4984  1.3000  2.7590
 4499TIP3    H234989   4.345   5.816  15.094 -1.7515  0.8791  0.4475
 4500TIP3   OH234990   2.393   0.446   0.712 -0.1630 -0.4541 -0.0532
 4500TIP3    H134991   2.372   0.524   0.661 -1.9799 -1.8053 -1.5380
 4500TIP3    H234992   2.403   0.478   0.802 -0.4748  1.5168 -0.6633
 4501TIP3   OH234993   3.831   6.745  13.318  0.6449 -0.4648  0.1242
 4501TIP3    H134994   3.828   6.721  13.225 -3.1464  4.6769 -1.5823
 4501TIP3    H234995   3.901   6.811  13.323 -0.1278  0.3484  0.4829
 4502TIP3   OH234996   6.003   2.408  14.381 -0.0927 -0.3909 -0.3901
 4502TIP3    H134997   6.034   2.469  14.314 -0.4846 -1.0530 -1.2057
 4502TIP3    H234998   5.929   2.363  14.339 -0.0120 -1.1888  0.3072
 4503TIP3   OH234999   0.276   6.814  16.058 -0.0754  0.4567 -0.2552
 4503TIP3    H135000   0.339   6.752  16.021 -0.3771 -0.7755  1.1975
 4503TIP3    H235001   0.295   6.815  16.151 -2.3983 -0.2377  0.3015
 4504TIP3   OH235002   1.196   4.489  16.267 -0.3850 -0.1059 -0.5850
 4504TIP3    H135003   1.199   4.581  16.243  1.9545 -0.4975 -2.0489
 4504TIP3    H235004   1.125   4.453  16.213 -2.4002  1.0453  1.1389
 4505TIP3   OH235005   0.260   5.045  12.134  0.2571 -0.2236  0.5671
 4505TIP3    H135006   0.322   4.983  12.172  1.6028  1.2634  0.9094
 4505TIP3    H235007   0.289   5.055  12.043  0.5632  0.4675  0.7269
 4506TIP3   OH235008   3.340   4.986  11.215 -0.0107  0.1029 -0.3464
 4506TIP3    H135009   3.331   4.921  11.145  1.6348 -1.6739  0.9767
 4506TIP3    H235010   3.250   5.007  11.241 -0.6894 -3.2221  0.4976
 4507TIP3   OH235011   2.973   3.681   0.324  0.7305 -0.4399  0.4701
 4507TIP3    H135012   2.906   3.689   0.393  1.9284 -1.5406  1.8293
 4507TIP3    H235013   2.927   3.703   0.243 -0.7241  0.9933  1.6100
 4508TIP3   OH235014   0.762   4.438   1.140  0.3966  0.3339  0.1339
 4508TIP3    H135015   0.786   4.530   1.131  2.2336 -0.1206 -0.1224
 4508TIP3    H235016   0.671   4.434   1.110  0.5717  1.9179 -0.7472
 4509TIP3   OH235017   0.190   0.189  15.356 -0.0199  0.6090 -0.4814
 4509TIP3    H135018   0.224   0.213  15.442  1.7694  3.9167 -1.9543
 4509TIP3    H235019   0.206   0.094  15.351 -0.4074  0.2252  2.8249
 4510TIP3   OH235020   1.143   0.954   0.483  0.3061 -0.0547 -0.4396
 4510TIP3    H135021   1.084   1.013   0.531 -1.3586 -0.6357 -1.6969
 4510TIP3    H235022   1.165   1.002   0.404  0.3060 -0.4415 -0.6753
 4511TIP3   OH235023   5.416   6.254   3.705 -0.0930  0.4662 -0.2390
 4511TIP3    H135024   5.421   6.158   3.697 -0.8411  0.4054 -0.1277
 4511TIP3    H235025   5.484   6.277   3.767  0.8883  0.1360 -1.1641
 4512TIP3   OH235026   3.721   2.053   1.820 -0.5494  0.1139 -0.0088
 4512TIP3    H135027   3.796   2.041   1.762  0.6344 -1.8618  1.7487
 4512TIP3    H235028   3.740   2.133   1.868  0.1212 -0.0012 -0.0715
 4513TIP3   OH235029   1.804   4.241   4.158 -0.6868  0.2855  0.3355
 4513TIP3    H135030   1.821   4.323   4.112 -0.7574  0.3384  0.4065
 4513TIP3    H235031   1.812   4.262   4.251 -0.0443  0.0706  0.3354
 4514TIP3   OH235032   6.018   5.247  16.667  0.2388  0.5554 -0.4405
 4514TIP3    H135033   5.994   5.154  16.673  2.5874 -0.0365  0.8071
 4514TIP3    H235034   5.968   5.289  16.736 -1.1002  0.3155 -1.2290
 4515TIP3   OH235035   6.333   3.143  13.733  0.3665 -0.1928  0.3132
 4515TIP3    H135036   6.284   3.220  13.760 -0.5851 -1.0782  1.2004
 4515TIP3    H235037   6.374   3.168  13.650  0.0330  1.2271  0.5503
 4516TIP3   OH235038   1.499   4.961  11.304  0.3202 -0.2486  0.1136
 4516TIP3    H135039   1.555   5.015  11.359 -2.1374 -0.1236  2.7271
 4516TIP3    H235040   1.535   4.872  11.311  2.1002  0.3300 -1.0784
 4517TIP3   OH235041   2.486   3.929  12.879  0.0122  0.2781 -0.3584
 4517TIP3    H135042   2.498   3.863  12.947  0.5372 -0.4378 -1.1313
 4517TIP3    H235043   2.463   4.009  12.927 -2.9718 -0.9408  0.4877
 4518TIP3   OH235044   5.611   2.312   6.043 -0.2956 -0.0888  0.0151
 4518TIP3    H135045   5.528   2.303   5.995 -0.7708  1.6484  0.4444
 4518TIP3    H235046   5.588   2.297   6.134 -0.0426 -0.0913  0.0790
 4519TIP3   OH235047   6.743   1.095   4.499 -0.3973 -0.0465 -0.8785
 4519TIP3    H135048   6.695   1.165   4.454 -2.7510 -1.7744 -1.2215
 4519TIP3    H235049   6.714   1.101   4.590  0.7853  0.5314 -0.5312
 4520TIP3   OH235050   6.160   0.333  10.780  0.3337 -0.0818  0.1627
 4520TIP3    H135051   6.246   0.323  10.739 -0.2767  1.2027 -1.5470
 4520TIP3    H235052   6.179   0.350  10.872  1.9601  0.9722 -0.3329
 4521TIP3   OH235053   2.777   3.842   6.390 -0.3751  0.6157 -0.2967
 4521TIP3    H135054   2.773   3.916   6.329  0.4124  0.2700 -0.7750
 4521TIP3    H235055   2.716   3.866   6.460 -0.3206  1.5991 -0.5724
 4522TIP3   OH235056   2.400   3.496  14.550  0.2596  0.2657  0.3583
 4522TIP3    H135057   2.335   3.448  14.601  0.4717 -1.2684 -0.7493
 4522TIP3    H235058   2.377   3.588  14.563 -1.7004 -0.2045  0.5741
 4523TIP3   OH235059   2.528   3.452   0.157  0.0520 -0.1346 -0.1221
 4523TIP3    H135060   2.543   3.361   0.130  2.4997 -0.2023  1.1989
 4523TIP3    H235061   2.548   3.504   0.080 -0.1788 -0.6303 -0.5302
 4524TIP3   OH235062   5.192   0.220   4.411  0.0764 -0.0435 -0.3024
 4524TIP3    H135063   5.100   0.196   4.419  0.2297 -0.6798 -0.4672
 4524TIP3    H235064   5.192   0.294   4.349 -0.1838 -0.9241 -1.3799
 4525TIP3   OH235065   3.590   0.138  11.102 -0.6442 -0.2233  0.0525
 4525TIP3    H135066   3.666   0.079  11.092  0.6423  1.5057 -0.8516
 4525TIP3    H235067   3.528   0.107  11.036  0.9821  0.7945 -2.0705
 4526TIP3   OH235068   4.566   1.873  13.396  0.0321  0.1047  0.5977
 4526TIP3    H135069   4.540   1.919  13.316  1.8926  1.7833  0.8870
 4526TIP3    H235070   4.491   1.885  13.455 -0.0929  1.6417  0.1835
 4527TIP3   OH235071   6.513   3.383   5.321 -0.1101  0.1353 -0.6023
 4527TIP3    H135072   6.479   3.418   5.404 -0.4423  0.3345 -0.8224
 4527TIP3    H235073   6.455   3.418   5.254  0.0401 -0.1856 -0.9042
 4528TIP3   OH235074   3.929   1.955   0.167 -0.5082  0.4486 -0.3391
 4528TIP3    H135075   3.851   2.010   0.160 -0.1773  1.4858  2.6331
 4528TIP3    H235076   3.901   1.881   0.220 -0.2185 -0.8319 -1.9236
 4529TIP3   OH235077   1.908   3.629  12.857  0.4821  0.1097  0.5535
 4529TIP3    H135078   1.923   3.724  12.861  0.8886  0.0500  0.4331
 4529TIP3    H235079   1.812   3.621  12.861  0.4728  0.4737  1.5608
 4530TIP3   OH235080   1.670   0.397   4.718 -0.1697 -0.1628  0.0932
 4530TIP3    H135081   1.630   0.437   4.795  0.0543 -1.3060  0.8230
 4530TIP3    H235082   1.647   0.455   4.646 -3.3316 -0.8414  0.4152
 4531TIP3   OH235083   2.845   6.720   4.240 -0.1836  0.1153 -0.1581
 4531TIP3    H135084   2.921   6.663   4.239  0.5853  1.0462 -2.8324
 4531TIP3    H235085   2.854   6.772   4.320  0.8751 -1.1373  0.5729
 4532TIP3   OH235086   4.765   2.294  14.662  0.1839 -0.0106 -0.0622
 4532TIP3    H135087   4.754   2.387  14.680 -0.1387 -0.0532 -0.0264
 4532TIP3    H235088   4.766   2.288  14.566 -0.8957 -0.0826 -0.0856
 4533TIP3   OH235089   6.582   5.459   5.223 -0.2703  0.4007  0.0450
 4533TIP3    H135090   6.643   5.432   5.155 -0.9045 -1.5930  0.2072
 4533TIP3    H235091   6.499   5.471   5.177 -0.2033  1.2614  0.1287
 4534TIP3   OH235092   2.041   4.185  15.372  0.3674  0.8938 -0.1314
 4534TIP3    H135093   1.991   4.127  15.429 -0.3146  0.8151 -0.7939
 4534TIP3    H235094   2.041   4.142  15.287  0.5811  1.4533 -0.4221
 4535TIP3   OH235095   1.218   5.129   6.543  0.4438 -1.0966  0.2240
 4535TIP3    H135096   1.185   5.107   6.456  0.1125 -1.1225  0.3549
 4535TIP3    H235097   1.191   5.056   6.598  0.6535 -1.0808  0.3470
 4536TIP3   OH235098   6.641   1.862  14.770  0.7185  0.0210 -0.1454
 4536TIP3    H135099   6.564   1.810  14.791  1.0072  0.8292  3.5977
 4536TIP3    H235100   6.715   1.813  14.806  1.2411  1.8021  1.4306
 4537TIP3   OH235101   2.990   0.320   3.348  0.0127  0.1894  0.1834
 4537TIP3    H135102   3.030   0.374   3.279 -0.5004  3.7430  2.3950
 4537TIP3    H235103   3.063   0.296   3.405  0.0543 -0.2532 -0.0556
 4538TIP3   OH235104   1.768   1.931  13.731 -0.0420  0.0768  1.1128
 4538TIP3    H135105   1.832   1.975  13.674 -1.5087 -0.2558 -0.9109
 4538TIP3    H235106   1.804   1.844  13.746 -0.1290 -0.2296 -0.3037
 4539TIP3   OH235107   3.874   0.787   3.266  0.0043  0.4233 -0.2284
 4539TIP3    H135108   3.914   0.870   3.293 -0.1182  1.5604 -3.1319
 4539TIP3    H235109   3.795   0.780   3.319 -0.5419  2.7626 -0.5897
 4540TIP3   OH235110   3.891   4.568   2.247  0.0099  0.6290  0.4474
 4540TIP3    H135111   3.806   4.525   2.238  0.2964  0.1985 -0.2826
 4540TIP3    H235112   3.886   4.613   2.332 -0.5361 -0.3118  0.9366
 4541TIP3   OH235113   4.890   1.581  12.257 -0.2228 -0.1816  0.4269
 4541TIP3    H135114   4.938   1.529  12.321  0.1261  0.6715  0.8682
 4541TIP3    H235115   4.814   1.614  12.305  0.3714  0.9788  0.5943
 4542TIP3   OH235116   6.412   4.688  14.783 -0.0970 -0.0480 -0.1883
 4542TIP3    H135117   6.391   4.780  14.795  2.5753  0.6302 -0.1647
 4542TIP3    H235118   6.379   4.667  14.695 -1.4355  0.6554  0.1108
 4543TIP3   OH235119   1.166   5.464   0.494 -0.2454 -0.2813  0.1222
 4543TIP3    H135120   1.097   5.398   0.504 -0.1173 -0.2993  0.9052
 4543TIP3    H235121   1.134   5.539   0.544 -0.2074  0.1220 -0.4439
 4544TIP3   OH235122   6.701   3.910   4.290 -0.1255  0.3579  0.0476
 4544TIP3    H135123   6.760   3.937   4.361  0.1563 -1.1659  0.4389
 4544TIP3    H235124   6.616   3.947   4.314 -0.0024 -0.0224  1.1228
 4545TIP3   OH235125   6.591   0.576  15.953 -0.0616  0.0638  0.3087
 4545TIP3    H135126   6.537   0.654  15.968 -1.1579 -0.4455 -0.7831
 4545TIP3    H235127   6.545   0.506  15.998  0.1798 -0.2046  0.1405
 4546TIP3   OH235128   5.584   4.739  12.219  0.1914  0.3282 -0.5064
 4546TIP3    H135129   5.630   4.798  12.279  1.9503 -1.4436 -0.0335
 4546TIP3    H235130   5.495   4.734  12.254  0.4269  1.4710  0.3216
 4547TIP3   OH235131   5.842   4.961   5.504  0.1761 -0.5036  0.0709
 4547TIP3    H135132   5.898   5.023   5.550  2.1424 -0.1531 -2.5451
 4547TIP3    H235133   5.832   4.998   5.416  0.6889 -3.3796 -1.3354
 4548TIP3   OH235134   5.665   1.914  13.226 -0.0532 -0.4632  0.3533
 4548TIP3    H135135   5.666   2.002  13.186 -1.8455 -0.3328  0.5032
 4548TIP3    H235136   5.685   1.930  13.318  0.9210 -0.3880  0.1437
 4549TIP3   OH235137   1.132   1.390   3.775 -0.3924  0.1364 -0.6636
 4549TIP3    H135138   1.082   1.308   3.775  0.7521 -0.6297  1.1846
 4549TIP3    H235139   1.221   1.364   3.801  0.0462  1.9573 -0.2044
 4550TIP3   OH235140   0.701   0.674  11.989 -0.4688 -0.1893 -0.2986
 4550TIP3    H135141   0.749   0.752  11.961 -2.8077  1.6254  0.3848
 4550TIP3    H235142   0.609   0.701  11.988 -1.1978 -2.1552  2.3604
 4551TIP3   OH235143   0.714   1.035   1.535  0.6456 -0.2653  0.1834
 4551TIP3    H135144   0.619   1.033   1.537  0.6467 -0.5923  2.3027
 4551TIP3    H235145   0.738   0.982   1.458 -0.8567  0.5269 -0.8664
 4552TIP3   OH235146   2.534   1.093   1.641 -0.3240 -0.0223  0.0591
 4552TIP3    H135147   2.541   1.148   1.719  2.1589  0.1092 -0.1782
 4552TIP3    H235148   2.505   1.008   1.674  1.7598 -0.2939  1.3638
 4553TIP3   OH235149   4.822   6.173   4.447 -0.5372 -0.0980 -0.1753
 4553TIP3    H135150   4.782   6.168   4.360  0.8435  2.6509 -1.0800
 4553TIP3    H235151   4.825   6.266   4.466  2.1318 -0.4250  1.4134
 4554TIP3   OH235152   0.118   4.597   2.730 -0.2451 -0.1585 -0.0391
 4554TIP3    H135153   0.167   4.628   2.654 -1.0948  0.9031 -0.1774
 4554TIP3    H235154   0.173   4.619   2.805 -0.2690  0.5363 -0.2245
 4555TIP3   OH235155   5.388   3.229  15.225  0.1672  0.6392 -0.6692
 4555TIP3    H135156   5.403   3.297  15.159  1.1881 -1.4652 -2.7837
 4555TIP3    H235157   5.441   3.155  15.195  2.0070  0.0324  3.4732
 4556TIP3   OH235158   2.925   4.425  16.832  0.4520  0.8317 -0.1510
 4556TIP3    H135159   2.863   4.472  16.888  1.1222  2.0739 -0.4105
 4556TIP3    H235160   2.959   4.492  16.772  0.7707 -0.1789 -1.1502
 4557TIP3   OH235161   6.125   0.078  13.818 -0.3722  0.5810  0.2683
 4557TIP3    H135162   6.177   0.137  13.764  1.5805 -2.9765 -2.0979
 4557TIP3    H235163   6.169   0.077  13.903 -0.8919  2.9072  0.6433
 4558TIP3   OH235164   1.616   0.351  15.428  0.8442  0.2639 -0.1857
 4558TIP3    H135165   1.639   0.266  15.389  1.0948  0.6550 -0.9012
 4558TIP3    H235166   1.665   0.415  15.377 -0.3229  0.9581 -0.4851
 4559TIP3   OH235167   2.518   4.266   1.479  0.0764  0.3364 -0.2946
 4559TIP3    H135168   2.465   4.346   1.480 -1.3871 -0.5997  0.1270
 4559TIP3    H235169   2.551   4.258   1.569  0.4358  0.5893 -0.4011
 4560TIP3   OH235170   6.038   4.104   1.994 -0.1243 -0.0641  0.6598
 4560TIP3    H135171   5.998   4.120   2.079  0.4947  0.1415  0.9223
 4560TIP3    H235172   6.086   4.185   1.975 -0.9235  0.2161 -0.2726
 4561TIP3   OH235173   2.399   2.085   1.135  0.1320  0.2774  0.0697
 4561TIP3    H135174   2.434   2.002   1.105  0.2777  0.7254 -1.0600
 4561TIP3    H235175   2.383   2.135   1.055 -2.2490  0.4388  0.5811
 4562TIP3   OH235176   6.244   1.020   1.187 -0.7639 -0.3629  0.3774
 4562TIP3    H135177   6.217   1.081   1.256 -0.4940 -1.6116  1.6497
 4562TIP3    H235178   6.254   0.936   1.233 -0.7443 -1.2731 -1.2341
 4563TIP3   OH235179   0.959   6.005   4.409  0.6189 -0.8232  0.1513
 4563TIP3    H135180   1.006   6.035   4.486 -0.2723  2.2917 -0.3755
 4563TIP3    H235181   0.868   5.994   4.438  0.7319 -2.1467  0.0808
 4564TIP3   OH235182   6.577   6.165  12.651 -0.1323  0.9565 -0.3084
 4564TIP3    H135183   6.540   6.238  12.700 -1.0694  0.0669  0.3578
 4564TIP3    H235184   6.503   6.128  12.602  0.3045  0.4098 -0.5794
 4565TIP3   OH235185   4.196   0.500   0.898 -0.3112 -0.3551 -0.0180
 4565TIP3    H135186   4.256   0.457   0.837 -0.6643 -0.9792  0.0687
 4565TIP3    H235187   4.153   0.567   0.846 -0.9598 -1.2013 -0.5918
 4566TIP3   OH235188   0.421   3.568   5.564  0.5205  0.0082 -0.0482
 4566TIP3    H135189   0.436   3.479   5.598 -1.7170 -0.6742 -0.6426
 4566TIP3    H235190   0.404   3.621   5.642  1.6236 -0.1259  0.2967
 4567TIP3   OH235191   5.125   1.215   0.094  0.6267  0.2751 -0.5819
 4567TIP3    H135192   5.178   1.136   0.102  0.6138  0.4453  1.9362
 4567TIP3    H235193   5.035   1.185   0.111  0.3162  0.5189 -1.6929
 4568TIP3   OH235194   1.277   3.661  12.552 -0.3203 -0.2885 -0.2106
 4568TIP3    H135195   1.229   3.737  12.586  0.0818 -0.2490  0.2633
 4568TIP3    H235196   1.367   3.674  12.581  0.1012 -0.1135 -1.4998
 4569TIP3   OH235197   6.141   4.685   5.675 -0.3231  0.5164  0.1366
 4569TIP3    H135198   6.089   4.710   5.751 -3.0627  0.5698 -1.5950
 4569TIP3    H235199   6.082   4.631   5.623  2.2037 -1.4484 -0.9038
 4570TIP3   OH235200   2.385   6.464   2.585  0.1796 -0.2624 -0.8072
 4570TIP3    H135201   2.473   6.432   2.564  1.4426  3.2924 -1.6619
 4570TIP3    H235202   2.376   6.545   2.533 -2.9980  0.3191  0.4310
 4571TIP3   OH235203   0.250   4.185  14.073  0.1654 -0.4169 -0.1558
 4571TIP3    H135204   0.174   4.137  14.040  0.4587 -0.6683 -0.4684
 4571TIP3    H235205   0.281   4.133  14.147 -0.9485  0.5373  1.0324
 4572TIP3   OH235206   4.900   3.879   5.219  0.3320 -0.5682 -0.5191
 4572TIP3    H135207   4.818   3.898   5.173  0.1465 -1.6996 -0.6862
 4572TIP3    H235208   4.880   3.803   5.273  0.8389  0.1045  0.6603
 4573TIP3   OH235209   5.613   5.505   0.803  0.5939 -0.6495  0.1561
 4573TIP3    H135210   5.617   5.587   0.753 -0.2340 -1.5313 -1.4393
 4573TIP3    H235211   5.591   5.438   0.738  0.2898 -1.9990  1.5829
 4574TIP3   OH235212   2.814   0.984   2.562 -0.6273 -0.7387  0.6929
 4574TIP3    H135213   2.830   0.922   2.491 -0.1378  0.2917 -0.1253
 4574TIP3    H235214   2.719   0.987   2.570 -0.8209  0.6427 -1.3400
 4575TIP3   OH235215   1.410   6.308  15.684 -0.4896 -0.0901 -0.0405
 4575TIP3    H135216   1.332   6.301  15.741  0.2326  0.8873  1.1066
 4575TIP3    H235217   1.460   6.381  15.720  1.7518 -1.6513  0.2197
 4576TIP3   OH235218   5.056   0.619  12.011  0.0209  1.3439  0.5294
 4576TIP3    H135219   5.095   0.666  11.937 -0.2414  2.0559  0.8367
 4576TIP3    H235220   5.071   0.527  11.991 -1.5330  1.4103 -1.2700
 4577TIP3   OH235221   5.141   1.593   5.301  0.3446  0.7668  0.6877
 4577TIP3    H135222   5.150   1.639   5.218  0.1215  0.6510  0.5982
 4577TIP3    H235223   5.074   1.527   5.285  2.4698 -1.3954 -0.0179
 4578TIP3   OH235224   2.243   2.645   2.285  0.1647  0.0709  0.3226
 4578TIP3    H135225   2.179   2.700   2.239 -1.8597 -1.1761  1.5422
 4578TIP3    H235226   2.236   2.672   2.377  2.9539  1.3590  0.2560
 4579TIP3   OH235227   0.457   4.869  12.193  0.2515 -0.4488 -0.0569
 4579TIP3    H135228   0.525   4.835  12.135 -1.6183 -1.8609 -1.5292
 4579TIP3    H235229   0.475   4.828  12.278  1.8568  0.0896 -0.1076
 4580TIP3   OH235230   5.311   3.429  11.061 -0.4154 -0.0666 -0.3471
 4580TIP3    H135231   5.317   3.519  11.028  1.2480 -0.0993 -0.2131
 4580TIP3    H235232   5.234   3.393  11.017  0.1049  0.7713 -2.0415
 4581TIP3   OH235233   6.823   5.788  11.471 -0.0031 -0.0535  0.0552
 4581TIP3    H135234   6.877   5.735  11.413  1.7461  0.9142  0.7100
 4581TIP3    H235235   6.843   5.755  11.559  1.1506  1.6405  0.4748
 4582TIP3   OH235236   0.377   6.661  11.714 -0.2234  0.3504 -0.2252
 4582TIP3    H135237   0.284   6.649  11.697 -0.3250  1.3032 -0.3951
 4582TIP3    H235238   0.418   6.581  11.680 -0.8422  0.4897 -1.3484
 4583TIP3   OH235239   0.759   3.939  13.986 -0.1423  0.2783 -0.0483
 4583TIP3    H135240   0.736   3.863  13.932 -0.7075  0.8249 -0.5776
 4583TIP3    H235241   0.788   4.005  13.924 -0.3113  0.7366  0.3569
 4584TIP3   OH235242   2.119   6.484  11.934  0.3900  0.7910 -1.0860
 4584TIP3    H135243   2.190   6.434  11.975 -1.7162  1.1219  3.6065
 4584TIP3    H235244   2.050   6.419  11.918 -0.3168  1.2954 -0.1688
 4585TIP3   OH235245   6.253   1.076   5.307  0.1810 -0.3263  0.4118
 4585TIP3    H135246   6.287   1.101   5.393  0.3832  2.2929 -0.3330
 4585TIP3    H235247   6.322   1.104   5.246 -1.1123  0.4130 -0.7658
 4586TIP3   OH235248   1.101   4.750  10.935 -0.0525 -0.2764 -0.5909
 4586TIP3    H135249   1.127   4.754  11.027 -0.6539  0.9203 -0.4541
 4586TIP3    H235250   1.182   4.765  10.887  0.0299  0.5162 -0.2243
 4587TIP3   OH235251   0.763   2.377  14.604 -0.5464 -0.4021 -0.6530
 4587TIP3    H135252   0.756   2.472  14.604 -5.0457 -0.5440  0.1170
 4587TIP3    H235253   0.736   2.351  14.515  0.1885 -1.0230 -0.7114
 4588TIP3   OH235254   4.223   6.229   3.641 -0.3439  0.0478 -0.7021
 4588TIP3    H135255   4.267   6.246   3.558  0.1527  0.6510 -0.3239
 4588TIP3    H235256   4.255   6.297   3.700 -0.2626 -0.7028  0.1466
 4589TIP3   OH235257   3.151   0.333  15.793  0.4679  0.0038 -0.4564
 4589TIP3    H135258   3.203   0.399  15.747  0.9304  0.4268  0.6348
 4589TIP3    H235259   3.145   0.365  15.883 -0.9773 -0.4655 -0.3514
 4590TIP3   OH235260   5.921   4.456   2.042 -0.1869  0.7057 -0.3287
 4590TIP3    H135261   5.863   4.532   2.037  0.0207  0.7899 -2.0486
 4590TIP3    H235262   5.897   4.403   1.966  0.6177 -0.2651  0.0797
 4591TIP3   OH235263   3.624   6.337  12.652 -0.0468  0.5563 -0.1698
 4591TIP3    H135264   3.609   6.419  12.606  0.7811  0.4334 -0.7002
 4591TIP3    H235265   3.545   6.285  12.635  0.2665  0.4834 -1.5547
 4592TIP3   OH235266   2.175   1.828   2.749  0.0065 -0.9450  0.0981
 4592TIP3    H135267   2.141   1.900   2.696  1.2329 -1.2106 -1.1210
 4592TIP3    H235268   2.269   1.843   2.752 -0.0178 -0.8911  2.3534
 4593TIP3   OH235269   2.616   4.493   3.296  0.4197 -0.2711  0.2402
 4593TIP3    H135270   2.690   4.553   3.297  0.2362 -0.0391  0.0186
 4593TIP3    H235271   2.542   4.546   3.266  0.5393 -0.9202 -1.3412
 4594TIP3   OH235272   0.756   5.623  15.276 -0.0070  0.2533 -1.0174
 4594TIP3    H135273   0.708   5.652  15.198  2.1764 -0.6262 -2.8317
 4594TIP3    H235274   0.735   5.530  15.284 -1.0898  0.5725  0.1814
 4595TIP3   OH235275   2.876   2.754   1.192 -0.0231  0.0288  0.5311
 4595TIP3    H135276   2.839   2.680   1.144 -1.6145 -0.1672  1.9709
 4595TIP3    H235277   2.831   2.830   1.156  0.6698  0.1745 -0.0491
 4596TIP3   OH235278   6.601   1.570  10.857 -0.1485 -0.0193  0.3466
 4596TIP3    H135279   6.619   1.555  10.764  1.2577 -1.0069  0.7413
 4596TIP3    H235280   6.506   1.564  10.865 -0.4960  2.0259 -1.3228
 4597TIP3   OH235281   2.980   6.492  12.711  0.4518 -0.3227 -0.5415
 4597TIP3    H135282   2.943   6.573  12.746  2.8949 -0.2209  2.1045
 4597TIP3    H235283   3.004   6.514  12.621 -1.2830  1.0539 -0.7141
 4598TIP3   OH235284   0.821   6.354   3.487  0.1700 -0.0349 -0.2056
 4598TIP3    H135285   0.899   6.328   3.535 -0.0472  0.7607  0.5816
 4598TIP3    H235286   0.764   6.277   3.491  1.0692 -0.7860 -1.1722
 4599TIP3   OH235287   6.431   5.602  13.124 -0.0079  0.0510 -0.1248
 4599TIP3    H135288   6.415   5.690  13.158 -2.3219 -0.2179 -0.3705
 4599TIP3    H235289   6.347   5.558  13.130  1.0252 -2.0843 -0.2808
 4600TIP3   OH235290   2.371   2.860  16.966 -0.5598 -0.5562  0.0869
 4600TIP3    H135291   2.454   2.895  16.999 -1.5044  1.3862  0.5519
 4600TIP3    H235292   2.334   2.813  17.041 -0.8144  0.3611  0.5533
 4601TIP3   OH235293   1.185   0.803   3.204 -0.1608 -0.4492 -0.1512
 4601TIP3    H135294   1.125   0.857   3.153 -0.0221  0.7570  0.9051
 4601TIP3    H235295   1.256   0.863   3.227 -0.9213 -0.5115  2.6724
 4602TIP3   OH235296   6.650   5.296  17.008 -0.8225 -0.5458 -0.5492
 4602TIP3    H135297   6.722   5.356  17.030 -2.9865  2.2499 -0.5433
 4602TIP3    H235298   6.675   5.259  16.924  1.6073 -1.4575  0.4657
 4603TIP3   OH235299   4.389   2.920  16.701 -0.6110  0.6256  0.4395
 4603TIP3    H135300   4.473   2.883  16.675 -0.2843  0.4750  1.6788
 4603TIP3    H235301   4.364   2.873  16.780 -1.7450  0.8457  0.2382
 4604TIP3   OH235302   4.689   5.625   0.155 -0.2234 -0.2638 -0.1364
 4604TIP3    H135303   4.768   5.573   0.140 -1.0609 -1.5211 -0.3656
 4604TIP3    H235304   4.717   5.716   0.144  1.3735 -0.6209  0.6588
 4605TIP3   OH235305   5.315   5.408   3.445  0.3982  0.6138  0.0216
 4605TIP3    H135306   5.221   5.420   3.461  0.6218  0.7167  1.3805
 4605TIP3    H235307   5.320   5.330   3.389 -0.5212  0.9612 -0.5620
 4606TIP3   OH235308   4.668   2.808   0.099 -0.2548  0.2090 -0.2781
 4606TIP3    H135309   4.575   2.824   0.115 -0.0069  1.1805  0.2472
 4606TIP3    H235310   4.669   2.745   0.027 -1.3269 -0.7060  0.4740
 4607TIP3   OH235311   1.955   4.953   1.608 -0.0821  0.1958  0.1560
 4607TIP3    H135312   1.962   4.868   1.652 -2.6925 -0.2444 -0.0807
 4607TIP3    H235313   2.013   4.947   1.533  0.0946 -1.2221  0.3834
 4608TIP3   OH235314   1.049   5.255  14.312  0.8231  0.6064 -0.9613
 4608TIP3    H135315   0.998   5.284  14.237  1.6872 -0.6970 -2.1146
 4608TIP3    H235316   1.140   5.253  14.280  1.1349 -0.5467 -0.0865
 4609TIP3   OH235317   4.248   5.254  13.296  0.3172 -1.4142  0.2186
 4609TIP3    H135318   4.273   5.341  13.265  0.9217 -1.5941  0.1916
 4609TIP3    H235319   4.324   5.224  13.346 -0.3311 -1.4492  1.2108
 4610TIP3   OH235320   6.602   1.349   2.584  0.9321  0.8122  0.2134
 4610TIP3    H135321   6.571   1.359   2.673  0.8875  0.7557  0.2041
 4610TIP3    H235322   6.631   1.258   2.578 -0.6850  0.2953 -0.3366
 4611TIP3   OH235323   3.145   0.724   2.252  0.6702 -0.3671  0.0398
 4611TIP3    H135324   3.140   0.776   2.331  0.5108 -1.2939  0.6549
 4611TIP3    H235325   3.239   0.711   2.237  0.7999  1.6524 -1.1884
 4612TIP3   OH235326   3.062   6.063   3.526 -0.0713 -0.1305 -0.1513
 4612TIP3    H135327   3.062   6.005   3.451 -0.4948 -0.4460  0.0891
 4612TIP3    H235328   3.151   6.098   3.530  0.4012 -1.3280  0.1348
 4613TIP3   OH235329   5.460   4.261  11.167  0.2478 -0.5740 -0.5011
 4613TIP3    H135330   5.406   4.300  11.099  0.3542  0.4986  0.0123
 4613TIP3    H235331   5.548   4.295  11.150 -0.0470  1.2325  1.2444
 4614TIP3   OH235332   1.614   2.651   5.601 -0.4034  0.3257  0.2752
 4614TIP3    H135333   1.630   2.622   5.512  0.0072 -1.1475  0.7987
 4614TIP3    H235334   1.699   2.686   5.630 -0.2355 -0.1999  0.4343
 4615TIP3   OH235335   4.311   6.087  15.681 -0.0313 -0.3087  0.5857
 4615TIP3    H135336   4.303   5.994  15.659  0.3549 -0.6879  1.9938
 4615TIP3    H235337   4.291   6.092  15.774 -1.9652  1.3129  0.1592
 4616TIP3   OH235338   3.457   2.230   6.655 -0.0904 -0.2415  0.1491
 4616TIP3    H135339   3.463   2.135   6.663  0.3773 -0.1138  1.6466
 4616TIP3    H235340   3.527   2.263   6.712 -0.5605  1.0110  0.0316
 4617TIP3   OH235341   3.349   1.975  11.545  0.0871  0.0416 -1.2181
 4617TIP3    H135342   3.335   2.069  11.540 -0.8308 -0.1286 -2.2775
 4617TIP3    H235343   3.393   1.953  11.463  0.6605 -0.4023 -0.7990
 4618TIP3   OH235344   3.394   1.124   5.303  0.0605  0.3292 -0.5121
 4618TIP3    H135345   3.423   1.214   5.290 -0.6255  0.6044 -0.1418
 4618TIP3    H235346   3.313   1.117   5.252  0.0486 -0.0475 -0.4451
 4619TIP3   OH235347   6.379   2.921   0.622 -0.3361  0.3129 -0.5008
 4619TIP3    H135348   6.431   2.850   0.659 -0.1199  0.4827 -0.4790
 4619TIP3    H235349   6.364   2.895   0.531 -0.9057 -0.1251 -0.2867
 4620TIP3   OH235350   4.917   4.150   1.226 -0.1249 -0.3604 -0.2770
 4620TIP3    H135351   4.871   4.126   1.307  0.7948 -1.2849 -0.0002
 4620TIP3    H235352   4.852   4.140   1.157 -1.0220  0.7748  0.3777
 4621TIP3   OH235353   2.787   5.575  15.296  0.2364 -0.8496 -0.2932
 4621TIP3    H135354   2.725   5.527  15.352 -1.0405 -0.5147 -1.3577
 4621TIP3    H235355   2.860   5.595  15.354 -0.6881 -1.1827  1.0582
 4622TIP3   OH235356   3.019   1.577   3.647  0.3309 -0.1028 -0.4292
 4622TIP3    H135357   2.984   1.665   3.657  0.0702 -0.3924  1.5412
 4622TIP3    H235358   3.043   1.550   3.736 -0.3590 -2.3356 -0.8520
 4623TIP3   OH235359   0.651   2.493  15.336 -0.2283 -0.3505 -0.5405
 4623TIP3    H135360   0.614   2.551  15.402 -0.4223  1.2031 -1.9448
 4623TIP3    H235361   0.721   2.446  15.381 -1.7333 -0.9467  1.3020
 4624TIP3   OH235362   4.867   2.074  13.829  0.0418 -0.6958  0.0100
 4624TIP3    H135363   4.910   2.040  13.751  1.4020 -0.9797  0.8425
 4624TIP3    H235364   4.849   1.996  13.882  0.3336 -0.4048  0.5503
 4625TIP3   OH235365   4.575   6.314  16.776  0.1347  0.3845 -0.1044
 4625TIP3    H135366   4.590   6.284  16.865 -0.9695  0.8551  0.2450
 4625TIP3    H235367   4.482   6.338  16.773 -0.2655 -1.1626 -1.8248
 4626TIP3   OH235368   2.206   3.776  11.470 -0.4841 -0.6533  0.3169
 4626TIP3    H135369   2.285   3.772  11.415  1.5732 -1.6249  3.0892
 4626TIP3    H235370   2.139   3.730  11.419 -0.0610  2.0715 -3.1107
 4627TIP3   OH235371   1.184   5.933   2.216 -0.2401 -0.1129 -0.3745
 4627TIP3    H135372   1.139   6.017   2.220 -0.6748 -0.3299 -0.6864
 4627TIP3    H235373   1.264   5.946   2.267 -0.9092  0.1138  0.6400
 4628TIP3   OH235374   1.285   4.495  14.650  0.4965  0.0636 -0.2562
 4628TIP3    H135375   1.304   4.588  14.656  1.0047  0.3013 -3.7367
 4628TIP3    H235376   1.217   4.488  14.582  0.3863 -2.0960 -0.0041
 4629TIP3   OH235377   6.818   6.080  12.397  0.3636  0.2327  0.3833
 4629TIP3    H135378   6.726   6.068  12.375  0.3686  1.4785 -0.4012
 4629TIP3    H235379   6.855   6.126  12.322  1.4616  0.3692  0.9863
 4630TIP3   OH235380   5.479   3.682   3.754  0.3100 -0.7314 -0.3054
 4630TIP3    H135381   5.467   3.770   3.717  1.0200  0.2431  1.6207
 4630TIP3    H235382   5.557   3.690   3.810  1.0903 -2.9192 -0.9664
 4631TIP3   OH235383   2.066   1.322   3.144  0.0689  0.5346 -0.0947
 4631TIP3    H135384   2.071   1.249   3.082 -0.0887  0.7924 -0.4164
 4631TIP3    H235385   2.013   1.388   3.099  0.5957  1.0326 -0.0007
 4632TIP3   OH235386   5.279   2.093   4.554 -0.1202 -0.7211  0.3978
 4632TIP3    H135387   5.309   2.183   4.548 -1.9175 -0.0953  0.3178
 4632TIP3    H235388   5.246   2.084   4.643  1.6167 -1.8530  0.9801
 4633TIP3   OH235389   0.574   5.815  12.271 -0.5182  0.1128  0.4066
 4633TIP3    H135390   0.578   5.722  12.291  0.9446 -0.0057 -0.3741
 4633TIP3    H235391   0.548   5.819  12.179  0.4582  0.4339  0.1362
 4634TIP3   OH235392   5.756   5.353   3.917 -0.3098  0.1257 -0.0152
 4634TIP3    H135393   5.756   5.425   3.980  0.6930 -0.3340  0.5368
 4634TIP3    H235394   5.692   5.291   3.952 -0.9895  0.6144 -0.3588
 4635TIP3   OH235395   3.791   2.625   5.265  0.5869  0.5545 -0.8809
 4635TIP3    H135396   3.719   2.573   5.230  1.0711 -0.0442 -1.0204
 4635TIP3    H235397   3.870   2.574   5.243  0.8895 -0.3299  1.8596
 4636TIP3   OH235398   1.320   0.217  13.572  1.1311  0.1316  0.2716
 4636TIP3    H135399   1.308   0.238  13.479  1.4386  1.0627  0.4298
 4636TIP3    H235400   1.392   0.154  13.573  2.6636  1.7859  0.0134
 4637TIP3   OH235401   0.878   1.571   3.864  0.2031 -0.0756  0.1089
 4637TIP3    H135402   0.901   1.657   3.898 -1.4018  0.0063  1.0760
 4637TIP3    H235403   0.889   1.512   3.938  0.9852 -0.6773 -0.4623
 4638TIP3   OH235404   5.607   2.066   2.188  0.3388 -0.2107  0.1757
 4638TIP3    H135405   5.645   2.074   2.275  0.2590 -0.7297  0.2578
 4638TIP3    H235406   5.669   2.112   2.130 -1.1022  2.9257  0.8860
 4639TIP3   OH235407   0.434   5.127   1.716 -1.1246  0.7734 -0.0774
 4639TIP3    H135408   0.354   5.084   1.743 -1.2817  1.1927  0.1400
 4639TIP3    H235409   0.504   5.076   1.757 -1.2795  0.4224 -0.2485
 4640TIP3   OH235410   6.097   2.404   4.199 -0.2923 -0.4594 -0.2559
 4640TIP3    H135411   6.118   2.497   4.203 -0.5556 -0.3361 -1.3719
 4640TIP3    H235412   6.181   2.361   4.180 -0.4653 -0.2694 -1.5151
 4641TIP3   OH235413   6.224   4.808  13.058 -0.3169  0.1170 -0.7076
 4641TIP3    H135414   6.270   4.824  13.141 -0.7895 -0.0944 -0.3969
 4641TIP3    H235415   6.184   4.892  13.037 -0.7571  0.0027 -0.3602
 4642TIP3   OH235416   5.601   1.637  13.320  0.3205 -0.5304 -0.0489
 4642TIP3    H135417   5.627   1.680  13.401  1.6333 -0.5986 -0.4107
 4642TIP3    H235418   5.543   1.700  13.277  2.1937  0.9218 -0.5646
 4643TIP3   OH235419   5.891   6.116   3.708  0.0556  0.3136  1.0006
 4643TIP3    H135420   5.929   6.099   3.622 -0.0168 -0.8933  1.1876
 4643TIP3    H235421   5.799   6.091   3.699 -0.6608  2.7227  0.6950
 4644TIP3   OH235422   0.099   5.107  16.168 -0.7368  0.0039 -0.1539
 4644TIP3    H135423   0.037   5.056  16.220 -0.0552  0.9520  1.6971
 4644TIP3    H235424   0.105   5.191  16.214  2.1707 -0.1846 -0.0261
 4645TIP3   OH235425   3.838   3.302   2.577 -0.3122 -0.1067  0.4518
 4645TIP3    H135426   3.864   3.394   2.579 -0.0389 -0.0188 -2.3219
 4645TIP3    H235427   3.883   3.266   2.500 -2.9048 -1.7250 -0.4500
 4646TIP3   OH235428   6.194   4.498   4.250 -0.3854  0.0172 -0.0791
 4646TIP3    H135429   6.214   4.409   4.280 -0.1862 -0.6802 -2.0919
 4646TIP3    H235430   6.106   4.491   4.212 -0.2280  0.5787 -0.5650
 4647TIP3   OH235431   1.100   4.248   6.349 -0.0229  0.3161  0.2991
 4647TIP3    H135432   1.176   4.200   6.381  0.9543  1.0490 -0.8549
 4647TIP3    H235433   1.026   4.191   6.369  0.7779 -0.2830  1.7213
 4648TIP3   OH235434   2.065   3.337   5.992 -0.3963 -0.1381 -0.1350
 4648TIP3    H135435   2.003   3.346   5.919  0.4655 -3.7639 -1.5020
 4648TIP3    H235436   2.023   3.275   6.051  1.0255 -1.0345 -0.0420
 4649TIP3   OH235437   4.416   5.092  15.064 -0.1489  0.3239 -0.2983
 4649TIP3    H135438   4.433   5.002  15.091  0.0949 -0.2850 -2.3629
 4649TIP3    H235439   4.437   5.144  15.142  0.7296 -1.2946  0.5993
 4650TIP3   OH235440   2.758   5.315  13.866  0.1354 -0.1608  0.0581
 4650TIP3    H135441   2.781   5.389  13.922  0.9095 -0.4853  0.1865
 4650TIP3    H235442   2.778   5.344  13.778  0.1443 -0.1040  0.0786
 4651TIP3   OH235443   2.397   5.753   6.225  0.0050 -0.5815 -0.4029
 4651TIP3    H135444   2.441   5.834   6.248  0.1008 -0.0308 -2.3750
 4651TIP3    H235445   2.307   5.779   6.204 -0.0493 -1.0240 -0.7508
 4652TIP3   OH235446   0.766   3.966  14.657  0.0822 -0.4893  0.5899
 4652TIP3    H135447   0.765   3.884  14.608  1.8906 -0.9394  1.2273
 4652TIP3    H235448   0.674   3.992  14.663 -0.4340 -1.9775 -0.4194
 4653TIP3   OH235449   4.336   5.675   6.105 -0.0511 -0.2272 -0.9708
 4653TIP3    H135450   4.363   5.750   6.159  1.2268 -0.3703 -1.3699
 4653TIP3    H235451   4.242   5.689   6.091 -0.2614  0.2387  0.6028
 4654TIP3   OH235452   1.249   1.042  12.599 -0.2275  0.2460 -0.1306
 4654TIP3    H135453   1.182   0.973  12.601 -0.8574  0.8237 -0.8995
 4654TIP3    H235454   1.299   1.025  12.519 -1.0118  1.2370 -0.8623
 4655TIP3   OH235455   3.462   0.483   0.333 -0.5142 -0.1222 -0.6563
 4655TIP3    H135456   3.468   0.573   0.301 -0.9338  0.1468 -0.0021
 4655TIP3    H235457   3.409   0.490   0.413  1.3546 -0.6335  0.6858
 4656TIP3   OH235458   4.880   2.789   4.686  0.2395  0.0201  0.1192
 4656TIP3    H135459   4.801   2.797   4.740  0.7790  1.4330  0.7435
 4656TIP3    H235460   4.899   2.695   4.686 -1.4285 -0.3500 -0.0478
 4657TIP3   OH235461   5.950   2.986   6.662 -0.4131 -0.6606 -0.2010
 4657TIP3    H135462   5.855   2.987   6.661 -0.5099  0.5363  2.3808
 4657TIP3    H235463   5.973   2.903   6.704 -0.4814  0.1909  1.6347
 4658TIP3   OH235464   5.678   1.811   5.438 -0.1314 -0.2922 -0.3294
 4658TIP3    H135465   5.689   1.881   5.374 -0.1223 -0.1142 -0.1369
 4658TIP3    H235466   5.752   1.752   5.422  0.5765  0.3845  0.3153
 4659TIP3   OH235467   0.045   5.978  15.415  0.5423 -0.0148  0.1833
 4659TIP3    H135468  -0.013   5.943  15.347  0.5445 -0.3710  0.3593
 4659TIP3    H235469   0.089   5.900  15.450  1.1059  0.2450  0.0682
 4660TIP3   OH235470   0.287   1.740   0.732 -0.6321 -0.3535 -0.0807
 4660TIP3    H135471   0.366   1.730   0.785 -0.4633  0.5364 -0.1499
 4660TIP3    H235472   0.258   1.830   0.748 -0.1094  0.2348 -2.0998
 4661TIP3   OH235473   6.259   1.503  16.665 -0.3986  0.1089 -0.3992
 4661TIP3    H135474   6.249   1.503  16.570 -1.1630  2.1178 -0.3722
 4661TIP3    H235475   6.326   1.569  16.682  0.0463 -0.5344  0.4615
 4662TIP3   OH235476   3.908   4.223   3.975  0.4139 -0.5728 -0.1006
 4662TIP3    H135477   3.895   4.317   3.981 -1.0785 -0.6244 -1.6057
 4662TIP3    H235478   3.934   4.208   3.884 -1.1985 -1.7489 -0.4249
 4663TIP3   OH235479   3.039   3.741  15.742  0.0126 -0.6485 -0.0107
 4663TIP3    H135480   3.076   3.695  15.818  0.0780 -0.5278  0.0299
 4663TIP3    H235481   3.063   3.832  15.755  0.6391 -0.7336 -0.5502
 4664TIP3   OH235482   2.913   0.898  15.786  0.2750  0.1792  0.4748
 4664TIP3    H135483   2.955   0.960  15.846 -1.1785  0.5050  1.1848
 4664TIP3    H235484   2.915   0.943  15.701  1.7757 -0.0227  0.3731
 4665TIP3   OH235485   4.814   6.808  16.084  0.0390  0.2010  0.4278
 4665TIP3    H135486   4.754   6.850  16.022  1.6360  1.8010 -0.1041
 4665TIP3    H235487   4.781   6.833  16.170  0.0034  1.2226  0.1378
 4666TIP3   OH235488   0.193   6.524  11.133 -0.1628 -0.4024  0.1208
 4666TIP3    H135489   0.195   6.592  11.065 -0.3035 -0.7847 -0.2671
 4666TIP3    H235490   0.253   6.557  11.201  0.8170 -0.5030 -0.6646
 4667TIP3   OH235491   1.089   6.129   5.573 -0.0830 -0.3889 -0.6601
 4667TIP3    H135492   1.049   6.083   5.499  0.5945 -2.4536  0.2036
 4667TIP3    H235493   1.018   6.142   5.636  0.0406 -1.7342 -0.2238
 4668TIP3   OH235494   0.865   5.689   3.724 -0.5092 -0.5368  0.1038
 4668TIP3    H135495   0.942   5.689   3.667 -1.7160 -0.7171 -1.5993
 4668TIP3    H235496   0.855   5.780   3.750  0.6204 -0.6043  0.8871
 4669TIP3   OH235497   4.321   2.842  11.562 -0.0318 -0.4518  0.0512
 4669TIP3    H135498   4.378   2.808  11.493  1.6920  0.5048  0.9375
 4669TIP3    H235499   4.288   2.764  11.607  2.3340 -1.0525  0.8728
 4670TIP3   OH235500   2.234   0.944  11.739 -0.0889  0.1465 -0.3334
 4670TIP3    H135501   2.328   0.962  11.732  0.0480 -0.3486  0.1748
 4670TIP3    H235502   2.207   0.923  11.650  0.2321  0.5362 -0.5250
 4671TIP3   OH235503   0.507   2.207  12.577  0.2741 -0.2211 -0.1085
 4671TIP3    H135504   0.417   2.176  12.578  0.1332  0.1828  0.2702
 4671TIP3    H235505   0.532   2.209  12.484 -0.0596 -0.4635 -0.2021
 4672TIP3   OH235506   2.135   3.450  10.983 -0.2457  0.4255  0.3410
 4672TIP3    H135507   2.046   3.465  11.014 -0.7112 -1.2070 -0.1220
 4672TIP3    H235508   2.138   3.491  10.897 -0.4023  0.8790  0.5510
 4673TIP3   OH235509   5.340   4.803   5.330 -0.4983  0.2520  0.6384
 4673TIP3    H135510   5.422   4.783   5.374 -0.5250 -0.4753  0.3666
 4673TIP3    H235511   5.344   4.897   5.313 -0.1502  0.3971  1.4804
 4674TIP3   OH235512   0.529   6.358   3.899 -0.1860  0.3801  0.3910
 4674TIP3    H135513   0.455   6.419   3.906  0.6279  1.3254  1.1355
 4674TIP3    H235514   0.513   6.293   3.967  0.0781  1.0699  1.1346
 4675TIP3   OH235515   2.067   5.521  15.914 -0.2801 -0.3190  0.0168
 4675TIP3    H135516   2.114   5.492  15.992 -0.2275 -1.1042 -0.2966
 4675TIP3    H235517   2.110   5.476  15.842  0.5075  1.3855 -0.6246
 4676TIP3   OH235518   2.599   6.359   0.027  0.5863 -0.1629 -0.1733
 4676TIP3    H135519   2.638   6.362   0.115 -0.7222 -1.9383  0.5255
 4676TIP3    H235520   2.546   6.280   0.027 -0.9310  0.7769 -1.9573
 4677TIP3   OH235521   3.487   0.643   2.690  0.4836  0.2326 -0.1117
 4677TIP3    H135522   3.393   0.642   2.672  0.2365 -0.4820  1.1186
 4677TIP3    H235523   3.505   0.733   2.719 -0.0054  0.1337  0.5227
 4678TIP3   OH235524   6.249   3.249   3.819 -0.0248  0.1415 -0.3546
 4678TIP3    H135525   6.165   3.241   3.864  0.4599 -2.9504  0.2107
 4678TIP3    H235526   6.268   3.161   3.786  1.7803  1.3109 -2.7625
 4679TIP3   OH235527   1.175   3.605  17.033 -0.0359  0.3869 -0.1569
 4679TIP3    H135528   1.253   3.570  16.988 -1.4381 -0.5124 -2.0339
 4679TIP3    H235529   1.159   3.543  17.104  0.3841 -0.0033 -0.3923
 4680TIP3   OH235530   6.795   2.438   3.273  0.0797 -0.2827 -0.1038
 4680TIP3    H135531   6.868   2.460   3.214 -0.0028 -2.6963 -1.2228
 4680TIP3    H235532   6.720   2.425   3.215 -0.9135  0.6810  0.9064
 4681TIP3   OH235533   0.602   5.753  13.320 -0.2710 -0.2665  0.2054
 4681TIP3    H135534   0.579   5.718  13.407  1.3534 -0.5160  0.5729
 4681TIP3    H235535   0.625   5.675  13.269 -0.1727 -0.0371 -0.0977
 4682TIP3   OH235536   6.608   4.921   0.312  0.3036  0.0793  0.3736
 4682TIP3    H135537   6.532   4.881   0.354 -2.1198  1.2270 -2.5523
 4682TIP3    H235538   6.659   4.958   0.384 -1.7365 -0.9857  2.4847
 4683TIP3   OH235539   1.154   2.147   0.508 -0.2491  0.7048  0.1117
 4683TIP3    H135540   1.187   2.185   0.590  0.0351  2.2617 -0.6754
 4683TIP3    H235541   1.228   2.153   0.447 -1.0794  1.5978 -0.8601
 4684TIP3   OH235542   3.498   3.957   3.466 -0.9701 -0.0802  0.0421
 4684TIP3    H135543   3.508   3.959   3.562 -0.6728  1.8921  0.0203
 4684TIP3    H235544   3.412   3.919   3.451 -0.6838 -1.1866  1.0439
 4685TIP3   OH235545   1.593   3.989  12.000 -0.4379  0.0282  0.1872
 4685TIP3    H135546   1.516   3.969  11.948 -0.7847 -2.5783  1.5713
 4685TIP3    H235547   1.645   4.048  11.944 -2.2195 -0.1594 -1.7747
 4686TIP3   OH235548   1.012   6.209   2.464 -0.3374 -0.2499 -0.8098
 4686TIP3    H135549   1.092   6.256   2.442  0.2354 -1.1067 -0.5992
 4686TIP3    H235550   0.981   6.174   2.380 -2.6434  3.2293 -1.6299
 4687TIP3   OH235551   1.542   2.846   4.622  0.2613 -0.5267  0.0964
 4687TIP3    H135552   1.538   2.924   4.678  1.2647 -0.7749  0.5431
 4687TIP3    H235553   1.549   2.881   4.533 -0.5514 -0.1252  0.1759
 4688TIP3   OH235554   6.568   6.443  12.811 -0.1254 -0.1386 -0.1472
 4688TIP3    H135555   6.594   6.411  12.897  0.9069  0.4310 -0.2321
 4688TIP3    H235556   6.651   6.458  12.765 -0.6531 -1.1455 -1.5178
 4689TIP3   OH235557   1.647   2.192  16.007  0.4898  0.0675 -0.3866
 4689TIP3    H135558   1.575   2.200  16.069  0.5751 -2.2836  0.1134
 4689TIP3    H235559   1.662   2.281  15.976  0.5082  1.3995  3.0151
 4690TIP3   OH235560   5.596   4.770  12.872 -0.1872  0.4641 -0.1001
 4690TIP3    H135561   5.501   4.772  12.889 -0.1985  3.2370 -0.0725
 4690TIP3    H235562   5.603   4.750  12.779 -0.7709 -0.0077 -0.0527
 4691TIP3   OH235563   6.829   1.482  12.466  0.1368 -0.4873  0.5411
 4691TIP3    H135564   6.866   1.503  12.380  0.6089 -4.1882 -0.3373
 4691TIP3    H235565   6.904   1.479  12.525 -0.1995  2.1593  1.2209
 4692TIP3   OH235566   6.691   0.254   4.616  0.0852 -0.0563  0.4801
 4692TIP3    H135567   6.715   0.175   4.665  1.4327 -0.4484 -0.7656
 4692TIP3    H235568   6.758   0.318   4.640 -0.9818  0.7350  1.4571
 4693TIP3   OH235569   5.523   1.776  12.174  0.6725  0.6125 -0.9182
 4693TIP3    H135570   5.586   1.765  12.245 -0.2458  1.7777  0.1288
 4693TIP3    H235571   5.514   1.688  12.137  2.1147  0.2266 -0.4252
 4694TIP3   OH235572   4.713   6.441   1.964  0.2708 -0.3619  0.3678
 4694TIP3    H135573   4.625   6.473   1.982  0.0206 -1.0292  0.3414
 4694TIP3    H235574   4.740   6.488   1.884  1.1120  2.0761  1.9646
 4695TIP3   OH235575   5.616   3.867  13.449  0.2680  0.2299  0.0411
 4695TIP3    H135576   5.665   3.881  13.368  1.3378 -0.3828  0.5531
 4695TIP3    H235577   5.643   3.939  13.506  1.3839 -0.6448  0.6711
 4696TIP3   OH235578   2.962   4.218  14.908 -0.0054 -0.2167  0.1373
 4696TIP3    H135579   3.007   4.160  14.970  0.6291  1.1569  0.9937
 4696TIP3    H235580   2.899   4.266  14.961 -0.7575 -0.3412 -0.6241
 4697TIP3   OH235581   5.758   4.686  13.783 -0.2255 -0.0729 -0.3477
 4697TIP3    H135582   5.758   4.628  13.859  4.0115 -2.1459 -1.6085
 4697TIP3    H235583   5.724   4.633  13.712  0.7942 -0.0194 -0.8993
 4698TIP3   OH235584   6.326   5.924   4.912 -0.0096 -0.4549 -0.2414
 4698TIP3    H135585   6.312   5.840   4.957 -0.2477 -0.2979 -0.0217
 4698TIP3    H235586   6.356   5.983   4.981  2.0312 -0.8433 -0.7311
 4699TIP3   OH235587   3.635   3.561  15.859  0.0903 -0.1896  0.4616
 4699TIP3    H135588   3.619   3.642  15.907 -3.2323 -1.6252  2.1176
 4699TIP3    H235589   3.550   3.538  15.821  1.3970 -1.9013 -1.7120
 4700TIP3   OH235590   4.183   2.225   4.174  0.3345  0.1094 -0.1730
 4700TIP3    H135591   4.090   2.220   4.151  0.0908 -3.1407  1.0319
 4700TIP3    H235592   4.183   2.231   4.270  1.2882 -2.2894  0.0351
 4701TIP3   OH235593   6.363   1.986  14.586 -0.1034  0.0958  0.4508
 4701TIP3    H135594   6.411   1.911  14.551 -1.5211 -0.9792  0.7284
 4701TIP3    H235595   6.285   1.948  14.627 -1.4384  1.8023 -0.3783
 4702TIP3   OH235596   6.678   2.950   4.873 -0.0883 -0.1189  0.5107
 4702TIP3    H135597   6.744   3.017   4.856  1.1683 -1.3832  0.1970
 4702TIP3    H235598   6.694   2.922   4.963  0.3746 -1.0065  0.1688
 4703TIP3   OH235599   4.007   3.249   5.872  0.1021 -0.2627 -0.0725
 4703TIP3    H135600   3.923   3.267   5.912  0.4568  3.8112 -0.7538
 4703TIP3    H235601   4.067   3.239   5.945 -0.2439  1.3985  0.4793
 4704TIP3   OH235602   2.240   3.919  13.270 -0.4069 -0.1109  0.6514
 4704TIP3    H135603   2.276   3.935  13.357  0.9193 -1.1900  0.3238
 4704TIP3    H235604   2.202   4.003  13.244  0.9438  0.7792  1.4482
 4705TIP3   OH235605   0.895   2.827  15.768 -0.1132  0.3798  0.0251
 4705TIP3    H135606   0.869   2.838  15.677  1.7424 -0.2189 -0.6191
 4705TIP3    H235607   0.828   2.769  15.805  0.4424 -1.4729 -1.6753
 4706TIP3   OH235608   1.018   3.755   0.640 -0.7515 -0.0666 -0.8460
 4706TIP3    H135609   1.034   3.836   0.690  1.4366 -0.1194 -1.3530
 4706TIP3    H235610   0.928   3.763   0.610 -0.8219  1.8614 -0.2747
 4707TIP3   OH235611   4.843   4.966  12.595 -0.0396 -0.1709  0.1802
 4707TIP3    H135612   4.867   4.899  12.531  0.1201  0.2267 -0.1801
 4707TIP3    H235613   4.778   5.020  12.550  1.0422  0.9163 -0.1405
 4708TIP3   OH235614   1.057   2.122   5.074  0.5333  0.3047 -0.4925
 4708TIP3    H135615   0.991   2.053   5.084 -0.6344  1.5089  0.4677
 4708TIP3    H235616   1.024   2.195   5.127  0.9753  2.1806 -2.6720
 4709TIP3   OH235617   5.336   5.706   2.017  0.4347  1.3163  0.0345
 4709TIP3    H135618   5.366   5.695   1.926  0.8430  1.4101  0.1556
 4709TIP3    H235619   5.414   5.689   2.070  0.0635  0.6841  0.3958
 4710TIP3   OH235620   4.317   5.968  16.148 -0.4482  0.3969  0.0047
 4710TIP3    H135621   4.264   5.911  16.093  0.5878 -0.4924 -0.1170
 4710TIP3    H235622   4.391   5.913  16.175 -0.5760  1.0112  1.7417
 4711TIP3   OH235623   3.439   2.114  13.256  0.3882  0.2670  0.2725
 4711TIP3    H135624   3.354   2.074  13.274  0.6447  0.0595  1.0909
 4711TIP3    H235625   3.420   2.207  13.243  0.0214  0.2051  0.3571
 4712TIP3   OH235626   2.963   5.588  13.441 -0.9422  0.3310  0.3319
 4712TIP3    H135627   2.974   5.655  13.508 -2.8751  1.4448 -0.3598
 4712TIP3    H235628   2.972   5.635  13.358 -0.3383 -0.6682 -0.1946
 4713TIP3   OH235629   6.229   6.292  11.362  0.3451 -0.3460  0.3487
 4713TIP3    H135630   6.135   6.309  11.354  0.4992 -0.0908 -1.2475
 4713TIP3    H235631   6.244   6.213  11.310  1.4641  1.4188 -2.2486
 4714TIP3   OH235632   3.260   3.891   3.940  0.4564 -0.2168 -0.0556
 4714TIP3    H135633   3.171   3.926   3.943  0.3224 -0.5670  0.1886
 4714TIP3    H235634   3.291   3.909   3.851  0.4499  0.6520  0.1088
 4715TIP3   OH235635   2.208   5.216  10.515  0.4046 -0.1356 -0.0564
 4715TIP3    H135636   2.226   5.123  10.521  0.4760 -0.1546 -0.4902
 4715TIP3    H235637   2.154   5.225  10.436  0.4168  0.1902 -0.0319
 4716TIP3   OH235638   5.425   4.730  11.533  0.8784 -0.5867  0.4061
 4716TIP3    H135639   5.331   4.710  11.537  0.1246  2.1636 -0.6206
 4716TIP3    H235640   5.441   4.784  11.610  1.8941 -1.8943  1.1315
 4717TIP3   OH235641   2.799   0.685   5.134 -0.1164  0.0523 -0.0931
 4717TIP3    H135642   2.788   0.654   5.044 -2.5153 -2.5303  0.9342
 4717TIP3    H235643   2.880   0.643   5.164 -0.1064 -0.3050 -0.5996
 4718TIP3   OH235644   4.984   4.704  12.194  0.0950  0.4036 -0.3487
 4718TIP3    H135645   4.922   4.728  12.124  0.3827 -0.6035 -0.9641
 4718TIP3    H235646   4.963   4.613  12.214  2.7234 -0.7131 -2.0792
 4719TIP3   OH235647   3.721   4.181  12.973 -0.4456  0.4272 -0.4000
 4719TIP3    H135648   3.739   4.273  12.991  0.9444  0.6717 -2.6488
 4719TIP3    H235649   3.782   4.133  13.029 -0.0497  0.9343 -0.3966
 4720TIP3   OH235650   6.136   2.661  15.884  0.2520 -0.2385 -0.0722
 4720TIP3    H135651   6.122   2.632  15.794  0.6988  0.3798 -0.3453
 4720TIP3    H235652   6.192   2.739  15.877 -1.3414  1.0206  0.6086
 4721TIP3   OH235653   3.747   2.767  11.490 -0.1087  0.5330 -0.0824
 4721TIP3    H135654   3.765   2.860  11.478 -0.9062  0.6452 -0.4118
 4721TIP3    H235655   3.779   2.748  11.578 -0.1802  1.1784  0.0869
 4722TIP3   OH235656   4.794   6.491  11.104  0.5471 -0.5314 -0.8263
 4722TIP3    H135657   4.756   6.446  11.029  0.4158  0.7762 -1.5753
 4722TIP3    H235658   4.867   6.541  11.067  0.8817 -0.3736  0.0293
 4723TIP3   OH235659   1.047   2.843   4.729 -0.0873  0.4111 -0.7640
 4723TIP3    H135660   1.064   2.935   4.711  0.4391  1.0648  2.4213
 4723TIP3    H235661   1.083   2.829   4.817 -2.4109 -2.1836 -0.0818
 4724TIP3   OH235662   1.438   0.393   5.653  0.4214 -0.2873 -0.4411
 4724TIP3    H135663   1.475   0.472   5.612  1.6531 -2.1389 -3.2214
 4724TIP3    H235664   1.346   0.392   5.625  0.8527 -0.6918 -1.9498
 4725TIP3   OH235665   6.337   1.793   4.311  0.4434  0.3291  0.3257
 4725TIP3    H135666   6.349   1.887   4.298 -2.7513  1.0556  1.5794
 4725TIP3    H235667   6.256   1.786   4.362 -0.5302 -3.1667 -1.3368
 4726TIP3   OH235668   2.191   0.494  11.252 -0.1237 -0.2533 -0.4687
 4726TIP3    H135669   2.105   0.457  11.234  0.4477 -2.1188  0.3426
 4726TIP3    H235670   2.234   0.429  11.308  1.6374  0.8509 -0.4431
 4727TIP3   OH235671   6.762   5.316   4.783 -0.1136 -0.3519 -0.5344
 4727TIP3    H135672   6.694   5.278   4.838  0.9467 -1.3696  0.1128
 4727TIP3    H235673   6.844   5.282   4.818  0.6675 -0.1385 -2.0548
 4728TIP3   OH235674   2.913   5.810  14.053  0.0186  0.2488  0.2655
 4728TIP3    H135675   2.953   5.783  14.136  0.1826 -0.1574  0.0560
 4728TIP3    H235676   2.825   5.772  14.055  0.0948  0.0693  0.1614
 4729TIP3   OH235677   0.218   5.556   3.474 -0.4617  0.1957  0.1620
 4729TIP3    H135678   0.225   5.594   3.562  1.1528  2.8582 -0.9828
 4729TIP3    H235679   0.145   5.603   3.434  0.7836  1.3128 -0.8807
 4730TIP3   OH235680   0.971   3.878  10.986  0.8076  0.1453  0.4501
 4730TIP3    H135681   1.049   3.827  10.962  0.4433 -0.2970  0.1768
 4730TIP3    H235682   0.974   3.883  11.082  0.1339 -1.5997  0.6016
 4731TIP3   OH235683   1.378   6.581  13.738  0.3545  0.1782 -0.7552
 4731TIP3    H135684   1.283   6.582  13.730  0.1956 -0.0806  0.8086
 4731TIP3    H235685   1.407   6.525  13.665 -0.6598  0.3626 -1.3280
 4732TIP3   OH235686   2.975   3.170   2.063 -0.6103  0.0275 -0.0114
 4732TIP3    H135687   3.050   3.112   2.047 -2.0290 -1.4745 -1.6168
 4732TIP3    H235688   2.990   3.244   2.003 -1.2228 -1.1130 -1.6474
 4733TIP3   OH235689   0.814   3.492   3.228  0.0860 -0.0584 -0.0764
 4733TIP3    H135690   0.868   3.427   3.274 -0.5427  0.3938  1.3550
 4733TIP3    H235691   0.729   3.486   3.271 -0.7942 -0.2054 -1.7751
 4734TIP3   OH235692   4.624   4.310   5.180  0.4151  0.2308  0.2658
 4734TIP3    H135693   4.533   4.297   5.207  0.0839  0.5709 -0.6509
 4734TIP3    H235694   4.666   4.226   5.195  0.0103  0.1417  0.9287
 4735TIP3   OH235695   5.836   1.250   1.528  0.1190  0.4008 -0.4356
 4735TIP3    H135696   5.765   1.303   1.493 -0.4431  0.7056  1.0764
 4735TIP3    H235697   5.792   1.187   1.586  0.9641 -0.3228 -0.5636
 4736TIP3   OH235698   4.602   2.234  13.342  0.7361 -0.3437 -0.1136
 4736TIP3    H135699   4.536   2.293  13.306  0.9595  0.0562  0.1284
 4736TIP3    H235700   4.629   2.180  13.267  0.7829  0.0983 -0.4215
 4737TIP3   OH235701   4.965   3.963  12.444  0.1989 -0.1275  0.1025
 4737TIP3    H135702   4.904   3.904  12.401 -0.7888  1.8736 -1.4131
 4737TIP3    H235703   4.950   3.950  12.538 -2.6845  0.3594 -0.2033
 4738TIP3   OH235704   3.386   5.127  15.363  0.7281 -0.4735  0.2269
 4738TIP3    H135705   3.377   5.125  15.458  1.5413  1.5476  0.3960
 4738TIP3    H235706   3.298   5.111  15.330 -0.0121  0.9124  1.3964
 4739TIP3   OH235707   1.221   2.722  11.273  0.5634  0.0657 -0.2938
 4739TIP3    H135708   1.269   2.652  11.231  1.4323  0.1485  0.5405
 4739TIP3    H235709   1.150   2.678  11.320  1.4962 -0.3255  0.7695
 4740TIP3   OH235710   5.468   2.325  15.761 -0.2605  0.3432  0.4390
 4740TIP3    H135711   5.378   2.350  15.784 -0.5043 -0.2299  0.1300
 4740TIP3    H235712   5.464   2.307  15.667 -0.8075 -3.6439  1.0511
 4741TIP3   OH235713   1.137   4.789  16.982  0.8859 -0.2341 -0.2949
 4741TIP3    H135714   1.211   4.799  17.041  0.9221  0.4078 -0.4479
 4741TIP3    H235715   1.175   4.764  16.898  0.9228 -0.0141 -0.3446
 4742TIP3   OH235716   1.325   3.743   2.504  0.3965 -0.0435 -0.5880
 4742TIP3    H135717   1.354   3.832   2.523 -1.3401  0.8661 -1.8461
 4742TIP3    H235718   1.256   3.754   2.439  0.2742 -2.3453 -0.9327
 4743TIP3   OH235719   0.341   4.277   4.699  0.2191 -0.3382  0.5040
 4743TIP3    H135720   0.278   4.339   4.663  0.8006 -0.3252 -0.5435
 4743TIP3    H235721   0.342   4.204   4.637  1.3519 -0.2607  0.4053
 4744TIP3   OH235722   6.747   1.947  13.426 -0.2247  0.3935 -0.3993
 4744TIP3    H135723   6.656   1.961  13.453  0.1887  1.3209  0.5722
 4744TIP3    H235724   6.741   1.920  13.334 -1.4202  1.3959 -0.6304
 4745TIP3   OH235725   1.250   5.389   4.845 -0.5050  1.0781  0.4907
 4745TIP3    H135726   1.271   5.362   4.935 -0.2042 -0.9322 -0.1276
 4745TIP3    H235727   1.335   5.405   4.805 -0.1260 -2.9974 -0.8074
 4746TIP3   OH235728   5.324   3.856  14.267  0.9164  0.0490 -0.0623
 4746TIP3    H135729   5.241   3.890  14.301  1.4623  0.0346  1.3481
 4746TIP3    H235730   5.378   3.933  14.253  0.3437  0.1610 -2.0282
 4747TIP3   OH235731   0.848   2.535  15.859  0.4602  0.1789 -0.2294
 4747TIP3    H135732   0.796   2.454  15.851  1.8118 -0.7034 -0.3918
 4747TIP3    H235733   0.804   2.585  15.928  0.5088 -1.4429  1.0465
 4748TIP3   OH235734   3.827   5.683   4.013  0.3741  0.0050 -0.7662
 4748TIP3    H135735   3.793   5.607   4.061 -0.9217  1.4538  0.7761
 4748TIP3    H235736   3.892   5.721   4.073  1.9341 -0.5160 -2.0473
 4749TIP3   OH235737   4.035   5.961   1.685 -0.4053 -0.5879 -0.2273
 4749TIP3    H135738   4.071   5.972   1.597 -0.0696 -1.8282 -0.2597
 4749TIP3    H235739   4.106   5.922   1.736 -1.3727 -2.2467 -0.0686
 4750TIP3   OH235740   1.165   1.366  16.197  0.3022  0.0233  0.1267
 4750TIP3    H135741   1.183   1.275  16.172  0.5930  0.0399  0.2737
 4750TIP3    H235742   1.252   1.404  16.211  0.2318  0.6064 -0.9315
 4751TIP3   OH235743   2.648   3.322   2.608  0.1407  0.2151 -0.3358
 4751TIP3    H135744   2.702   3.313   2.529  0.0570  0.8711 -0.4753
 4751TIP3    H235745   2.710   3.334   2.679  0.2351 -0.9223 -0.2185
 4752TIP3   OH235746   1.198   4.010   3.775 -0.1598  0.3462  0.0562
 4752TIP3    H135747   1.203   4.035   3.867 -2.1089  0.3652  0.2002
 4752TIP3    H235748   1.268   3.945   3.764 -0.2371 -0.0624  1.6837
 4753TIP3   OH235749   0.633   0.381  13.839 -0.2764  0.5163  0.3342
 4753TIP3    H135750   0.590   0.392  13.754  0.0268 -0.9427 -0.0424
 4753TIP3    H235751   0.687   0.459  13.848 -0.9278  1.0745 -0.4455
 4754TIP3   OH235752   0.798   0.354   0.368 -0.1411 -0.0742  0.6547
 4754TIP3    H135753   0.739   0.325   0.438  1.1186 -0.0770  1.7513
 4754TIP3    H235754   0.759   0.435   0.336 -1.1006 -0.4342  0.8893
 4755TIP3   OH235755   1.590   4.591  13.411 -0.7019 -0.4224 -0.3663
 4755TIP3    H135756   1.649   4.648  13.461 -1.5830  0.6015 -0.4461
 4755TIP3    H235757   1.581   4.513  13.465 -0.0840 -0.1664  0.1231
 4756TIP3   OH235758   0.859   6.609  14.771  0.1608 -0.7157 -0.0094
 4756TIP3    H135759   0.796   6.673  14.805 -0.0836 -1.6296  1.3257
 4756TIP3    H235760   0.942   6.632  14.813 -0.0881 -1.7078  1.0539
 4757TIP3   OH235761   4.331   4.482  11.603 -0.0819  0.2945 -0.3142
 4757TIP3    H135762   4.288   4.495  11.518 -2.3812 -2.2730  0.2962
 4757TIP3    H235763   4.362   4.569  11.628 -2.2591  1.7646 -2.2873
 4758TIP3   OH235764   3.122   3.092  11.460  0.9509 -0.0060 -0.5898
 4758TIP3    H135765   3.100   3.120  11.371  0.1718 -0.4510 -0.5505
 4758TIP3    H235766   3.166   3.167  11.499 -0.0748  0.7616 -0.8579
 4759TIP3   OH235767   6.310   4.343   0.307  0.0406  0.3333  0.1956
 4759TIP3    H135768   6.294   4.262   0.356  0.4178 -0.2362 -0.6071
 4759TIP3    H235769   6.350   4.314   0.226  2.4727  1.4759  0.9020
 4760TIP3   OH235770   1.637   0.869  14.796  0.0871 -0.3145  0.1776
 4760TIP3    H135771   1.579   0.944  14.806  0.7498  0.2655 -0.2710
 4760TIP3    H235772   1.645   0.856  14.702 -0.1917 -1.0870  0.2518
 4761TIP3   OH235773   1.662   3.346  15.595 -0.2476  0.4336 -0.1374
 4761TIP3    H135774   1.577   3.305  15.608  0.0953 -0.8821 -1.6669
 4761TIP3    H235775   1.658   3.427  15.646 -1.9073 -0.2419  0.8911
 4762TIP3   OH235776   5.610   4.334  13.632 -0.3584 -0.5902 -0.4135
 4762TIP3    H135777   5.560   4.407  13.670  0.4828 -0.6595  0.8829
 4762TIP3    H235778   5.694   4.374  13.606 -1.4326 -0.1743 -3.7975
 4763TIP3   OH235779   6.333   4.228  11.170  0.0356  0.0523 -0.0046
 4763TIP3    H135780   6.347   4.276  11.088 -0.3808  1.7788  0.8860
 4763TIP3    H235781   6.421   4.199  11.195  0.2173 -0.1670 -0.8718
 4764TIP3   OH235782   2.876   2.404  16.001  0.0904  0.7134 -0.0045
 4764TIP3    H135783   2.936   2.436  16.068  1.6572  0.4134 -1.2157
 4764TIP3    H235784   2.852   2.316  16.031 -0.7192  1.2754  1.0778
 4765TIP3   OH235785   6.266   1.375  14.287  0.2150 -0.5211  0.1780
 4765TIP3    H135786   6.354   1.411  14.276 -0.0199 -0.1875 -0.6791
 4765TIP3    H235787   6.277   1.281  14.273  0.3091 -0.3813 -0.7229
 4766TIP3   OH235788   5.773   2.699  11.266 -0.3019  0.8173 -0.3048
 4766TIP3    H135789   5.856   2.728  11.304 -1.3094  1.7625  1.3108
 4766TIP3    H235790   5.771   2.739  11.179  1.4367 -0.2083 -0.8666
 4767TIP3   OH235791   5.813   0.376   4.072 -0.3453 -0.7700  0.0370
 4767TIP3    H135792   5.799   0.281   4.070  0.1710 -0.8453 -0.3995
 4767TIP3    H235793   5.905   0.387   4.045  0.0167 -0.2314  1.3968
 4768TIP3   OH235794   3.126   3.940  14.384  0.3604  0.1104  0.3275
 4768TIP3    H135795   3.128   4.032  14.357 -1.2890  0.2028  0.4110
 4768TIP3    H235796   3.190   3.897  14.328  0.8560  1.2432  0.0071
 4769TIP3   OH235797   5.963   1.772  12.851  0.0539  0.0415  0.1498
 4769TIP3    H135798   5.885   1.806  12.809 -0.5380 -1.0464  0.3202
 4769TIP3    H235799   6.030   1.838  12.836 -0.4177  0.1640 -1.5837
 4770TIP3   OH235800   3.500   5.360   1.008  0.2937 -0.5248 -0.1396
 4770TIP3    H135801   3.454   5.358   1.092 -0.1320 -0.3342 -0.3678
 4770TIP3    H235802   3.485   5.448   0.973 -0.5836 -0.9930 -0.9934
 4771TIP3   OH235803   0.796   1.783  14.474  0.4173  0.2746 -0.4792
 4771TIP3    H135804   0.832   1.870  14.456 -0.2650  0.9740  1.3722
 4771TIP3    H235805   0.866   1.738  14.521  0.2012  0.3670 -0.0695
 4772TIP3   OH235806   3.310   0.683  16.114  0.3219  0.2811 -0.0173
 4772TIP3    H135807   3.346   0.681  16.025 -0.9712 -0.3257 -0.5396
 4772TIP3    H235808   3.254   0.761  16.115 -2.3778 -1.5164 -0.8729
 4773TIP3   OH235809   4.607   3.414  14.951  0.5496  0.2185 -0.4639
 4773TIP3    H135810   4.594   3.383  15.041 -2.7020 -0.8499 -1.1442
 4773TIP3    H235811   4.621   3.508  14.960  1.5039 -0.0392  1.1997
 4774TIP3   OH235812   3.738   3.995  11.481 -0.0459  0.8426  0.4275
 4774TIP3    H135813   3.745   3.943  11.402  0.2328 -0.3470  1.2065
 4774TIP3    H235814   3.695   3.937  11.544  0.5577  1.4409  1.4138
 4775TIP3   OH235815   4.198   5.718  15.625  0.0852 -0.0172 -0.8107
 4775TIP3    H135816   4.272   5.752  15.674  0.3558 -0.2730 -1.0401
 4775TIP3    H235817   4.185   5.630  15.660  0.9400 -0.5993 -1.9049
 4776TIP3   OH235818   6.361   4.725   0.093 -0.5444 -0.6446 -0.4159
 4776TIP3    H135819   6.280   4.742   0.045 -1.4318 -1.4238  0.7474
 4776TIP3    H235820   6.386   4.636   0.068  0.7706  0.0902 -1.8664
 4777TIP3   OH235821   5.443   6.817  15.072 -0.0791  0.7158  0.2018
 4777TIP3    H135822   5.440   6.861  14.987 -2.5304  0.0461 -0.1305
 4777TIP3    H235823   5.413   6.728  15.055  0.6080  0.1830  1.5919
 4778TIP3   OH235824   6.535   4.004  13.378 -0.2067 -0.3529  0.3025
 4778TIP3    H135825   6.457   4.046  13.415 -0.7940 -1.6922  0.6639
 4778TIP3    H235826   6.560   4.060  13.304 -1.5178  0.1002  0.1781
 4779TIP3   OH235827   3.193   2.042  11.127  0.0627 -0.6054  0.5151
 4779TIP3    H135828   3.288   2.043  11.116  0.2717 -1.0203  2.0596
 4779TIP3    H235829   3.166   2.132  11.109  0.6007 -0.7125 -0.9441
 4780TIP3   OH235830   0.603   1.822  16.721 -0.9466 -0.4313 -0.5253
 4780TIP3    H135831   0.562   1.736  16.734  0.6185 -1.1607 -0.2366
 4780TIP3    H235832   0.577   1.873  16.798 -1.4575 -0.8148 -0.4388
 4781TIP3   OH235833   6.081   6.828  12.512 -0.2894 -0.3097 -0.3569
 4781TIP3    H135834   6.001   6.879  12.511  0.4252  0.9969  1.9024
 4781TIP3    H235835   6.070   6.766  12.584 -0.0156 -1.4758 -1.2736
 4782TIP3   OH235836   2.954   0.364  14.432  0.2075 -0.1935  0.2423
 4782TIP3    H135837   2.880   0.384  14.374  0.1235 -0.5827  0.2077
 4782TIP3    H235838   2.993   0.449  14.453 -0.9240  0.1135  1.1620
 4783TIP3   OH235839   5.176   3.418   3.413  0.5678 -0.2251 -0.2889
 4783TIP3    H135840   5.246   3.359   3.387  0.1148 -1.2683  0.7174
 4783TIP3    H235841   5.143   3.381   3.495 -1.3244  0.0671 -0.8598
 4784TIP3   OH235842   6.039   5.602  16.654 -0.1465 -0.2571  0.6448
 4784TIP3    H135843   5.993   5.571  16.576 -1.1757 -1.9466  1.8445
 4784TIP3    H235844   6.024   5.697  16.655  0.2146 -0.1291 -1.3685
 4785TIP3   OH235845   3.443   5.395  11.511  0.0477 -0.0895  0.0148
 4785TIP3    H135846   3.475   5.341  11.438  0.6409  1.4720 -0.9269
 4785TIP3    H235847   3.493   5.364  11.586  2.7747  1.1953 -1.1125
 4786TIP3   OH235848   0.418   5.661   1.129  0.0965  0.5182 -0.4864
 4786TIP3    H135849   0.355   5.704   1.188 -2.5642 -0.4399 -2.4215
 4786TIP3    H235850   0.414   5.714   1.049 -0.2872 -1.0520 -1.5418
 4787TIP3   OH235851   3.990   4.903   1.418  0.2616  0.5913  0.1440
 4787TIP3    H135852   4.022   4.986   1.451  1.7775 -0.1483  0.6047
 4787TIP3    H235853   3.984   4.846   1.495  0.9761 -0.2544 -0.4041
 4788TIP3   OH235854   6.613   0.071   0.099  0.0332 -1.1539  0.1525
 4788TIP3    H135855   6.612   0.114   0.185  0.2933 -3.0148  1.1315
 4788TIP3    H235856   6.678   0.001   0.107 -0.1726 -1.5795 -1.4680
 4789TIP3   OH235857   6.695   1.458  16.913  0.0895 -0.1565 -0.5308
 4789TIP3    H135858   6.762   1.391  16.900  0.2403  0.0343 -0.7566
 4789TIP3    H235859   6.618   1.425  16.866 -0.4622 -1.0793  0.9663
 4790TIP3   OH235860   2.145   6.325  16.126  0.0068 -0.1424  0.0080
 4790TIP3    H135861   2.067   6.343  16.073  0.8719  3.0138 -0.4179
 4790TIP3    H235862   2.112   6.313  16.215 -1.0952 -0.9086 -0.4869
 4791TIP3   OH235863   5.933   1.390  15.881  0.0802  0.7365  0.0615
 4791TIP3    H135864   5.894   1.310  15.918 -0.9218  0.5583 -1.2782
 4791TIP3    H235865   6.012   1.360  15.836  0.9298  0.8559  1.4216
 4792TIP3   OH235866   2.290   0.354   4.187  0.6388 -0.4278  0.4088
 4792TIP3    H135867   2.372   0.373   4.142 -0.2221  0.4087 -0.8444
 4792TIP3    H235868   2.228   0.334   4.117 -0.4547 -0.2114  1.2926
 4793TIP3   OH235869   4.039   5.205   5.196 -0.0642 -0.6254  0.2492
 4793TIP3    H135870   3.972   5.152   5.152  0.5144 -0.9269 -0.2907
 4793TIP3    H235871   4.008   5.295   5.188 -0.1261 -0.7102 -0.5009
 4794TIP3   OH235872   1.247   1.787   3.143  0.2315 -0.2360 -0.2355
 4794TIP3    H135873   1.280   1.832   3.220 -1.0177 -0.1735  0.2943
 4794TIP3    H235874   1.321   1.785   3.082  1.8113 -1.9431  1.6255
 4795TIP3   OH235875   0.138   0.079  13.332  0.5683  0.2893  0.3761
 4795TIP3    H135876   0.142   0.119  13.245 -1.4624  1.0352  0.5680
 4795TIP3    H235877   0.208   0.122  13.382  1.2646  0.3878 -0.6691
 4796TIP3   OH235878   1.319   2.660   1.693  0.1994 -0.4015 -0.3239
 4796TIP3    H135879   1.410   2.683   1.677  0.5783 -1.0253  0.8205
 4796TIP3    H235880   1.319   2.564   1.697 -0.8161 -0.5203 -2.0005
 4797TIP3   OH235881   1.455   1.127   4.335 -0.4280  0.1473  0.4191
 4797TIP3    H135882   1.523   1.123   4.267 -0.8215  2.4684 -0.1975
 4797TIP3    H235883   1.383   1.173   4.293 -1.8081 -0.9134  1.5614
 4798TIP3   OH235884   1.743   2.309   5.400  0.0314 -0.4781  0.1298
 4798TIP3    H135885   1.808   2.374   5.374  0.3738 -0.7877  0.2065
 4798TIP3    H235886   1.726   2.327   5.493 -2.7337  1.9739 -0.7133
 4799TIP3   OH235887   3.736   1.136  12.073  0.1584  0.0299  0.0278
 4799TIP3    H135888   3.665   1.186  12.032  0.3322  0.0277 -0.2785
 4799TIP3    H235889   3.692   1.059  12.111 -0.4304  1.3886  2.2832
 4800TIP3   OH235890   0.646   6.685   0.633  0.0682 -0.1871 -0.1131
 4800TIP3    H135891   0.631   6.779   0.642 -2.6415 -0.5366 -0.3150
 4800TIP3    H235892   0.716   6.678   0.568  0.8954  1.6749  0.5109
 4801TIP3   OH235893   5.773   4.505  12.786 -0.8223 -0.4657  0.5280
 4801TIP3    H135894   5.817   4.442  12.843 -0.1867 -1.7350 -1.2593
 4801TIP3    H235895   5.695   4.459  12.755 -1.6734  0.5554  1.0811
 4802TIP3   OH235896   1.051   5.282   2.732  0.3287 -0.1419 -1.1849
 4802TIP3    H135897   1.031   5.223   2.805 -1.4421  1.2093 -0.5026
 4802TIP3    H235898   1.015   5.238   2.655  1.2959 -1.0974 -1.1229
 4803TIP3   OH235899   2.611   3.880  15.662  0.3082 -0.1175 -0.2257
 4803TIP3    H135900   2.648   3.941  15.726  2.4132 -1.3588 -0.1891
 4803TIP3    H235901   2.586   3.803  15.713 -1.2021  0.1724 -0.4581
 4804TIP3   OH235902   1.430   6.822  13.596 -0.5292  0.2391 -0.2417
 4804TIP3    H135903   1.447   6.797  13.506  1.0680 -1.2156  0.4131
 4804TIP3    H235904   1.416   6.739  13.642  2.7456  0.5346  1.5984
 4805TIP3   OH235905   6.648   5.811  11.871 -0.5172  0.1328  0.3804
 4805TIP3    H135906   6.630   5.745  11.804 -0.2295  0.1887  0.2462
 4805TIP3    H235907   6.632   5.895  11.827  0.6204  0.2129  0.0692
 4806TIP3   OH235908   2.108   0.198   3.512 -0.5510  0.0282 -0.4089
 4806TIP3    H135909   2.089   0.177   3.420  0.9665  1.8017 -1.2030
 4806TIP3    H235910   2.107   0.114   3.557 -1.1163 -0.9055 -2.0871
 4807TIP3   OH235911   4.908   5.433   2.608 -0.5893 -0.0942 -0.2509
 4807TIP3    H135912   4.894   5.528   2.611 -0.7782 -0.1462  1.0756
 4807TIP3    H235913   5.003   5.423   2.619 -0.5836 -0.0655 -0.2758
 4808TIP3   OH235914   3.448   5.183  12.083  0.5516  0.0504 -0.2906
 4808TIP3    H135915   3.415   5.093  12.080  1.0296 -0.1275 -2.7486
 4808TIP3    H235916   3.444   5.208  12.175 -2.1484 -1.5233  0.1197
 4809TIP3   OH235917   6.169   5.731  14.461 -0.2405 -0.2909  0.3440
 4809TIP3    H135918   6.217   5.669  14.516 -2.2496 -0.6487  1.8167
 4809TIP3    H235919   6.168   5.690  14.375  3.1541  0.3643 -0.1584
 4810TIP3   OH235920   1.189   3.485   4.524  0.5583  0.0981 -0.6529
 4810TIP3    H135921   1.241   3.532   4.458  1.9193  0.1629  0.4001
 4810TIP3    H235922   1.098   3.504   4.502  1.0292  1.7225 -1.3568
 4811TIP3   OH235923   3.581   3.253  14.799  0.0838 -0.0927 -0.5101
 4811TIP3    H135924   3.494   3.229  14.768 -0.0507 -1.1356  0.6091
 4811TIP3    H235925   3.632   3.265  14.719 -0.8700 -0.3126 -1.1631
 4812TIP3   OH235926   5.502   5.159  11.556 -0.3489  0.3403  0.5444
 4812TIP3    H135927   5.483   5.217  11.483  2.2588 -0.1608 -0.6387
 4812TIP3    H235928   5.549   5.213  11.619 -0.3428  0.1758  0.6830
 4813TIP3   OH235929   2.323   1.582  14.056  0.6644 -0.0326  1.2703
 4813TIP3    H135930   2.294   1.520  14.123  1.5060 -2.1232 -0.1921
 4813TIP3    H235931   2.286   1.548  13.974  1.1417  1.4204  0.4043
 4814TIP3   OH235932   1.770   2.768  14.150  0.1780 -0.1423 -0.2116
 4814TIP3    H135933   1.717   2.690  14.166 -3.4925  1.1316 -3.9691
 4814TIP3    H235934   1.795   2.799  14.237 -0.9067 -3.7186  1.5676
 4815TIP3   OH235935   5.517   0.035   4.283  0.3556  0.2317  0.0886
 4815TIP3    H135936   5.463   0.101   4.238 -0.2020  0.2844  0.8077
 4815TIP3    H235937   5.471   0.020   4.366  1.0280 -0.3196  0.3672
 4816TIP3   OH235938   1.762   2.651  15.111  0.1326 -0.0706 -0.0858
 4816TIP3    H135939   1.813   2.661  15.031 -0.0650  0.7026 -0.1175
 4816TIP3    H235940   1.806   2.706  15.176 -1.3475  1.6520 -0.4560
 4817TIP3   OH235941   6.033   3.343  15.927 -0.5698  0.4776 -0.2280
 4817TIP3    H135942   6.093   3.309  15.993  3.3648 -0.1227 -3.6740
 4817TIP3    H235943   6.035   3.438  15.940 -0.7908  0.3013  1.1902
 4818TIP3   OH235944   5.173   1.137   1.640  0.2590  0.0569 -0.0267
 4818TIP3    H135945   5.188   1.054   1.595 -3.6207 -0.1866 -1.3392
 4818TIP3    H235946   5.217   1.202   1.586  1.4127 -0.9032 -0.2747
 4819TIP3   OH235947   1.107   4.854  13.769  0.2727  0.2919 -0.0825
 4819TIP3    H135948   1.152   4.922  13.820  1.3486  0.6279 -1.4200
 4819TIP3    H235949   1.107   4.778  13.827  1.6091  0.6114  0.3870
 4820TIP3   OH235950   3.535   5.549   2.173  0.5385 -0.3026  0.7416
 4820TIP3    H135951   3.444   5.574   2.190  0.2140 -1.0571  0.1567
 4820TIP3    H235952   3.574   5.538   2.260  0.5444  1.6184  1.0341
 4821TIP3   OH235953   0.491   2.245  11.845  0.3043  0.1126 -0.5980
 4821TIP3    H135954   0.535   2.298  11.911  0.5366 -0.5513 -0.2117
 4821TIP3    H235955   0.531   2.271  11.762 -0.1248  1.0917 -0.5099
 4822TIP3   OH235956   5.695   6.549  15.189  0.5774  0.6745  0.3055
 4822TIP3    H135957   5.743   6.468  15.170  0.2411  0.6618 -0.5443
 4822TIP3    H235958   5.709   6.564  15.282  2.6337  0.9259  0.0041
 4823TIP3   OH235959   4.689   0.712   4.691  0.5823 -0.1467  0.0542
 4823TIP3    H135960   4.711   0.767   4.615 -1.7215 -1.6113 -1.8163
 4823TIP3    H235961   4.596   0.692   4.680  0.7993 -2.6016  1.8297
 4824TIP3   OH235962   5.905   1.290   1.914 -0.2056  0.2556 -0.3076
 4824TIP3    H135963   5.978   1.352   1.923 -1.2086  1.4410 -0.0912
 4824TIP3    H235964   5.937   1.225   1.851  1.9655 -0.6971  1.6172
 4825TIP3   OH235965   4.689   0.448   1.788 -0.5132 -0.1767  0.1669
 4825TIP3    H135966   4.679   0.541   1.770 -0.9867 -0.2107  0.2357
 4825TIP3    H235967   4.600   0.414   1.785 -0.2807 -0.7563 -0.5633
 4826TIP3   OH235968   0.781   3.424  13.318 -0.2340 -0.2153 -0.6008
 4826TIP3    H135969   0.810   3.489  13.254  1.4527  1.2407  1.5078
 4826TIP3    H235970   0.689   3.409  13.296 -1.1890  4.0736 -0.3223
 4827TIP3   OH235971   0.701   3.049   4.017 -0.6550  0.5211 -0.2683
 4827TIP3    H135972   0.709   3.103   3.938 -0.7494  0.3788 -0.3746
 4827TIP3    H235973   0.685   2.960   3.984 -1.0771  0.5281 -0.0807
 4828TIP3   OH235974   0.700   4.385   2.138 -0.5482  0.5374 -0.2278
 4828TIP3    H135975   0.665   4.391   2.227 -0.7943  0.3122 -0.3057
 4828TIP3    H235976   0.793   4.368   2.150  0.1079  3.8097 -0.0071
 4829TIP3   OH235977   2.896   2.126  16.600  0.1632  0.0106  0.1959
 4829TIP3    H135978   2.923   2.211  16.633  0.5796 -0.3584  0.8324
 4829TIP3    H235979   2.801   2.132  16.592  0.1216  0.3175  0.8855
 4830TIP3   OH235980   4.640   5.861  12.069 -0.0936 -0.6020  0.1003
 4830TIP3    H135981   4.630   5.957  12.069  0.5864 -0.5191  0.8610
 4830TIP3    H235982   4.585   5.832  11.996  0.2993  0.4302 -0.6430
 4831TIP3   OH235983   3.307   5.498   5.735 -0.1581  0.7431 -0.1003
 4831TIP3    H135984   3.291   5.462   5.823 -0.4965 -1.0149 -0.8351
 4831TIP3    H235985   3.398   5.528   5.738 -0.1856  0.7733  0.8684
 4832TIP3   OH235986   6.122   1.125  15.246  0.2115  0.3808  0.4771
 4832TIP3    H135987   6.037   1.086  15.265  0.3426  0.2648  0.8318
 4832TIP3    H235988   6.107   1.178  15.168  0.1432 -0.8167 -0.3583
 4833TIP3   OH235989   0.158   1.589  15.297 -0.0369  0.0464  0.0551
 4833TIP3    H135990   0.167   1.671  15.347  0.4652  0.0372 -0.0138
 4833TIP3    H235991   0.090   1.540  15.344  1.3035 -0.5086  1.5015
 4834TIP3   OH235992   5.751   3.693   2.667 -0.3168  0.2308  0.0997
 4834TIP3    H135993   5.811   3.621   2.651 -0.9526 -0.2502 -0.1709
 4834TIP3    H235994   5.669   3.651   2.695 -0.3130  0.9022  1.1924
 4835TIP3   OH235995   4.597   6.611  17.025  0.0141 -0.1692  0.2013
 4835TIP3    H135996   4.541   6.534  17.021 -0.1868  0.0056 -0.4840
 4835TIP3    H235997   4.544   6.678  17.066 -0.1611 -0.1105 -0.1157
 4836TIP3   OH235998   6.204   5.233   6.336  0.0863  0.0717 -0.1138
 4836TIP3    H135999   6.226   5.326   6.329  0.6226 -0.1547 -2.1339
 4836TIP3    H236000   6.111   5.229   6.314  0.0359  0.1572  0.0888
 4837TIP3   OH236001   2.642   2.696   6.549 -0.0671 -0.2189  0.2079
 4837TIP3    H136002   2.629   2.665   6.459 -1.3000 -0.2390  0.3769
 4837TIP3    H236003   2.628   2.618   6.603 -1.2782  0.1875  0.5171
 4838TIP3   OH236004   6.554   4.042   0.261  0.2090 -0.7785  0.6022
 4838TIP3    H136005   6.633   4.088   0.292 -0.4804  1.3308 -0.5931
 4838TIP3    H236006   6.522   4.095   0.189 -0.7599 -3.1386 -0.8166
 4839TIP3   OH236007   2.234   2.451  13.683  0.4040 -0.0545 -0.1918
 4839TIP3    H136008   2.197   2.415  13.602 -2.9051 -0.7756  1.4818
 4839TIP3    H236009   2.192   2.536  13.694  1.3250  0.3381  0.4800
 4840TIP3   OH236010   3.959   6.455   2.633 -0.3769 -0.3315 -0.0084
 4840TIP3    H136011   3.943   6.521   2.700 -1.1910 -1.0541  0.5246
 4840TIP3    H236012   3.928   6.373   2.671  0.2914 -0.9739 -0.7923
 4841TIP3   OH236013   3.421   0.210   0.306  0.2719 -0.7344 -0.4250
 4841TIP3    H136014   3.451   0.299   0.288 -1.9523  0.5919  1.6939
 4841TIP3    H236015   3.463   0.188   0.390  3.5451 -3.2127 -2.4856
 4842TIP3   OH236016   1.481   0.938  12.010 -0.2440 -0.3907 -0.2538
 4842TIP3    H136017   1.552   1.001  12.001 -1.1954  0.7871  0.2986
 4842TIP3    H236018   1.405   0.982  11.973 -1.1040 -0.8918  0.8754
 4843TIP3   OH236019   6.163   0.145  12.768  0.4397 -0.1790  0.0320
 4843TIP3    H136020   6.120   0.201  12.833 -1.1864 -1.5407  0.1994
 4843TIP3    H236021   6.226   0.094  12.817  1.2200  0.7786  0.0446
 4844TIP3   OH236022   3.201   2.752  11.525  0.8420  0.3821  0.1388
 4844TIP3    H136023   3.286   2.711  11.507  2.4721  3.1722  0.8391
 4844TIP3    H236024   3.201   2.831  11.471 -1.4466  0.3582  0.0163
 4845TIP3   OH236025   0.273   4.468   5.477  0.1098 -0.5802  0.1779
 4845TIP3    H136026   0.207   4.407   5.445 -0.7950  0.6018 -0.2782
 4845TIP3    H236027   0.306   4.427   5.557 -1.6712 -0.8807  0.8060
 4846TIP3   OH236028   6.385   3.774  14.386  0.1512  0.1690 -0.2416
 4846TIP3    H136029   6.357   3.736  14.303 -0.6942  1.0272 -0.3599
 4846TIP3    H236030   6.376   3.703  14.450 -0.2642 -0.1684 -0.6722
 4847TIP3   OH236031   2.524   0.026   1.762 -0.2932 -0.0162 -0.0685
 4847TIP3    H136032   2.489  -0.062   1.777 -1.1250 -0.0980 -2.2496
 4847TIP3    H236033   2.580   0.042   1.839 -2.2206 -1.3356  1.7256
 4848TIP3   OH236034   6.020   4.958  16.079  0.4001  0.0403  0.2060
 4848TIP3    H136035   6.046   5.036  16.126 -0.0949  0.2617  0.1247
 4848TIP3    H236036   6.077   4.889  16.112 -1.2884 -0.2867  2.7066
 4849TIP3   OH236037   2.731   5.698   6.316 -0.2230  0.1250 -0.3676
 4849TIP3    H136038   2.693   5.641   6.249  0.5522 -0.6964 -0.1227
 4849TIP3    H236039   2.822   5.669   6.323  0.6962  2.4574 -1.4177
 4850TIP3   OH236040   3.592   5.228  15.982  0.2267  0.1190  0.6040
 4850TIP3    H136041   3.536   5.233  16.060  0.5401 -0.2681  0.8600
 4850TIP3    H236042   3.670   5.279  16.005  0.1872  0.2572  0.4305
 4851TIP3   OH236043   5.116   3.418   3.896 -0.5972  0.2027  0.0838
 4851TIP3    H136044   5.063   3.411   3.976 -1.0266  1.1734 -0.1002
 4851TIP3    H236045   5.207   3.420   3.928 -0.7655  0.5546  0.5540
 4852TIP3   OH236046   4.747   5.420   2.028 -0.0546  0.3965 -0.0206
 4852TIP3    H136047   4.749   5.478   1.952  0.0781 -2.6371 -2.5076
 4852TIP3    H236048   4.662   5.436   2.068 -0.8869  0.8552 -1.8637
 4853TIP3   OH236049   3.167   2.371  12.388  0.2013 -0.4787  0.0402
 4853TIP3    H136050   3.124   2.438  12.442 -0.3127 -1.4995  0.9486
 4853TIP3    H236051   3.108   2.359  12.313 -0.8743 -1.4798  1.0035
 4854TIP3   OH236052   4.649   0.982  14.991  0.5359 -0.0769  0.1081
 4854TIP3    H136053   4.737   1.020  14.986  0.0457  1.0837 -0.0925
 4854TIP3    H236054   4.608   1.028  15.065 -0.1788  0.0010 -0.3302
 4855TIP3   OH236055   0.967   2.732  11.792  0.3549 -0.2936 -0.1716
 4855TIP3    H136056   0.919   2.767  11.867 -0.3049  1.4015 -1.3055
 4855TIP3    H236057   0.937   2.785  11.718 -0.6069 -3.2328 -2.0583
 4856TIP3   OH236058   2.366   6.250   1.844 -0.2242 -0.2113  0.6456
 4856TIP3    H136059   2.315   6.321   1.806 -0.1278 -1.1904 -1.4626
 4856TIP3    H236060   2.331   6.240   1.933 -2.0619  0.7072  0.0796
 4857TIP3   OH236061   3.309   6.759  15.196 -0.2170 -0.0401 -0.4456
 4857TIP3    H136062   3.244   6.757  15.266  0.6517  0.3190  0.3979
 4857TIP3    H236063   3.284   6.835  15.143 -0.3582  0.2332 -0.0003
 4858TIP3   OH236064   3.328   0.813   4.340  0.2339  0.5904 -0.0457
 4858TIP3    H136065   3.400   0.760   4.306  0.3805  1.6221 -1.4287
 4858TIP3    H236066   3.314   0.880   4.273 -0.4022  1.8817  1.3150
 4859TIP3   OH236067   0.893   1.138  17.112 -0.1538 -0.0423 -0.4349
 4859TIP3    H136068   0.982   1.111  17.136 -0.3916 -1.3376 -0.9351
 4859TIP3    H236069   0.904   1.221  17.067  0.5583  1.0922  1.7070
 4860TIP3   OH236070   5.282   5.026   1.585  0.3385  0.6707  0.0362
 4860TIP3    H136071   5.306   4.981   1.666 -0.3839 -0.1232 -0.1750
 4860TIP3    H236072   5.233   5.103   1.615 -0.2479  0.1831  0.3546
 4861TIP3   OH236073   5.894   4.512   4.200 -1.0493 -0.2049 -0.0054
 4861TIP3    H136074   5.864   4.545   4.115 -3.0120  0.2255  0.7763
 4861TIP3    H236075   5.919   4.591   4.248 -0.0793 -0.4350 -0.1110
 4862TIP3   OH236076   3.314   5.635   6.054 -0.1911 -0.1242 -0.2973
 4862TIP3    H136077   3.351   5.696   5.990 -4.3769  1.2282 -1.7771
 4862TIP3    H236078   3.286   5.691   6.127 -1.5017 -0.6028 -0.3973
 4863TIP3   OH236079   6.027   1.532   5.950 -0.3434 -0.5049  0.0794
 4863TIP3    H136080   6.028   1.442   5.918  2.5051 -0.4537 -0.2487
 4863TIP3    H236081   6.076   1.528   6.033 -1.5338  0.5169  0.8664
 4864TIP3   OH236082   6.034   3.800  11.021 -0.6213 -0.5315 -1.1358
 4864TIP3    H136083   6.103   3.761  10.968  1.1022 -2.8279  2.4563
 4864TIP3    H236084   5.975   3.727  11.042 -0.6742  0.0170  0.8390
 4865TIP3   OH236085   1.632   5.147   2.080 -0.0154  0.7887 -0.4450
 4865TIP3    H136086   1.710   5.108   2.042 -0.5916  1.7740 -2.8326
 4865TIP3    H236087   1.566   5.077   2.078 -0.2461  1.0159 -2.0564
 4866TIP3   OH236088   1.668   2.688  15.912 -0.2937 -0.0573 -0.5576
 4866TIP3    H136089   1.666   2.766  15.856  2.3292 -0.1779 -0.9544
 4866TIP3    H236090   1.594   2.636  15.882  0.4677  0.2872 -3.4294
 4867TIP3   OH236091   4.320   4.729   0.239  0.1902  0.2445 -0.0033
 4867TIP3    H136092   4.354   4.744   0.151 -1.0681  0.6347 -0.4501
 4867TIP3    H236093   4.368   4.652   0.271  0.4137 -0.1208 -1.1720
 4868TIP3   OH236094   4.282   0.400   0.480  0.2659  0.2350 -0.0149
 4868TIP3    H136095   4.220   0.330   0.463 -0.4655  0.5612  1.1499
 4868TIP3    H236096   4.336   0.368   0.552  1.2191  0.1096 -0.7637
 4869TIP3   OH236097   1.283   3.812  12.888 -0.5697 -0.4497 -0.6438
 4869TIP3    H136098   1.283   3.717  12.900  0.1070 -0.4671 -0.7431
 4869TIP3    H236099   1.343   3.844  12.955  1.3080 -0.3261 -2.2903
 4870TIP3   OH236100   6.009   2.090  13.493  0.9055 -0.0722  0.2349
 4870TIP3    H136101   6.035   2.034  13.419  0.2178 -0.3353  0.1900
 4870TIP3    H236102   5.972   2.029  13.557 -2.6130  0.5575 -0.9872
 4871TIP3   OH236103   2.382   1.932   1.835  0.7351 -0.4044 -0.0826
 4871TIP3    H136104   2.355   2.010   1.883  1.6301  0.4406 -0.8993
 4871TIP3    H236105   2.332   1.937   1.753  1.1719 -0.4063 -0.3520
 4872TIP3   OH236106   3.587   4.584  17.121 -0.0654 -0.2431  0.2809
 4872TIP3    H136107   3.681   4.601  17.120 -0.3612  1.7136  0.6086
 4872TIP3    H236108   3.577   4.508  17.177  1.4086 -1.2194 -0.7112
 4873TIP3   OH236109   5.583   1.500   2.742 -0.1152 -0.0644 -0.3230
 4873TIP3    H136110   5.564   1.442   2.669 -0.3471 -0.4596  0.0472
 4873TIP3    H236111   5.620   1.442   2.810  0.3147  0.3325 -0.2129
 4874TIP3   OH236112   0.218   6.446  15.302  0.2555 -0.4318  0.4863
 4874TIP3    H136113   0.128   6.476  15.315  0.5762 -0.4309  3.0635
 4874TIP3    H236114   0.210   6.365  15.251 -0.9233  1.1876 -2.1505
 4875TIP3   OH236115   1.456   3.455   1.795 -0.3955 -0.5074  0.4014
 4875TIP3    H136116   1.405   3.391   1.745 -1.3654 -0.9200  1.8648
 4875TIP3    H236117   1.445   3.429   1.886  2.6929 -0.7659  0.7963
 4876TIP3   OH236118   1.726   5.240   1.378 -0.2797  0.0784 -0.1833
 4876TIP3    H136119   1.683   5.316   1.338  0.7282  0.0621 -1.3253
 4876TIP3    H236120   1.656   5.175   1.387 -0.4274 -0.1720 -2.5650
 4877TIP3   OH236121   6.737   0.348   2.621 -0.3601 -0.3290 -0.4074
 4877TIP3    H136122   6.751   0.269   2.673  0.7827  0.7193  0.9483
 4877TIP3    H236123   6.690   0.407   2.680 -0.2797  0.3911 -1.0538
 4878TIP3   OH236124   4.385   0.076   1.066  0.7267 -0.2420 -0.4185
 4878TIP3    H136125   4.320   0.051   1.001  1.6915  0.2706 -1.6083
 4878TIP3    H236126   4.344   0.056   1.150 -0.8745 -0.1133 -1.1435
 4879TIP3   OH236127   6.076   4.160   5.490  0.2578  0.1629 -0.5436
 4879TIP3    H136128   6.066   4.088   5.429  1.7000  1.7142 -2.7741
 4879TIP3    H236129   6.123   4.123   5.565 -0.0134 -1.4053 -1.1266
 4880TIP3   OH236130   0.005   2.279  15.566  0.5768 -0.6364 -0.4315
 4880TIP3    H136131  -0.003   2.240  15.653  1.3368 -0.4776 -0.2835
 4880TIP3    H236132   0.028   2.370  15.582 -1.8633  0.1293 -0.7580
 4881TIP3   OH236133   2.664   6.260   3.060 -0.5184 -0.3740  0.0454
 4881TIP3    H136134   2.597   6.305   3.007  0.8505  0.4529 -1.0485
 4881TIP3    H236135   2.721   6.218   2.995  2.0143  1.7925  0.7134
 4882TIP3   OH236136   0.050   0.546   3.018 -0.8547 -0.1897  0.3089
 4882TIP3    H136137   0.108   0.474   3.046  0.0990  0.7536  0.8298
 4882TIP3    H236138  -0.037   0.506   3.016 -0.4446 -1.2065  1.2176
 4883TIP3   OH236139   2.925   1.020   5.741  0.1274  0.5218  0.3720
 4883TIP3    H136140   2.899   1.024   5.833  1.3729 -0.4572  0.7949
 4883TIP3    H236141   2.867   0.954   5.703  0.9520 -0.5664  0.9536
 4884TIP3   OH236142   3.624   1.359  11.950  0.6739 -0.3126  0.2868
 4884TIP3    H136143   3.641   1.409  11.870  1.8593  0.6835  1.1379
 4884TIP3    H236144   3.529   1.357  11.957  0.5808  0.9263 -0.3410
 4885TIP3   OH236145   5.676   4.537  13.075  0.2556 -0.4000  0.7009
 4885TIP3    H136146   5.625   4.497  13.004 -0.6149  0.7360  0.6743
 4885TIP3    H236147   5.752   4.574  13.031 -1.2976  2.1448 -0.0160
 4886TIP3   OH236148   4.038   5.166   2.803 -0.3925 -0.1139  0.1495
 4886TIP3    H136149   4.101   5.231   2.771 -0.7370  0.8469  1.3352
 4886TIP3    H236150   3.953   5.201   2.777 -0.5107 -0.7759 -0.3604
 4887TIP3   OH236151   5.767   6.519  16.955  0.1466 -0.2077  0.3108
 4887TIP3    H136152   5.682   6.482  16.930  0.1080 -1.0203  1.5729
 4887TIP3    H236153   5.807   6.544  16.872 -1.2212 -0.0229 -0.3261
 4888TIP3   OH236154   1.413   4.874  15.386  0.0089  0.2712  0.1670
 4888TIP3    H136155   1.387   4.800  15.443 -0.8678  0.5534  0.1565
 4888TIP3    H236156   1.494   4.907  15.424 -0.4207  0.2781  1.1014
 4889TIP3   OH236157   2.159   1.853   4.628 -0.6255  0.4632  0.5232
 4889TIP3    H136158   2.133   1.771   4.669 -1.5290  0.7674  0.5815
 4889TIP3    H236159   2.190   1.827   4.541 -0.6109  0.0295  0.6542
 4890TIP3   OH236160   2.959   2.976  11.669 -0.5499  0.1634  0.1089
 4890TIP3    H136161   2.880   3.010  11.628 -0.4019  1.6052  0.9542
 4890TIP3    H236162   3.027   2.989  11.604 -0.7984 -0.0341 -0.1943
 4891TIP3   OH236163   2.441   2.198   4.192  1.0694  0.0373 -0.2788
 4891TIP3    H136164   2.424   2.292   4.189  0.4996 -0.0171  0.6752
 4891TIP3    H236165   2.355   2.157   4.180  1.3252 -0.3692 -0.7779
 4892TIP3   OH236166   1.041   5.146  13.474  0.1080  0.5260  0.4472
 4892TIP3    H136167   1.017   5.054  13.461  1.3194  0.0094  1.6781
 4892TIP3    H236168   0.957   5.190  13.487 -0.8642  0.2723 -3.4806
 4893TIP3   OH236169   3.159   6.556  10.688  0.1888 -0.4554  0.7564
 4893TIP3    H136170   3.094   6.552  10.618  1.5109  0.3530 -0.5836
 4893TIP3    H236171   3.218   6.627  10.662  1.7156 -1.2779  1.8092
 4894TIP3   OH236172   0.273   5.244   4.334 -0.0515  0.5828 -0.0032
 4894TIP3    H136173   0.183   5.223   4.311 -1.4408 -0.2134  5.1083
 4894TIP3    H236174   0.307   5.164   4.373  2.8907  0.9670 -1.4810
 4895TIP3   OH236175   1.876   2.108  16.139  0.2590  0.1128  0.0785
 4895TIP3    H136176   1.963   2.129  16.104  0.7355 -2.2725 -0.3855
 4895TIP3    H236177   1.816   2.163  16.089  1.1625 -1.1976 -2.6896
 4896TIP3   OH236178   6.075   0.446   1.206  0.4745 -0.1375  0.5974
 4896TIP3    H136179   6.166   0.429   1.233  0.1413 -2.1407  0.6088
 4896TIP3    H236180   6.073   0.421   1.114  0.5375  2.4904 -0.1911
 4897TIP3   OH236181   3.441   2.362  13.087 -0.2237  0.4911  0.1502
 4897TIP3    H136182   3.509   2.427  13.103 -0.7059  1.1990 -0.5872
 4897TIP3    H236183   3.474   2.308  13.015 -0.7457  1.3067 -0.7161
 4898TIP3   OH236184   4.383   3.331  16.110  0.5606  0.6819  0.0481
 4898TIP3    H136185   4.356   3.368  16.026  1.0850  0.8361 -0.0558
 4898TIP3    H236186   4.413   3.407  16.161  0.4669  0.5581  0.2877
 4899TIP3   OH236187   1.770   4.603   3.197 -0.3498 -0.0967 -0.2472
 4899TIP3    H136188   1.750   4.693   3.173 -1.6559 -1.0349 -3.0633
 4899TIP3    H236189   1.687   4.568   3.229 -0.7862 -1.1817 -2.3996
 4900TIP3   OH236190   2.402   3.776   0.187 -0.1224  0.1626  0.0884
 4900TIP3    H136191   2.323   3.730   0.158 -0.5041  0.1413  1.1111
 4900TIP3    H236192   2.422   3.737   0.273  2.6411 -1.8463 -1.2914
 4901TIP3   OH236193   1.524   4.159  16.954  0.4902  0.3847  0.1677
 4901TIP3    H136194   1.507   4.155  16.860  0.0980  2.9132  0.0660
 4901TIP3    H236195   1.455   4.104  16.993 -0.9169  1.3144 -0.9087
 4902TIP3   OH236196   1.507   1.520  12.740  0.0400  0.2383  0.0947
 4902TIP3    H136197   1.512   1.545  12.647  0.1103 -1.1207 -0.2903
 4902TIP3    H236198   1.456   1.590  12.780  0.0353  0.8742 -0.9634
 4903TIP3   OH236199   1.498   0.817  15.437 -0.5478  0.3950 -0.0089
 4903TIP3    H136200   1.543   0.815  15.353  0.2642 -2.0134  0.4166
 4903TIP3    H236201   1.411   0.782  15.420 -0.6938  0.7382  0.0131
 4904TIP3   OH236202   6.143   5.257   3.796  0.0500 -0.2668 -0.0462
 4904TIP3    H136203   6.156   5.262   3.891  0.6614  2.2976 -0.1787
 4904TIP3    H236204   6.052   5.228   3.786  0.5287 -2.4108  1.2448
 4905TIP3   OH236205   0.160   6.100   3.036 -0.3831 -0.1097  0.1074
 4905TIP3    H136206   0.094   6.055   3.088 -0.2072 -0.5236 -0.0309
 4905TIP3    H236207   0.110   6.151   2.972 -0.5503 -2.1038 -1.4441
 4906TIP3   OH236208   4.086   2.836   1.643 -0.1415 -0.4212 -0.0265
 4906TIP3    H136209   4.100   2.913   1.698  0.7409 -0.7723  0.2645
 4906TIP3    H236210   4.013   2.789   1.685 -0.2260 -0.1031  0.1854
 4907TIP3   OH236211   4.134   3.957  11.016 -0.2166 -0.2654 -0.1246
 4907TIP3    H136212   4.097   3.935  11.101 -1.0105 -1.0441 -0.6471
 4907TIP3    H236213   4.077   4.025  10.981  0.6841  0.7604  0.3698
 4908TIP3   OH236214   3.983   1.793  14.163 -0.0550  0.0709  0.0663
 4908TIP3    H136215   4.016   1.866  14.215  1.2967  0.5790 -1.4295
 4908TIP3    H236216   3.912   1.756  14.216  0.0760  1.6593  1.4305
 4909TIP3   OH236217   5.721   2.835   4.397 -0.1247 -0.4754  0.2258
 4909TIP3    H136218   5.711   2.839   4.492  0.5041  1.1888  0.2524
 4909TIP3    H236219   5.797   2.779   4.382  1.4123  1.3348  0.8673
 4910TIP3   OH236220   3.958   4.230  13.678  0.1024 -0.1231  0.5769
 4910TIP3    H136221   4.023   4.176  13.724 -0.4391 -1.0473  0.2801
 4910TIP3    H236222   3.949   4.308  13.733  0.3359 -0.6752  1.4217
 4911TIP3   OH236223   3.319   1.451  13.723 -0.1565 -0.0348 -0.3915
 4911TIP3    H136224   3.304   1.545  13.734  0.2132 -0.1125  0.9871
 4911TIP3    H236225   3.403   1.434  13.767  0.8681 -0.6703 -2.4557
 4912TIP3   OH236226   3.591   5.997  14.133  0.3186 -0.0318 -0.1576
 4912TIP3    H136227   3.539   6.078  14.129  0.2068 -0.1579 -1.4621
 4912TIP3    H236228   3.678   6.027  14.157 -0.3383  0.1642  2.2799
 4913TIP3   OH236229   2.306   4.383  14.685 -0.2648  0.4061 -0.1173
 4913TIP3    H136230   2.314   4.299  14.639 -0.3336  0.1632  0.3094
 4913TIP3    H236231   2.252   4.363  14.761  0.9906  0.4998  0.8220
 4914TIP3   OH236232   6.435   0.920   3.391 -0.7216  0.7977 -0.5656
 4914TIP3    H136233   6.528   0.925   3.413 -0.7139  0.0343 -0.3772
 4914TIP3    H236234   6.396   0.998   3.430  0.0619  1.8455 -1.8137
 4915TIP3   OH236235   0.040   1.267   4.908 -0.4858  0.0115  1.0028
 4915TIP3    H136236   0.052   1.270   5.003  0.5224  1.4292  0.8755
 4915TIP3    H236237  -0.037   1.212   4.895 -0.8527  0.0686  2.6624
 4916TIP3   OH236238   4.417   4.599   5.158 -0.5833  0.4328 -0.6494
 4916TIP3    H136239   4.459   4.663   5.216  0.4719  0.0324 -0.9411
 4916TIP3    H236240   4.358   4.651   5.104 -0.0321  1.1109 -0.6180
 4917TIP3   OH236241   0.936   6.703   0.830  0.6873  0.4043  0.0865
 4917TIP3    H136242   0.933   6.763   0.756  0.4644 -1.3757 -1.4141
 4917TIP3    H236243   0.849   6.707   0.869  0.6723  1.0188 -0.0110
 4918TIP3   OH236244   2.172   3.224   4.595  0.1431  0.1120 -0.5772
 4918TIP3    H136245   2.229   3.163   4.640  1.7490 -0.6436 -3.3953
 4918TIP3    H236246   2.230   3.295   4.566 -1.2603  1.8194  0.5574
 4919TIP3   OH236247   0.855   0.230   3.454  0.9242 -0.2226 -0.2990
 4919TIP3    H136248   0.798   0.272   3.518  0.8396 -0.0578 -0.4845
 4919TIP3    H236249   0.880   0.299   3.394  3.0539  0.2325  0.9828
 4920TIP3   OH236250   2.079   4.659   3.808  0.1679  0.1112  0.1932
 4920TIP3    H136251   1.986   4.650   3.790  0.4377  0.6677 -1.6998
 4920TIP3    H236252   2.098   4.591   3.872 -1.2880 -0.8611 -0.3681
 4921TIP3   OH236253   4.010   2.013   4.913  0.1169  0.2022  0.3021
 4921TIP3    H136254   4.077   1.975   4.856 -0.8509 -1.7398  0.3709
 4921TIP3    H236255   3.998   2.102   4.879  1.3861 -0.0377 -0.8856
 4922TIP3   OH236256   5.147   5.130  12.550  0.0311 -0.4208  0.0280
 4922TIP3    H136257   5.209   5.083  12.606 -0.0173  1.1051  1.4433
 4922TIP3    H236258   5.069   5.073  12.547  0.4905 -1.0900  0.4859
 4923TIP3   OH236259   4.853   0.139   5.444  0.2240  0.0178  0.0022
 4923TIP3    H136260   4.887   0.134   5.355 -0.6535 -1.9085 -0.2897
 4923TIP3    H236261   4.871   0.228   5.472 -0.1898  0.9425 -2.3978
 4924TIP3   OH236262   1.167   3.011   3.639 -0.0914 -0.6138 -0.0112
 4924TIP3    H136263   1.136   3.074   3.703  0.5674 -0.1703 -0.1171
 4924TIP3    H236264   1.157   2.926   3.683 -1.7822 -0.5391 -0.1899
 4925TIP3   OH236265   4.760   3.534  14.099  0.4210 -0.1201 -0.5805
 4925TIP3    H136266   4.831   3.581  14.142 -0.9470  0.3736  1.2749
 4925TIP3    H236267   4.769   3.444  14.130  0.1352 -0.0147 -0.1826
 4926TIP3   OH236268   4.549   1.924   4.817 -0.0912  0.3622 -1.0292
 4926TIP3    H136269   4.524   1.955   4.904 -2.4355  1.6218 -2.0699
 4926TIP3    H236270   4.526   1.831   4.818  1.5696 -0.1007  0.2061
 4927TIP3   OH236271   1.689   1.881  14.811 -0.8186  0.8054 -0.0622
 4927TIP3    H136272   1.697   1.911  14.720 -1.8389 -1.8414 -1.1419
 4927TIP3    H236273   1.778   1.855  14.835 -0.8416 -0.3020 -1.0625
 4928TIP3   OH236274   3.653   4.893   2.778  0.6752  0.4937  0.6878
 4928TIP3    H136275   3.662   4.800   2.796 -0.4006 -0.0241 -1.1831
 4928TIP3    H236276   3.558   4.907   2.773  0.7693  0.8089 -2.7945
 4929TIP3   OH236277   5.622   3.505  13.347 -0.1762 -0.1247  0.2168
 4929TIP3    H136278   5.601   3.561  13.273  2.2529 -0.5589 -0.8964
 4929TIP3    H236279   5.605   3.558  13.424  1.2780  1.9108 -0.7793
 4930TIP3   OH236280   0.031   3.146  11.431  0.0836 -0.6706  0.6360
 4930TIP3    H136281   0.075   3.067  11.463  0.6657 -1.1967 -1.3203
 4930TIP3    H236282   0.071   3.163  11.346 -1.2469  0.7430  0.2424
 4931TIP3   OH236283   5.525   6.236  12.344 -0.1785  0.0179  0.5892
 4931TIP3    H136284   5.456   6.301  12.327 -0.0698 -0.0899 -0.3506
 4931TIP3    H236285   5.486   6.176  12.407 -0.3756  0.8333  1.2740
 4932TIP3   OH236286   3.924   5.900  11.773  0.1802 -0.2577  0.6588
 4932TIP3    H136287   3.849   5.940  11.729  0.4972 -1.4870 -1.0892
 4932TIP3    H236288   3.971   5.853  11.704  1.0587 -1.7758  2.2006
 4933TIP3   OH236289   2.082   5.010   2.699 -0.3457  0.3397 -0.3413
 4933TIP3    H136290   2.018   4.960   2.649 -0.0077  1.6021 -2.0941
 4933TIP3    H236291   2.164   4.998   2.651 -0.0801  1.8457 -0.2928
 4934TIP3   OH236292   1.728   6.793   2.371 -0.0771 -0.5021  0.4434
 4934TIP3    H136293   1.704   6.728   2.436  0.8816 -2.1645 -0.7601
 4934TIP3    H236294   1.709   6.751   2.287  1.6471  0.2963 -0.4016
 4935TIP3   OH236295   3.646   6.395   0.665  0.4041 -0.2557  0.0599
 4935TIP3    H136296   3.565   6.344   0.651  0.2084  0.0610  0.0364
 4935TIP3    H236297   3.716   6.332   0.649  0.1685 -1.0028  1.7115
 4936TIP3   OH236298   3.515   5.104  13.865 -0.3138  0.2715 -0.2550
 4936TIP3    H136299   3.596   5.095  13.916 -0.5496  1.5949  0.3848
 4936TIP3    H236300   3.538   5.070  13.778  0.5130 -0.6688  0.3106
 4937TIP3   OH236301   3.986   2.188   2.574 -0.0149  0.0188 -0.3834
 4937TIP3    H136302   4.064   2.190   2.629  0.7448  0.1653 -1.4378
 4937TIP3    H236303   4.009   2.131   2.501 -1.1500 -0.4997 -0.3556
 4938TIP3   OH236304   3.716   2.876   4.402  0.1348 -0.3462 -0.4120
 4938TIP3    H136305   3.751   2.822   4.473 -2.2188 -1.3860  0.0489
 4938TIP3    H236306   3.678   2.951   4.447 -0.3219 -0.4195 -0.6790
 4939TIP3   OH236307   5.125   4.458   6.044 -0.2376 -0.1573  0.0021
 4939TIP3    H136308   5.197   4.517   6.069 -0.2888 -0.6947  1.4879
 4939TIP3    H236309   5.053   4.483   6.101 -1.2774  0.3805 -1.4890
 4940TIP3   OH236310   5.384   0.273   4.640  0.9881 -0.0964  0.6493
 4940TIP3    H136311   5.403   0.311   4.554 -0.8336  2.6663  1.3426
 4940TIP3    H236312   5.334   0.194   4.620  1.3210  0.0333 -0.8312
 4941TIP3   OH236313   1.798   1.758   0.730 -0.2433 -0.3093 -0.0433
 4941TIP3    H136314   1.809   1.712   0.813 -0.6030  0.5273  0.4821
 4941TIP3    H236315   1.834   1.845   0.746  1.0371 -0.5790 -1.2173
 4942TIP3   OH236316   6.308   1.077  14.270 -0.5780 -0.7681 -0.0252
 4942TIP3    H136317   6.248   1.003  14.278  0.0808 -1.3179 -0.1841
 4942TIP3    H236318   6.389   1.040  14.237 -0.3805  0.0961 -0.5435
 4943TIP3   OH236319   5.755   0.168   0.048 -0.1151  0.0671 -0.5687
 4943TIP3    H136320   5.701   0.098   0.012 -1.4943  0.0537  1.3780
 4943TIP3    H236321   5.761   0.148   0.141  2.0221  0.9145 -0.4780
 4944TIP3   OH236322   0.242   5.572   5.607 -1.0073  0.1390 -0.3138
 4944TIP3    H136323   0.234   5.622   5.688 -2.9334  1.0059 -0.9769
 4944TIP3    H236324   0.199   5.627   5.541 -0.1953 -0.9037 -1.7694
 4945TIP3   OH236325   5.482   3.659   4.682  0.5614  0.1190 -0.6160
 4945TIP3    H136326   5.558   3.601   4.674 -0.7925 -1.8598 -0.0070
 4945TIP3    H236327   5.474   3.675   4.776  0.2469  0.3352 -0.6771
 4946TIP3   OH236328   6.540   5.619   6.174 -0.9425 -1.0680  0.2186
 4946TIP3    H136329   6.445   5.631   6.178 -0.5554  2.3569  2.9857
 4946TIP3    H236330   6.556   5.539   6.224 -2.2703 -0.5392  1.5575
 4947TIP3   OH236331   4.618   0.475   4.104  0.5370 -0.1216  0.2423
 4947TIP3    H136332   4.624   0.549   4.165  0.4129 -0.5343  0.7625
 4947TIP3    H236333   4.708   0.457   4.079  0.5980 -0.0118  0.3822
 4948TIP3   OH236334   6.376   5.985  11.697  0.1051  0.0844 -0.0813
 4948TIP3    H136335   6.315   6.056  11.676  0.1011 -0.5161 -2.2958
 4948TIP3    H236336   6.356   5.963  11.788 -2.4823  0.4108 -0.4903
 4949TIP3   OH236337   0.668   2.569   1.622  0.5483 -0.2468 -0.1990
 4949TIP3    H136338   0.607   2.576   1.549 -0.6479 -3.2344  0.3785
 4949TIP3    H236339   0.739   2.515   1.589  0.4948 -0.7784  0.5132
 4950TIP3   OH236340   1.519   5.389   2.647  0.0078  0.2158  0.1851
 4950TIP3    H136341   1.538   5.425   2.560 -2.9789 -0.0021 -0.6837
 4950TIP3    H236342   1.520   5.294   2.634  1.0350  0.1353  0.7816
 4951TIP3   OH236343   1.200   0.145  14.647 -0.1328  0.0397  0.2655
 4951TIP3    H136344   1.162   0.058  14.633  0.0667 -0.0336  0.1798
 4951TIP3    H236345   1.125   0.205  14.642 -0.1581 -0.0408 -0.5359
 4952TIP3   OH236346   1.612   1.397   2.076  0.8702 -0.2060  0.1751
 4952TIP3    H136347   1.673   1.334   2.037  0.8248  1.3734 -2.7453
 4952TIP3    H236348   1.650   1.417   2.161  2.4487 -1.9869 -0.0418
 4953TIP3   OH236349   3.363   2.251   4.894  0.4504  0.8769  0.7925
 4953TIP3    H136350   3.306   2.174   4.892  0.0879  1.1118 -2.3878
 4953TIP3    H236351   3.308   2.323   4.865  1.9951  1.3332 -1.2124
 4954TIP3   OH236352   3.417   6.200  14.094  0.0437  0.3907  0.0253
 4954TIP3    H136353   3.334   6.154  14.090 -0.7614  1.6755  1.0214
 4954TIP3    H236354   3.406   6.264  14.165  1.5988  1.1198 -0.3395
 4955TIP3   OH236355   1.126   3.472  14.796 -0.4361 -0.1373 -0.2993
 4955TIP3    H136356   1.137   3.382  14.764 -0.8039 -1.0039  1.8131
 4955TIP3    H236357   1.176   3.474  14.878 -3.2103  0.4733  1.5038
 4956TIP3   OH236358   5.058   0.380  14.288 -0.0369  0.5392 -0.0464
 4956TIP3    H136359   4.995   0.437  14.330  1.1398  2.8231 -1.1925
 4956TIP3    H236360   5.121   0.358  14.356 -0.9187 -0.0714  0.5915
 4957TIP3   OH236361   0.552   3.986   1.976  0.3146  0.2564 -0.1736
 4957TIP3    H136362   0.598   3.902   1.978 -0.5924 -0.2588 -0.1397
 4957TIP3    H236363   0.612   4.046   1.933  0.7947 -0.5328 -0.6214
 4958TIP3   OH236364   1.390   5.747   0.344 -0.0623 -0.6257  0.1258
 4958TIP3    H136365   1.366   5.692   0.269 -0.3769 -1.7864  1.0404
 4958TIP3    H236366   1.349   5.831   0.327 -0.9283 -1.1733 -0.5546
 4959TIP3   OH236367   4.130   2.148  16.777  0.4826  0.4260  0.0537
 4959TIP3    H136368   4.178   2.150  16.695 -1.4942 -0.5195 -1.1902
 4959TIP3    H236369   4.173   2.080  16.829  0.1613 -0.8362 -1.2771
 4960TIP3   OH236370   5.578   3.737  14.568  0.5954 -0.5438 -0.2171
 4960TIP3    H136371   5.632   3.714  14.493  0.9007 -1.9254  0.4023
 4960TIP3    H236372   5.586   3.832  14.575  1.4001 -0.5159 -1.2919
 4961TIP3   OH236373   4.508   2.838  15.424 -0.2796  0.3268  0.5609
 4961TIP3    H136374   4.444   2.783  15.470  0.6227  1.0397  2.7646
 4961TIP3    H236375   4.582   2.779  15.406 -0.9365 -0.1487 -0.7803
 4962TIP3   OH236376   6.611   3.305  10.294  0.0547 -0.3932 -0.2613
 4962TIP3    H136377   6.563   3.385  10.274  1.2550  0.0586 -1.4672
 4962TIP3    H236378   6.679   3.332  10.355  2.6758  0.3500 -3.2392
 4963TIP3   OH236379   6.627   0.627  13.919  0.2551  0.1354 -0.3283
 4963TIP3    H136380   6.574   0.565  13.969  1.0047 -0.7100 -0.5526
 4963TIP3    H236381   6.705   0.577  13.894  1.3433  1.4631  0.3136
 4964TIP3   OH236382   5.300   5.055  14.392 -0.0783  0.1893 -0.2840
 4964TIP3    H136383   5.336   4.986  14.336 -0.5524  1.4711 -2.2682
 4964TIP3    H236384   5.207   5.034  14.401 -0.0654  0.1491 -0.2470
 4965TIP3   OH236385   3.977   5.352  12.242  0.2079 -0.3478 -0.0923
 4965TIP3    H136386   4.011   5.435  12.210 -2.2932  1.2170  1.0504
 4965TIP3    H236387   3.944   5.308  12.164  2.1284 -0.6591 -0.8014
 4966TIP3   OH236388   2.015   5.856   4.721  0.1307 -0.1931  0.0267
 4966TIP3    H136389   1.959   5.794   4.767 -0.8578  0.4715 -0.2393
 4966TIP3    H236390   2.065   5.900   4.790 -1.4632  0.9151  0.5270
 4967TIP3   OH236391   0.212   3.161   5.091  0.5739 -0.6127 -0.6905
 4967TIP3    H136392   0.176   3.167   5.003 -0.7764 -1.0135 -0.1958
 4967TIP3    H236393   0.304   3.139   5.078  1.0389  1.7295 -2.0380
 4968TIP3   OH236394   5.199   5.369   1.407 -0.0631  0.2536  0.4754
 4968TIP3    H136395   5.265   5.435   1.387  0.8836 -0.0237  2.3944
 4968TIP3    H236396   5.177   5.330   1.323  2.0109  0.5745 -0.2655
 4969TIP3   OH236397   2.830   3.441  14.233 -0.3053  0.3740 -0.1838
 4969TIP3    H136398   2.873   3.508  14.286  0.4246  0.2182 -0.5686
 4969TIP3    H236399   2.816   3.368  14.294 -0.6875  0.6956  0.1206
 4970TIP3   OH236400   3.795   0.677  10.828  0.0157  0.1294  0.2900
 4970TIP3    H136401   3.800   0.751  10.767 -1.4085 -0.0367 -0.0831
 4970TIP3    H236402   3.771   0.603  10.773 -0.7297 -0.1431  0.9619
 4971TIP3   OH236403   1.893   6.776  11.759  0.2824  0.0405 -0.3271
 4971TIP3    H136404   1.980   6.792  11.723  1.3653 -0.7078  1.7857
 4971TIP3    H236405   1.864   6.863  11.789  2.0037 -0.2045  2.3802
 4972TIP3   OH236406   0.614   6.416  10.782 -0.2947 -0.0945 -0.0860
 4972TIP3    H136407   0.694   6.468  10.776 -1.1755  1.1224 -2.6837
 4972TIP3    H236408   0.568   6.452  10.858  0.1134  1.5040 -0.5580
 4973TIP3   OH236409   4.882   5.768  15.130  0.4637  0.1519 -0.2559
 4973TIP3    H136410   4.927   5.684  15.138  0.1296  0.0850  1.1193
 4973TIP3    H236411   4.933   5.817  15.065  0.3209 -1.3156 -1.5148
 4974TIP3   OH236412   3.581   6.013  11.887 -0.0666 -0.0695 -0.9770
 4974TIP3    H136413   3.618   6.100  11.901  0.7048 -0.3145 -1.4447
 4974TIP3    H236414   3.614   5.986  11.801  0.5082 -1.2197 -0.4182
 4975TIP3   OH236415   6.317   0.040  11.804  0.3279 -0.0499 -0.1911
 4975TIP3    H136416   6.351   0.038  11.715  0.7859 -0.0410 -0.0194
 4975TIP3    H236417   6.395   0.048  11.860  0.2599 -2.3304  0.3393
 4976TIP3   OH236418   1.481   0.898  16.263  0.2752  0.0947  0.8610
 4976TIP3    H136419   1.507   0.809  16.288  0.0192 -0.1277  0.3433
 4976TIP3    H236420   1.438   0.888  16.178  0.2229  0.7114  0.8084
 4977TIP3   OH236421   4.629   6.823  12.877  0.1222  0.2649 -0.3597
 4977TIP3    H136422   4.621   6.868  12.793  2.3319  1.1786 -0.1344
 4977TIP3    H236423   4.664   6.888  12.937  1.9451 -1.3005  0.3825
 4978TIP3   OH236424   0.020   0.548   5.338 -0.0160  0.2746 -0.5072
 4978TIP3    H136425   0.051   0.623   5.389 -0.5906 -0.4591  0.9953
 4978TIP3    H236426   0.098   0.497   5.320  0.3035  0.9438 -1.0656
 4979TIP3   OH236427   2.660   6.096  15.062  0.4420 -0.1445 -0.0165
 4979TIP3    H136428   2.612   6.175  15.035  0.6963 -0.1242 -0.4276
 4979TIP3    H236429   2.713   6.073  14.985  1.3170  0.0024  0.5308
 4980TIP3   OH236430   6.264   4.360   1.151 -0.3715  0.6532  0.3688
 4980TIP3    H136431   6.174   4.385   1.131 -0.8544 -0.4748  1.0225
 4980TIP3    H236432   6.283   4.288   1.091 -0.0590  0.6152  0.5098
 4981TIP3   OH236433   2.365   4.344   4.386  0.3169  0.6146 -0.2167
 4981TIP3    H136434   2.294   4.345   4.451 -0.7327 -1.8695 -1.1941
 4981TIP3    H236435   2.344   4.415   4.326 -0.7131  0.6392  0.1584
 4982TIP3   OH236436   0.212   4.438  12.562 -0.1321 -0.6485 -0.3249
 4982TIP3    H136437   0.192   4.369  12.500 -1.0220 -0.2849 -0.4566
 4982TIP3    H236438   0.158   4.512  12.535 -1.6712 -0.9276  1.7352
 4983TIP3   OH236439   2.383   0.845  13.465  0.4030 -0.2138 -0.0481
 4983TIP3    H136440   2.468   0.850  13.509  0.6943 -0.1227 -0.6152
 4983TIP3    H236441   2.394   0.776  13.399 -0.5721 -1.6197  1.1818
 4984TIP3   OH236442   1.139   0.677  12.950  0.3101 -0.4131  0.3387
 4984TIP3    H136443   1.154   0.661  13.043  1.2838 -0.7774  0.1291
 4984TIP3    H236444   1.225   0.669  12.909 -0.1345 -0.4837 -0.6270
 4985TIP3   OH236445   1.372   6.369   5.314  0.5066 -0.4595 -0.3300
 4985TIP3    H136446   1.401   6.410   5.233 -1.1352 -0.8404 -1.1583
 4985TIP3    H236447   1.276   6.364   5.306  0.3464 -0.9259  1.4270
 4986TIP3   OH236448   3.667   3.213  10.619  0.1546 -0.2593 -0.0644
 4986TIP3    H136449   3.609   3.275  10.664  1.6425  0.9669  0.2553
 4986TIP3    H236450   3.626   3.199  10.534 -1.2225 -0.3908  0.5886
 4987TIP3   OH236451   0.532   3.540  15.594  0.0780 -0.2324  0.1266
 4987TIP3    H136452   0.577   3.580  15.668 -2.5660  1.9603  0.7525
 4987TIP3    H236453   0.579   3.572  15.517  0.4725  0.7922  0.7770
 4988TIP3   OH236454   6.701   6.751  14.293 -0.4045  0.4452  0.7170
 4988TIP3    H136455   6.794   6.730  14.283 -0.6263  0.1486 -1.3949
 4988TIP3    H236456   6.675   6.709  14.375  1.2863  0.4639  1.2995
 4989TIP3   OH236457   6.351   6.339  16.606 -0.2208 -0.1568 -0.1844
 4989TIP3    H136458   6.343   6.429  16.575  1.5185 -0.3220 -1.2447
 4989TIP3    H236459   6.444   6.329  16.627 -0.5542 -1.4387  0.7887
 4990TIP3   OH236460   6.531   5.219   3.878  0.5180  0.7477 -0.4436
 4990TIP3    H136461   6.560   5.243   3.966 -1.1243 -1.0233  0.6575
 4990TIP3    H236462   6.607   5.177   3.838  1.3436  1.7430  0.0244
 4991TIP3   OH236463   2.635   0.613   2.999  0.1723 -0.0568 -0.7431
 4991TIP3    H136464   2.540   0.604   2.986  0.1261 -0.0835 -0.3978
 4991TIP3    H236465   2.655   0.554   3.072  0.3067  0.6217 -0.2251
 4992TIP3   OH236466   2.844   0.837   4.355 -0.1437  0.4019 -0.1022
 4992TIP3    H136467   2.869   0.820   4.446  0.0467 -0.3088 -0.2764
 4992TIP3    H236468   2.858   0.931   4.343  1.8162  0.1791  0.0262
 4993TIP3   OH236469   4.641   4.569  10.764 -0.2535  0.5045 -0.0054
 4993TIP3    H136470   4.718   4.514  10.748  0.0944  0.5643  1.3342
 4993TIP3    H236471   4.657   4.647  10.711  0.8706  0.7338  0.6315
 4994TIP3   OH236472   4.975   0.541  14.588  0.2405  0.5343 -0.5079
 4994TIP3    H136473   4.953   0.569  14.499  1.4866  0.0667 -0.9913
 4994TIP3    H236474   4.955   0.617  14.642 -0.6992  0.7684 -1.1627
 4995TIP3   OH236475   6.791   6.540   1.477  0.7824  0.0475 -0.0453
 4995TIP3    H136476   6.828   6.538   1.389 -1.3608  0.3725 -1.0074
 4995TIP3    H236477   6.742   6.458   1.484  0.8757  0.0532  0.8333
 4996TIP3   OH236478   5.016   5.104  11.729 -0.1303  0.2052 -0.6503
 4996TIP3    H136479   4.968   5.169  11.677 -1.0911  1.0294  1.1721
 4996TIP3    H236480   5.021   5.142  11.817 -0.4756 -2.0367  0.4205
 4997TIP3   OH236481   2.911   5.844   3.931 -0.0668 -0.6543 -0.0807
 4997TIP3    H136482   2.952   5.839   3.845  1.6608  1.4222  0.5220
 4997TIP3    H236483   2.974   5.803   3.990  1.0542  2.0486  0.7737
 4998TIP3   OH236484   4.849   6.264   0.164 -0.1371 -0.0268 -0.1344
 4998TIP3    H136485   4.791   6.319   0.217 -0.1217 -0.4485  0.3276
 4998TIP3    H236486   4.908   6.223   0.228 -1.5102 -2.2502 -0.1862
 4999TIP3   OH236487   3.900   0.135  14.358 -0.1945  0.5362  0.3479
 4999TIP3    H136488   3.907   0.132  14.263  0.2413  1.5206  0.3397
 4999TIP3    H236489   3.966   0.073  14.390  0.6994  1.3074  0.0331
 5000TIP3   OH236490   2.945   5.770   1.263 -0.2467 -0.5107  0.4554
 5000TIP3    H136491   2.871   5.750   1.205  0.1894 -0.7792 -0.0073
 5000TIP3    H236492   2.937   5.864   1.280  0.0124 -0.2845 -0.5949
 5001TIP3   OH236493   0.139   5.182   4.883 -0.7190 -0.2390 -0.0965
 5001TIP3    H136494   0.191   5.199   4.804  1.5311  1.4087  1.6058
 5001TIP3    H236495   0.156   5.090   4.903  1.3771  0.1500  0.1917
 5002TIP3   OH236496   0.729   3.079   4.992  0.1238 -0.0599 -0.2045
 5002TIP3    H136497   0.748   3.165   5.029 -0.1127 -0.3378  0.5952
 5002TIP3    H236498   0.791   3.020   5.036  1.5043 -0.0641 -2.0174
 5003TIP3   OH236499   1.308   1.284  14.869  0.1782 -0.7937  0.4765
 5003TIP3    H136500   1.376   1.291  14.936 -0.2631  1.1788  0.7783
 5003TIP3    H236501   1.229   1.317  14.912 -0.3124 -0.3581 -0.7229
 5004TIP3   OH236502   3.230   3.506  14.658  0.0632  0.3606 -0.1208
 5004TIP3    H136503   3.276   3.590  14.653  1.4562 -0.3016  1.0112
 5004TIP3    H236504   3.253   3.471  14.744 -3.3412  0.3879  0.9679
 5005TIP3   OH236505   2.420   2.995   4.220 -0.6328  0.1667 -0.5850
 5005TIP3    H136506   2.359   2.975   4.149  0.3084  1.8244 -1.9342
 5005TIP3    H236507   2.387   3.076   4.259 -0.5946 -0.2018  0.2278
 5006TIP3   OH236508   1.010   6.459   1.504  0.2442 -0.1909 -0.2280
 5006TIP3    H136509   1.083   6.503   1.459  0.4966  1.3270  1.5337
 5006TIP3    H236510   0.984   6.389   1.444  2.8854 -0.5527 -1.1090
 5007TIP3   OH236511   4.757   2.328  10.712 -0.1333 -0.0291 -0.0440
 5007TIP3    H136512   4.694   2.352  10.779  1.5013 -1.0886  1.9991
 5007TIP3    H236513   4.788   2.412  10.677 -0.2058  0.6136  1.3576
 5008TIP3   OH236514   4.958   2.056   4.754 -0.0736 -0.2056  0.5885
 5008TIP3    H136515   4.935   1.989   4.690  0.3263 -2.7687  2.9288
 5008TIP3    H236516   4.874   2.093   4.782 -0.3723 -0.3668 -0.0897
 5009TIP3   OH236517   4.543   4.681  11.965  0.1336  0.9082 -0.6077
 5009TIP3    H136518   4.468   4.622  11.958  0.5053  0.0607  1.5528
 5009TIP3    H236519   4.507   4.760  12.007  0.1954  1.0450 -0.8105
 5010TIP3   OH236520   3.896   2.596  12.730  0.8764 -0.0087  0.2768
 5010TIP3    H136521   3.809   2.563  12.706  1.0446 -0.3743  0.1653
 5010TIP3    H236522   3.907   2.569  12.821  0.5138  0.7998  0.5700
 5011TIP3   OH236523   1.795   1.146   5.325  0.2242  0.6150  0.6682
 5011TIP3    H136524   1.763   1.233   5.351 -0.8188  0.2907  0.5164
 5011TIP3    H236525   1.734   1.117   5.258  0.1700 -0.5170  1.1858
 5012TIP3   OH236526   5.717   3.367   2.381  0.4406 -0.7136 -0.3725
 5012TIP3    H136527   5.632   3.389   2.419 -0.4283 -2.2384 -1.3285
 5012TIP3    H236528   5.765   3.326   2.453  0.4623  0.2904  0.2153
 5013TIP3   OH236529   1.337   3.516   1.295  0.1372  0.2613 -0.2373
 5013TIP3    H136530   1.376   3.573   1.229  0.7455  1.2782  0.9617
 5013TIP3    H236531   1.264   3.567   1.329  1.2481  0.7641  1.4970
 5014TIP3   OH236532   1.010   2.787  14.614  0.2131 -0.0214 -0.3020
 5014TIP3    H136533   1.046   2.803  14.527 -0.4082 -0.4075 -0.6415
 5014TIP3    H236534   1.054   2.706  14.643  0.0717 -0.1557 -0.4593
 5015TIP3   OH236535   6.371   3.142   6.562  0.7594 -0.2677  0.9333
 5015TIP3    H136536   6.316   3.192   6.622  0.8610  0.2183  0.6317
 5015TIP3    H236537   6.419   3.209   6.512 -0.1242 -0.6206 -0.4524
 5016TIP3   OH236538   3.887   2.326  14.213 -0.0178  0.1203  0.5507
 5016TIP3    H136539   3.847   2.259  14.157  0.3749  0.1998  0.1660
 5016TIP3    H236540   3.924   2.389  14.151  1.5584 -0.4547  0.8605
 5017TIP3   OH236541   2.205   3.012  15.928  0.0793 -0.3618 -0.4485
 5017TIP3    H136542   2.185   3.073  16.000  2.2749 -1.4442  1.2103
 5017TIP3    H236543   2.283   3.049  15.886  0.8554 -1.4746 -0.0388
 5018TIP3   OH236544   5.389   4.868  15.239  0.6705 -0.1614  0.1951
 5018TIP3    H136545   5.345   4.794  15.197  2.3273 -0.9354 -0.2501
 5018TIP3    H236546   5.373   4.942  15.181 -0.0001 -0.4306  0.0289
 5019TIP3   OH236547   1.302   0.329  13.824 -0.4961  0.9394  0.5774
 5019TIP3    H136548   1.290   0.286  13.740 -1.1049 -0.9813  1.6026
 5019TIP3    H236549   1.249   0.409  13.817 -1.5069  0.2083 -0.4165
 5020TIP3   OH236550   2.896   5.718  16.855 -0.2817  0.7354  0.5667
 5020TIP3    H136551   2.807   5.698  16.884 -0.8505 -1.9709 -2.5041
 5020TIP3    H236552   2.888   5.800  16.807 -1.0889  0.6298  0.5166
 5021TIP3   OH236553   5.746   2.037   2.423 -0.5525  0.2542 -0.6646
 5021TIP3    H136554   5.699   2.071   2.499  0.3203 -0.5628  0.2808
 5021TIP3    H236555   5.817   1.985   2.461  0.4382  0.5525 -2.0419
 5022TIP3   OH236556   2.833   4.062   1.031  0.0004  0.3522  0.4289
 5022TIP3    H136557   2.840   3.966   1.023  1.6557  0.3997  0.8951
 5022TIP3    H236558   2.837   4.093   0.941  1.7207  0.0696  0.3815
 5023TIP3   OH236559   6.297   4.154  16.466 -0.8316  0.1498 -0.7489
 5023TIP3    H136560   6.361   4.147  16.395  0.8153  0.4680  0.6395
 5023TIP3    H236561   6.292   4.066  16.502  0.0734  0.4626  0.1677
 5024TIP3   OH236562   0.334   6.060   1.624  0.4803 -0.7349 -0.1969
 5024TIP3    H136563   0.281   6.125   1.669  0.6102 -1.2435  0.7237
 5024TIP3    H236564   0.371   6.106   1.548  1.2880  0.5085  0.9232
 5025TIP3   OH236565   5.247   2.558  17.095 -0.1163 -0.1558  0.0637
 5025TIP3    H136566   5.237   2.652  17.081  1.9264 -0.0968 -1.5604
 5025TIP3    H236567   5.212   2.518  17.016  2.4679 -0.4532 -1.0394
 5026TIP3   OH236568   4.084   2.714  13.416  0.0265 -0.4094 -0.2107
 5026TIP3    H136569   4.039   2.631  13.399 -0.3747  0.1476 -2.1749
 5026TIP3    H236570   4.073   2.729  13.509 -1.7772 -1.5011 -0.1999
 5027TIP3   OH236571   2.166   0.220  11.048  0.5465 -0.2359 -0.5005
 5027TIP3    H136572   2.129   0.180  10.970  1.1468 -0.6571 -0.5757
 5027TIP3    H236573   2.095   0.273  11.084 -0.3146 -1.4600 -0.3369
 5028TIP3   OH236574   6.054   2.938   1.002 -0.2015  0.4223 -0.1177
 5028TIP3    H136575   5.977   2.984   0.970 -0.8691 -0.1938  0.5752
 5028TIP3    H236576   6.034   2.845   0.991 -0.2056  0.2035  1.4649
 5029TIP3   OH236577   4.281   4.739  11.696 -0.4460  0.1750  0.2884
 5029TIP3    H136578   4.254   4.767  11.608  1.5339  1.4861  0.0274
 5029TIP3    H236579   4.199   4.728  11.744 -1.5570 -0.2210 -1.6030
 5030TIP3   OH236580   5.134   2.403  12.430  0.3484  0.4273  0.3887
 5030TIP3    H136581   5.155   2.454  12.508 -0.0815 -1.1058  1.5530
 5030TIP3    H236582   5.065   2.342  12.458  0.1843 -0.1741 -1.1854
 5031TIP3   OH236583   2.276   0.725  15.193 -0.1599  0.4058 -0.0441
 5031TIP3    H136584   2.263   0.666  15.118 -0.8444  1.1599 -0.5433
 5031TIP3    H236585   2.231   0.806  15.167  1.0655  1.2773  0.4730
 5032TIP3   OH236586   3.832   0.774  11.843 -0.4334 -0.1264 -0.0211
 5032TIP3    H136587   3.794   0.813  11.765 -3.3039 -3.9047 -0.8260
 5032TIP3    H236588   3.767   0.789  11.912  0.2614 -0.0778  0.6333
 5033TIP3   OH236589   2.989   2.535   2.153  0.6177 -0.0778  0.1557
 5033TIP3    H136590   3.066   2.591   2.158  0.9076 -0.4550 -0.0815
 5033TIP3    H236591   3.013   2.466   2.091 -0.4437  0.6489 -1.1172
 5034TIP3   OH236592   0.368   0.337   3.918  0.2008  0.2603 -0.2761
 5034TIP3    H136593   0.402   0.391   3.989  1.5220  0.8476 -1.3021
 5034TIP3    H236594   0.439   0.277   3.897 -0.5845 -0.6619 -0.3772
 5035TIP3   OH236595   0.442   0.253  11.645 -0.6117  0.1055  0.1293
 5035TIP3    H136596   0.370   0.201  11.679 -0.1090 -0.9010 -0.3192
 5035TIP3    H236597   0.513   0.241  11.708 -0.4792  0.2120  0.0029
 5036TIP3   OH236598   1.032   5.099   2.083 -0.1698  0.7337  0.0224
 5036TIP3    H136599   1.060   5.136   2.167 -1.9298  0.4413  0.7958
 5036TIP3    H236600   0.988   5.172   2.038 -1.1080  0.3611  0.3036
 5037TIP3   OH236601   5.789   2.321  14.947 -0.5188 -0.2220 -0.1482
 5037TIP3    H136602   5.718   2.258  14.960 -0.1552 -0.6320 -0.1589
 5037TIP3    H236603   5.789   2.336  14.852  0.9345 -2.0209 -0.4809
 5038TIP3   OH236604   3.487   2.472  14.588 -0.3755  0.1432  0.5960
 5038TIP3    H136605   3.459   2.495  14.500 -0.3775 -0.1976  0.5041
 5038TIP3    H236606   3.440   2.390  14.607  1.4027 -1.0717 -0.0001
 5039TIP3   OH236607   2.883   6.533  14.601  0.0035 -0.0977 -0.0546
 5039TIP3    H136608   2.977   6.547  14.585  0.2957 -0.3452  1.3256
 5039TIP3    H236609   2.840   6.576  14.527  1.0423  3.5326  1.2296
 5040TIP3   OH236610   4.878   6.323   5.847 -0.2045 -0.0589  0.1093
 5040TIP3    H136611   4.831   6.368   5.918 -1.7525  1.8026 -1.9490
 5040TIP3    H236612   4.905   6.240   5.886 -1.4360  0.6338  2.7088
 5041TIP3   OH236613   5.351   5.835   6.659  0.9299 -0.0332 -0.1456
 5041TIP3    H136614   5.345   5.823   6.753 -0.6045  0.0431 -0.2157
 5041TIP3    H236615   5.275   5.790   6.623  0.8226  0.9644 -1.2424
 5042TIP3   OH236616   0.889   5.831   2.373  0.1522  0.2563  0.5299
 5042TIP3    H136617   0.960   5.864   2.317  0.0494 -1.7400 -0.8875
 5042TIP3    H236618   0.926   5.753   2.414 -0.9055 -0.2626  0.5266
 5043TIP3   OH236619   0.995   3.769  14.203 -0.0704 -0.2472  0.5228
 5043TIP3    H136620   0.933   3.829  14.162  0.5341 -1.1280 -1.8634
 5043TIP3    H236621   1.079   3.787  14.159  0.9690 -0.3368  2.3750
 5044TIP3   OH236622   5.504   2.095   0.402  0.0207  0.0653 -0.1222
 5044TIP3    H136623   5.457   2.128   0.325  0.1933  1.6177  0.4075
 5044TIP3    H236624   5.452   2.126   0.476  1.4467  1.1235  0.4563
 5045TIP3   OH236625   2.644   0.177  10.703 -0.1322  0.4637  0.1225
 5045TIP3    H136626   2.591   0.104  10.672  1.8207 -1.1120  0.3277
 5045TIP3    H236627   2.705   0.138  10.765 -0.1594  2.5885  1.6051
 5046TIP3   OH236628   6.201   1.028   0.903  0.6835  0.3277 -0.0963
 5046TIP3    H136629   6.158   1.114   0.905  0.9364  0.4493  1.3661
 5046TIP3    H236630   6.240   1.019   0.990  1.5859 -0.8121 -0.5904
 5047TIP3   OH236631   2.315   0.863  12.961 -0.1369 -0.0663  0.1403
 5047TIP3    H136632   2.308   0.882  13.054 -0.6378  1.8505 -0.2531
 5047TIP3    H236633   2.224   0.858  12.931  0.0240  0.1032 -0.3904
 5048TIP3   OH236634   0.334   2.220   5.390 -0.0355 -0.3462  0.2419
 5048TIP3    H136635   0.346   2.315   5.392 -0.5787 -0.1960 -1.7382
 5048TIP3    H236636   0.382   2.188   5.467 -1.2995  1.6455  1.9804
 5049TIP3   OH236637   0.761   4.264   1.467 -0.1472 -0.3281 -0.5010
 5049TIP3    H136638   0.707   4.337   1.498 -1.6330 -0.5311 -2.4123
 5049TIP3    H236639   0.837   4.307   1.428 -0.3179  0.1266 -0.3528
 5050TIP3   OH236640   1.898   0.378   3.418 -0.2783  0.1810 -0.3478
 5050TIP3    H136641   1.970   0.340   3.467 -0.2086 -0.9837 -1.2811
 5050TIP3    H236642   1.825   0.317   3.431 -0.2607 -0.1581 -1.6265
 5051TIP3   OH236643   6.740   6.187  10.633 -0.0580 -0.2022 -0.1848
 5051TIP3    H136644   6.775   6.243  10.564 -0.2012  1.2476  0.8833
 5051TIP3    H236645   6.770   6.227  10.715  0.6098 -2.2119  0.6190
 5052TIP3   OH236646   3.102   2.936   3.238  0.1229  0.1857 -0.2277
 5052TIP3    H136647   3.035   2.989   3.282 -0.3137 -1.0766  0.7070
 5052TIP3    H236648   3.142   2.884   3.308  0.7996 -0.4297 -1.0396
 5053TIP3   OH236649   1.019   6.250   3.072  0.1190  0.3844  0.0614
 5053TIP3    H136650   1.030   6.179   3.135 -0.8606  0.9609  0.9070
 5053TIP3    H236651   0.930   6.281   3.085  0.7390  2.2565  0.2634
 5054TIP3   OH236652   5.437   6.040   4.496  0.0191  1.1597  0.6669
 5054TIP3    H136653   5.356   5.991   4.503  1.1598 -0.8486  0.5344
 5054TIP3    H236654   5.477   6.009   4.415  1.8390  0.5898  1.7258
 5055TIP3   OH236655   3.143   2.072  12.182  0.2031 -0.3876 -0.1012
 5055TIP3    H136656   3.204   2.105  12.248 -1.9666  2.6176  0.6255
 5055TIP3    H236657   3.060   2.062  12.229 -0.6279 -1.4109 -1.6990
 5056TIP3   OH236658   2.596   5.509   1.413 -0.8933 -0.7937 -0.8678
 5056TIP3    H136659   2.633   5.580   1.360 -2.0036 -0.7922 -1.6576
 5056TIP3    H236660   2.669   5.448   1.423 -0.4232 -0.3944 -1.6934
 5057TIP3   OH236661   4.265   4.524  16.484  0.4565  0.8108  0.1522
 5057TIP3    H136662   4.223   4.609  16.480 -0.9361  0.1258 -0.7306
 5057TIP3    H236663   4.317   4.526  16.564 -1.1895  1.7677  1.2479
 5058TIP3   OH236664   0.001   6.137  10.994 -0.0636 -0.2313 -0.4059
 5058TIP3    H136665   0.064   6.111  11.062  0.6612  1.7573 -0.2637
 5058TIP3    H236666   0.047   6.122  10.911  0.3826  0.6146 -0.3221
 5059TIP3   OH236667   5.568   3.144  10.487 -0.2234 -0.2273 -1.3985
 5059TIP3    H136668   5.570   3.049  10.503 -0.4932  0.0196  0.3066
 5059TIP3    H236669   5.541   3.152  10.395 -0.8699 -1.7989 -1.3817
 5060TIP3   OH236670   6.548   4.505  17.107  0.5634  0.3058  0.6629
 5060TIP3    H136671   6.515   4.551  17.030 -0.0588 -0.2142  0.6183
 5060TIP3    H236672   6.637   4.538  17.118 -0.0027  1.8522  0.8847
 5061TIP3   OH236673   2.968   6.042  11.645 -0.0465 -0.3112  0.1304
 5061TIP3    H136674   2.987   5.948  11.644  1.4534 -0.0722  1.3238
 5061TIP3    H236675   2.975   6.067  11.738 -0.1004  1.0242 -0.1997
 5062TIP3   OH236676   2.214   5.313  15.825 -0.0733  0.6555 -0.3650
 5062TIP3    H136677   2.217   5.255  15.749 -0.2833  0.1829 -0.0194
 5062TIP3    H236678   2.306   5.338  15.839  0.4957 -1.9437  1.2455
 5063TIP3   OH236679   2.629   2.258  12.396  0.2768  0.0088 -0.7377
 5063TIP3    H136680   2.577   2.177  12.396  0.9159 -0.4030 -0.9470
 5063TIP3    H236681   2.613   2.296  12.482  1.0498 -1.0397 -0.1127
 5064TIP3   OH236682   6.852   4.704  10.658 -0.0667 -0.0957  0.6105
 5064TIP3    H136683   6.762   4.673  10.652 -0.1615  0.2786  0.1226
 5064TIP3    H236684   6.905   4.630  10.627 -0.0835 -0.9135  2.3684
 5065TIP3   OH236685   1.017   3.426   0.950 -0.0332 -0.1324  0.2468
 5065TIP3    H136686   0.960   3.350   0.948 -1.7510  1.1087 -0.1423
 5065TIP3    H236687   1.083   3.405   1.017 -0.6936 -1.7618  0.4242
 5066TIP3   OH236688   2.958   2.185   2.701 -0.1629  0.1761 -0.0862
 5066TIP3    H136689   2.930   2.145   2.619 -2.9496  0.2111  0.7391
 5066TIP3    H236690   2.998   2.113   2.750 -0.9203 -0.5027 -0.4424
 5067TIP3   OH236691   1.153   3.447   5.925  0.0603  0.0062 -0.2998
 5067TIP3    H136692   1.243   3.449   5.958  0.3567 -0.7952 -1.0356
 5067TIP3    H236693   1.099   3.448   6.004  0.4059  6.1935  0.3708
 5068TIP3   OH236694   6.472   3.359  15.011  0.1313 -0.4668  0.0369
 5068TIP3    H136695   6.447   3.390  15.098  2.2761 -0.6840  0.7841
 5068TIP3    H236696   6.499   3.437  14.964 -0.6203 -0.4048 -0.2998
 5069TIP3   OH236697   6.316   4.631  13.915 -0.1184 -0.1483  0.2691
 5069TIP3    H136698   6.312   4.600  14.006  2.2880 -0.6573  0.2874
 5069TIP3    H236699   6.226   4.655  13.894 -1.5367 -3.6890  1.4946
 5070TIP3   OH236700   6.744   6.758  11.657 -0.1537  0.0348  0.4381
 5070TIP3    H136701   6.751   6.825  11.725  0.9053  0.1317  0.2586
 5070TIP3    H236702   6.654   6.728  11.662 -0.4155  0.8809  1.0883
 5071TIP3   OH236703   3.692   1.546   4.829 -0.0125  0.2652  0.0883
 5071TIP3    H136704   3.761   1.497   4.873  0.0465 -0.4268 -0.7558
 5071TIP3    H236705   3.610   1.504   4.857 -0.0781  0.7581  0.6767
 5072TIP3   OH236706   1.533   2.006   2.413  0.3920  0.1524  0.1598
 5072TIP3    H136707   1.596   2.030   2.481  0.4807 -0.5960  0.3473
 5072TIP3    H236708   1.528   2.083   2.357  0.7991  0.5427  0.6535
 5073TIP3   OH236709   0.994   3.317   5.221  0.1799 -0.2544  0.0926
 5073TIP3    H136710   0.953   3.239   5.260 -2.6525 -0.4809 -2.8589
 5073TIP3    H236711   1.027   3.286   5.137 -0.9501  1.6671 -1.1146
 5074TIP3   OH236712   2.372   2.791   3.071  0.4970  0.1436 -0.0461
 5074TIP3    H136713   2.378   2.722   3.137 -0.5819  0.9487  0.9508
 5074TIP3    H236714   2.345   2.869   3.121  2.8965  1.6381 -0.9120
 5075TIP3   OH236715   1.166   6.036  13.418  0.2553 -0.3992  0.2495
 5075TIP3    H136716   1.075   6.040  13.387  1.1086 -0.9105 -2.5677
 5075TIP3    H236717   1.185   6.126  13.445 -0.7380 -0.0535 -0.1511
 5076TIP3   OH236718   2.249   6.303  15.296 -0.1856  0.6955  0.2415
 5076TIP3    H136719   2.245   6.346  15.211  0.8002  1.9800  0.8080
 5076TIP3    H236720   2.252   6.375  15.359  0.6549 -0.2034  1.2700
 5077TIP3   OH236721   3.207   6.819  16.509 -0.6340 -0.0971  0.2121
 5077TIP3    H136722   3.241   6.903  16.538 -1.1682  0.0726  0.3634
 5077TIP3    H236723   3.196   6.768  16.589  0.8093 -0.7435  0.0145
 5078TIP3   OH236724   1.312   4.221   2.711 -0.3754 -0.1961  0.2581
 5078TIP3    H136725   1.346   4.196   2.797 -1.1525  1.5693  1.1445
 5078TIP3    H236726   1.217   4.210   2.719 -0.7375  2.5331  0.6200
 5079TIP3   OH236727   6.398   3.262  15.530  0.1112 -0.5377 -0.5149
 5079TIP3    H136728   6.417   3.185  15.476  0.1196 -0.4385 -0.6540
 5079TIP3    H236729   6.468   3.263  15.596 -0.2446 -1.0101 -0.1193
 5080TIP3   OH236730   3.540   0.780   1.466 -0.0219 -0.0764  0.0008
 5080TIP3    H136731   3.591   0.843   1.516 -0.8313  0.7209 -0.1685
 5080TIP3    H236732   3.469   0.754   1.524  0.2879 -0.8170  0.0606
 5081TIP3   OH236733   5.388   0.014   1.969 -0.6749 -0.6626 -0.5887
 5081TIP3    H136734   5.320  -0.024   2.024  0.0163 -0.2316  0.5979
 5081TIP3    H236735   5.470  -0.016   2.009 -0.1543 -0.5973 -1.5767
 5082TIP3   OH236736   2.290   4.813   4.179 -0.0620 -0.3876  0.1484
 5082TIP3    H136737   2.375   4.827   4.219  0.2897 -0.8052 -0.4340
 5082TIP3    H236738   2.293   4.865   4.098 -1.1513  1.3049  1.1331
 5083TIP3   OH236739   1.624   3.553   3.148 -0.5982  0.3681  0.4090
 5083TIP3    H136740   1.626   3.490   3.219  1.1642  0.1493  0.2324
 5083TIP3    H236741   1.621   3.500   3.068 -1.5998  0.5840  0.2942
 5084TIP3   OH236742   6.504   4.159  15.865  0.0306 -0.4570 -0.1450
 5084TIP3    H136743   6.575   4.147  15.802 -0.9643 -1.6735 -1.1056
 5084TIP3    H236744   6.507   4.080  15.919 -0.3712 -0.3538  0.0285
 5085TIP3   OH236745   3.837   0.381  14.215  0.5624 -0.1134  0.0230
 5085TIP3    H136746   3.840   0.303  14.270  1.0376 -0.6868 -0.7906
 5085TIP3    H236747   3.805   0.350  14.130  0.0504  0.7117 -0.1002
 5086TIP3   OH236748   6.332   2.010   1.896 -0.0161  0.2837  1.2266
 5086TIP3    H136749   6.304   2.034   1.984 -0.2433  0.9697  0.9784
 5086TIP3    H236750   6.367   2.091   1.859  0.6248 -0.1401  0.8937
 5087TIP3   OH236751   5.720   0.500  14.867  0.1070 -0.4352  0.1458
 5087TIP3    H136752   5.779   0.429  14.843  1.4285  0.8084 -0.4953
 5087TIP3    H236753   5.728   0.508  14.962 -1.0398 -1.9208  0.4063
 5088TIP3   OH236754   4.940   1.620   0.102 -0.1501 -0.2761 -0.2262
 5088TIP3    H136755   4.918   1.586   0.189 -0.8596  0.6703 -0.0118
 5088TIP3    H236756   4.911   1.711   0.105  1.0773  0.1548 -1.0005
 5089TIP3   OH236757   5.443   3.960   3.932 -0.2835 -0.3451 -0.7767
 5089TIP3    H136758   5.361   3.924   3.966 -1.0650  1.6113 -0.4634
 5089TIP3    H236759   5.508   3.940   3.999 -1.1850  0.8119  0.4950
 5090TIP3   OH236760   6.076   5.670   2.942  0.6458  0.1987 -0.4943
 5090TIP3    H136761   6.013   5.597   2.941  0.5681  0.2674 -1.3482
 5090TIP3    H236762   6.154   5.633   2.983  0.8919 -0.6231 -1.6491
 5091TIP3   OH236763   5.199   2.718   6.125 -0.2233 -0.1548  0.8861
 5091TIP3    H136764   5.149   2.644   6.090 -2.3915  0.7307  1.9548
 5091TIP3    H236765   5.213   2.696   6.217 -0.0433  0.3550  0.9834
 5092TIP3   OH236766   3.857   3.050  15.832 -0.2548 -0.6337 -0.0503
 5092TIP3    H136767   3.819   3.138  15.841  0.7956  0.1227 -2.1627
 5092TIP3    H236768   3.945   3.059  15.869 -0.4425 -1.0461  0.5010
 5093TIP3   OH236769   6.547   6.533   1.948  0.2645 -0.3049  0.4294
 5093TIP3    H136770   6.629   6.570   1.915 -0.5905  0.0324 -1.4810
 5093TIP3    H236771   6.544   6.445   1.912 -0.2252 -0.2951  0.4424
 5094TIP3   OH236772   2.682   4.799  10.782 -0.4041 -0.1957 -0.1976
 5094TIP3    H136773   2.642   4.826  10.864  0.9957  1.6378 -0.0565
 5094TIP3    H236774   2.726   4.716  10.803 -0.8304 -0.2143  0.6559
 5095TIP3   OH236775   3.455   6.730  15.908  0.2834 -0.6034 -0.5912
 5095TIP3    H136776   3.397   6.802  15.884  0.0635 -1.0929 -1.6089
 5095TIP3    H236777   3.417   6.694  15.988  0.3015  0.2975 -0.1712
 5096TIP3   OH236778   6.300   6.813  15.488  0.3253  0.2581 -0.0490
 5096TIP3    H136779   6.333   6.863  15.413  1.4244  0.0151  0.2460
 5096TIP3    H236780   6.266   6.733  15.450  0.5963  0.2714 -0.3258
 5097TIP3   OH236781   1.465   3.693  13.101  0.1523 -0.2391  0.4563
 5097TIP3    H136782   1.468   3.735  13.186 -0.9289  0.1461  0.3162
 5097TIP3    H236783   1.465   3.599  13.121  2.5247 -0.2399  0.7662
 5098TIP3   OH236784   2.251   2.777   0.696  0.3831  0.1376  0.2054
 5098TIP3    H136785   2.234   2.855   0.749 -1.5864 -0.7797  1.0076
 5098TIP3    H236786   2.329   2.738   0.736 -0.2652  0.2028  1.5720
 5099TIP3   OH236787   5.115   4.341  10.468  0.1709  0.1859  0.5223
 5099TIP3    H136788   5.065   4.263  10.446 -0.1748  0.0138  1.8276
 5099TIP3    H236789   5.151   4.323  10.555  0.2245  1.3895  0.7708
 5100TIP3   OH236790   3.659   0.651  13.821 -0.2397  0.2899  0.3703
 5100TIP3    H136791   3.716   0.582  13.788  1.2672  0.7585  1.8619
 5100TIP3    H236792   3.653   0.714  13.749  1.3842  0.3757  0.2714
 5101TIP3   OH236793   6.219   1.906  13.046  0.0565  0.2971 -0.0961
 5101TIP3    H136794   6.183   1.934  12.962  0.3282 -1.5218 -0.8617
 5101TIP3    H236795   6.186   1.817  13.058  1.3360 -0.0699  0.9212
 5102TIP3   OH236796   1.327   3.966  17.112 -0.0082  0.2729  0.2575
 5102TIP3    H136797   1.384   3.893  17.090 -0.6205  0.0746 -0.7223
 5102TIP3    H236798   1.277   3.935  17.188  0.5339  0.1075  0.5516
 5103TIP3   OH236799   5.462   2.568   1.299 -0.0640 -0.2972 -0.8370
 5103TIP3    H136800   5.529   2.627   1.264  0.2966  0.9478  1.6929
 5103TIP3    H236801   5.505   2.524   1.371 -0.8299 -2.5808 -1.7012
 5104TIP3   OH236802   6.750   1.782  15.162  0.4155 -0.3216 -0.2802
 5104TIP3    H136803   6.713   1.765  15.249 -0.9756 -0.5648 -0.8936
 5104TIP3    H236804   6.749   1.697  15.118  0.5927 -0.1008 -0.7161
 5105TIP3   OH236805   3.869   6.552   5.224  0.5054 -0.0295  0.2774
 5105TIP3    H136806   3.929   6.560   5.149  1.9200 -1.2118  1.2173
 5105TIP3    H236807   3.877   6.636   5.269  1.2228 -0.0460  0.2051
 5106TIP3   OH236808   2.396   2.787  11.812 -0.4032  0.0265 -0.0675
 5106TIP3    H136809   2.329   2.815  11.875 -0.8096  0.3368 -0.6320
 5106TIP3    H236810   2.479   2.798  11.859 -0.7316 -0.2754  0.6066
 5107TIP3   OH236811   4.513   0.407  14.837 -0.4331 -0.1224  0.0568
 5107TIP3    H136812   4.495   0.497  14.812 -1.4540 -0.3390 -0.0447
 5107TIP3    H236813   4.605   0.393  14.814 -0.6040  0.5056 -1.0702
 5108TIP3   OH236814   4.879   0.186  16.821 -0.1467  0.2813 -0.3898
 5108TIP3    H136815   4.879   0.272  16.780  1.8576  0.0800 -0.9160
 5108TIP3    H236816   4.879   0.205  16.915 -0.5658  0.8299 -0.4948
 5109TIP3   OH236817   5.026   0.519   2.219  0.7533 -0.3912  0.1323
 5109TIP3    H136818   4.986   0.568   2.291  1.4416  1.3038 -0.5918
 5109TIP3    H236819   5.039   0.431   2.255  0.3109  0.1762  1.7828
 5110TIP3   OH236820   4.266   4.962  10.737 -0.2605  0.1874 -0.8419
 5110TIP3    H136821   4.318   4.988  10.661  2.3912 -0.7628  0.5356
 5110TIP3    H236822   4.315   4.994  10.813 -1.3891 -1.2516  0.5653
 5111TIP3   OH236823   2.665   4.260  12.304 -0.4534 -0.4818 -0.2092
 5111TIP3    H136824   2.759   4.241  12.305 -0.3538 -0.0847  1.6213
 5111TIP3    H236825   2.660   4.355  12.299 -0.7211 -0.4393  0.7230
 5112TIP3   OH236826   2.679   5.669   5.623 -0.1874 -0.1634  0.6958
 5112TIP3    H136827   2.632   5.716   5.554 -1.7108 -1.2840  0.9233
 5112TIP3    H236828   2.610   5.640   5.683  0.8147 -1.6386  1.1848
 5113TIP3   OH236829   5.738   3.827  10.951 -0.2980  0.5116  0.2064
 5113TIP3    H136830   5.767   3.741  10.982  1.3673  0.8271 -0.4116
 5113TIP3    H236831   5.719   3.876  11.031 -1.2487 -0.4024  0.5675
 5114TIP3   OH236832   5.851   2.803  12.929 -0.4690 -0.0002 -0.4590
 5114TIP3    H136833   5.909   2.853  12.872  1.1793 -1.5894 -0.2841
 5114TIP3    H236834   5.910   2.751  12.984 -1.9890  1.1838  2.5007
 5115TIP3   OH236835   1.589   1.714  11.869  0.2388  0.7978 -0.0484
 5115TIP3    H136836   1.515   1.773  11.881 -0.8738 -0.4519 -0.4830
 5115TIP3    H236837   1.551   1.637  11.827  1.5572 -0.4113  0.8976
 5116TIP3   OH236838   1.552   0.130   5.847 -0.6487 -0.0356 -0.0523
 5116TIP3    H136839   1.601   0.189   5.789 -0.7999 -2.0525 -2.4043
 5116TIP3    H236840   1.615   0.062   5.871 -1.5209 -1.1597 -0.8504
 5117TIP3   OH236841   5.251   6.770   1.359 -0.2990 -0.0541 -0.0428
 5117TIP3    H136842   5.341   6.736   1.357  0.0074  0.7142  0.2582
 5117TIP3    H236843   5.234   6.789   1.451 -1.9521 -3.1542  0.4240
 5118TIP3   OH236844   5.904   6.366   3.522 -0.3407  0.2039 -0.8455
 5118TIP3    H136845   5.872   6.352   3.611 -0.1524 -0.2665 -0.8537
 5118TIP3    H236846   5.824   6.368   3.469 -0.3425 -2.5563 -1.0944
 5119TIP3   OH236847   2.998   4.547   2.130 -0.4476 -0.2484 -0.0437
 5119TIP3    H136848   2.907   4.551   2.158  0.1293  0.6085  1.8597
 5119TIP3    H236849   3.004   4.465   2.079 -2.1725 -0.4931  0.0915
 5120TIP3   OH236850   4.788   4.839  16.980  0.1324 -0.4052  0.1990
 5120TIP3    H136851   4.793   4.750  17.015  0.5509 -0.3535  0.2791
 5120TIP3    H236852   4.838   4.835  16.899 -0.3328 -0.3773 -0.0954
 5121TIP3   OH236853   3.483   4.276  15.165 -0.0601  0.5657 -0.1852
 5121TIP3    H136854   3.465   4.312  15.078  0.5074  1.2733 -0.0200
 5121TIP3    H236855   3.405   4.225  15.187  0.6102 -1.3712 -1.9710
 5122TIP3   OH236856   5.732   2.472  12.726  0.0956 -0.2195  0.0004
 5122TIP3    H136857   5.795   2.538  12.697 -0.5525 -0.9265 -3.4545
 5122TIP3    H236858   5.693   2.509  12.805  1.6110  2.2755 -0.3073
 5123TIP3   OH236859   2.520   2.486   2.741 -0.3974 -0.3753  0.2018
 5123TIP3    H136860   2.573   2.478   2.662 -0.4594 -3.7275  0.3786
 5123TIP3    H236861   2.576   2.535   2.802  0.0920  1.2661 -1.4779
 5124TIP3   OH236862   1.122   4.607  14.920  0.6003 -0.0595  0.5377
 5124TIP3    H136863   1.146   4.514  14.919  1.0534  0.0370  1.5845
 5124TIP3    H236864   1.165   4.643  14.842 -0.3072 -0.8899 -0.3751
 5125TIP3   OH236865   1.753   5.590   1.568 -0.0606  0.5767  0.5869
 5125TIP3    H136866   1.703   5.530   1.623 -0.9243 -1.1305 -1.8672
 5125TIP3    H236867   1.830   5.539   1.542 -1.0014  0.2674 -1.8566
 5126TIP3   OH236868   3.404   1.811   2.384  0.2129 -0.6833  0.0929
 5126TIP3    H136869   3.453   1.769   2.455  1.4363  0.8313  0.2053
 5126TIP3    H236870   3.428   1.904   2.390 -1.6409 -0.0973 -0.7245
 5127TIP3   OH236871   5.727   5.047   0.112 -0.1322 -0.1721 -0.2018
 5127TIP3    H136872   5.760   5.053   0.023  3.2426 -1.6940  0.7891
 5127TIP3    H236873   5.757   5.127   0.155  0.3596 -0.5485  0.1643
 5128TIP3   OH236874   4.495   6.463  15.726 -0.5215  0.0581 -0.3224
 5128TIP3    H136875   4.556   6.416  15.669 -0.2395  2.3075 -1.9924
 5128TIP3    H236876   4.411   6.457  15.681 -1.0037 -0.7870  0.6494
 5129TIP3   OH236877   2.083   5.714   0.610 -0.6424 -0.2155  0.0979
 5129TIP3    H136878   2.036   5.660   0.673 -1.3612  1.2487  0.8666
 5129TIP3    H236879   2.102   5.795   0.657 -0.1873  0.4713 -1.2180
 5130TIP3   OH236880   6.427   0.989   0.553 -0.3057 -0.9914  0.4016
 5130TIP3    H136881   6.404   0.982   0.460  1.1978 -0.8102 -0.0070
 5130TIP3    H236882   6.475   0.908   0.572  0.5235 -0.4503  0.6663
 5131TIP3   OH236883   4.779   0.442   0.502 -0.0206 -0.1936 -0.0293
 5131TIP3    H136884   4.854   0.470   0.450  1.1224 -0.1443  1.5648
 5131TIP3    H236885   4.815   0.375   0.561 -1.7816 -1.9938 -0.9105
 5132TIP3   OH236886   6.084   4.872   3.087 -0.1205 -0.2272  0.0874
 5132TIP3    H136887   6.031   4.869   3.167  0.7969  2.2596  0.8864
 5132TIP3    H236888   6.098   4.965   3.071  3.0231 -0.7158 -0.7212
 5133TIP3   OH236889   4.174   0.607   2.919 -0.5308 -0.0204 -0.0314
 5133TIP3    H136890   4.106   0.566   2.972 -0.5648  1.0700  0.7934
 5133TIP3    H236891   4.187   0.546   2.846 -2.8670  0.0801 -0.5977
 5134TIP3   OH236892   1.056   0.136  10.617 -0.3230 -0.2613 -0.3646
 5134TIP3    H136893   1.012   0.220  10.625  1.3905  0.5395  1.5542
 5134TIP3    H236894   1.013   0.080  10.682  0.5063  0.1119  0.5410
 5135TIP3   OH236895   5.054   2.755   5.418 -0.0567 -0.1444 -0.0614
 5135TIP3    H136896   5.005   2.682   5.379 -1.2526 -1.6715  3.8314
 5135TIP3    H236897   5.006   2.777   5.497  2.5202  2.2164  1.0026
 5136TIP3   OH236898   5.424   2.792   4.376 -0.5539 -0.1560  0.0261
 5136TIP3    H136899   5.512   2.799   4.339 -1.1024 -0.4841 -1.4113
 5136TIP3    H236900   5.391   2.882   4.376 -1.3616 -0.3727 -2.4771
 5137TIP3   OH236901   6.379   4.836  11.693 -0.0412  0.6076  0.0791
 5137TIP3    H136902   6.292   4.847  11.653 -0.9356 -0.1344  1.7019
 5137TIP3    H236903   6.440   4.870  11.627 -1.4705  0.2090 -1.5391
 5138TIP3   OH236904   4.840   5.636   5.157  0.0752  0.0399  0.5671
 5138TIP3    H136905   4.778   5.606   5.091  0.9773  0.0039 -0.2913
 5138TIP3    H236906   4.794   5.627   5.240 -0.4759 -1.6015  0.1215
 5139TIP3   OH236907   1.147   4.656  11.587 -0.2565 -0.8114 -0.0475
 5139TIP3    H136908   1.170   4.583  11.645  0.0546  0.2429  1.1986
 5139TIP3    H236909   1.062   4.686  11.619  1.0185  1.3593  1.5370
 5140TIP3   OH236910   2.603   0.776   0.538 -0.9255 -0.1628  0.3651
 5140TIP3    H136911   2.654   0.719   0.480 -2.8653  0.3329 -1.9567
 5140TIP3    H236912   2.666   0.842   0.567  0.1576 -0.4827 -1.1196
 5141TIP3   OH236913   5.072   4.349  11.217  0.1796 -0.3192 -0.6433
 5141TIP3    H136914   5.088   4.351  11.311 -1.1511  0.8029 -0.4188
 5141TIP3    H236915   5.093   4.437  11.186  1.2656 -0.8661 -1.5318
 5142TIP3   OH236916   5.225   6.726   4.312  0.0606  0.4045 -0.7577
 5142TIP3    H136917   5.225   6.761   4.223 -2.1439 -1.8404 -1.7435
 5142TIP3    H236918   5.264   6.638   4.303  0.5282  0.4425  0.6597
 5143TIP3   OH236919   6.261   0.614   2.159 -0.1119  0.3065  0.7861
 5143TIP3    H136920   6.294   0.693   2.116 -0.3268  0.7098  1.3564
 5143TIP3    H236921   6.224   0.562   2.088  0.9134  0.2595  0.2628
 5144TIP3   OH236922   3.844   6.479  14.952  0.1774 -0.2581  0.5314
 5144TIP3    H136923   3.868   6.566  14.982  0.7424  0.1972 -1.1688
 5144TIP3    H236924   3.900   6.420  15.002  0.3357  0.3945  1.1387
 5145TIP3   OH236925   0.132   1.681   4.667 -0.4944  0.0037 -0.1724
 5145TIP3    H136926   0.153   1.769   4.634 -2.2463  0.7978  0.7048
 5145TIP3    H236927   0.206   1.659   4.724  1.3929 -0.3805 -2.5696
 5146TIP3   OH236928   1.216   6.064  16.353 -0.5054 -0.3689 -0.0018
 5146TIP3    H136929   1.247   6.084  16.442  0.7609  1.5294 -0.7937
 5146TIP3    H236930   1.205   5.969  16.352 -0.0036 -0.4952  2.0151
 5147TIP3   OH236931   3.525   1.871   4.515  0.3204  0.3387  0.1633
 5147TIP3    H136932   3.534   1.855   4.609  0.2734  1.2581  0.3307
 5147TIP3    H236933   3.433   1.891   4.503  0.4248  0.7178  0.0000
 5148TIP3   OH236934   2.471   3.043  10.702  0.6032 -0.6921 -0.0949
 5148TIP3    H136935   2.398   3.059  10.761 -0.0174 -0.6167 -0.8668
 5148TIP3    H236936   2.523   3.123  10.705 -0.1892 -0.1384 -0.7125
 5149TIP3   OH236937   3.157   3.004   4.055  0.5081 -0.4401  0.1338
 5149TIP3    H136938   3.157   3.094   4.087 -2.2453 -0.6945  1.0644
 5149TIP3    H236939   3.246   2.991   4.021  0.6895  2.9752 -1.1047
 5150TIP3   OH236940   1.370   6.752   0.488  0.3184  0.0654  0.0495
 5150TIP3    H136941   1.411   6.831   0.523 -0.1708  1.3991 -2.1774
 5150TIP3    H236942   1.366   6.767   0.393  0.3710 -2.7228 -0.4918
 5151TIP3   OH236943   0.023   6.643  13.740 -0.0508  0.1225 -0.6533
 5151TIP3    H136944  -0.059   6.623  13.694 -1.0595  0.1582  1.0451
 5151TIP3    H236945   0.080   6.569  13.719 -0.5501  0.0251 -1.7639
 5152TIP3   OH236946   1.660   1.805   2.157 -0.4260 -0.4152 -0.3476
 5152TIP3    H136947   1.582   1.860   2.149  1.2569  2.2068  0.1501
 5152TIP3    H236948   1.728   1.864   2.188  1.3400 -3.0002  1.0838
 5153TIP3   OH236949   4.266   0.336   3.057 -0.2573 -0.0698 -0.1688
 5153TIP3    H136950   4.254   0.267   2.991  1.1330  0.9530 -1.5778
 5153TIP3    H236951   4.200   0.402   3.036 -0.3772 -0.1366  0.0004
 5154TIP3   OH236952   2.142   1.826  15.003  0.2084  0.1185 -0.6455
 5154TIP3    H136953   2.180   1.914  15.010  0.9619 -0.1762 -0.9044
 5154TIP3    H236954   2.066   1.837  14.946 -0.2347  0.7618  0.0542
 5155TIP3   OH236955   6.255   0.324  12.568  0.4196  0.1268 -0.2767
 5155TIP3    H136956   6.255   0.264  12.493  1.1818  0.6250 -0.6837
 5155TIP3    H236957   6.288   0.271  12.641  2.4585  0.3937 -0.9421
 5156TIP3   OH236958   5.349   5.176  13.302  0.3717 -0.6109  0.0668
 5156TIP3    H136959   5.340   5.260  13.257  1.5384  0.2936  1.4330
 5156TIP3    H236960   5.340   5.111  13.232  1.5953  0.7143 -1.4201
 5157TIP3   OH236961   4.782   1.505  16.005  0.2469  0.4626  0.3748
 5157TIP3    H136962   4.765   1.582  15.949 -0.3469 -0.0761 -0.2133
 5157TIP3    H236963   4.874   1.484  15.989  0.4715  1.1708  0.6948
 5158TIP3   OH236964   5.786   4.403   6.299  0.9656  0.4452 -0.2375
 5158TIP3    H136965   5.865   4.421   6.249  1.8571  0.9521  1.3131
 5158TIP3    H236966   5.781   4.472   6.364  0.1526 -0.5053  0.7704
 5159TIP3   OH236967   3.474   2.699   4.199 -0.4421 -0.1921  0.0163
 5159TIP3    H136968   3.541   2.741   4.144  0.3941 -1.2440  0.2088
 5159TIP3    H236969   3.431   2.772   4.244 -1.1747  0.7182 -2.0311
 5160TIP3   OH236970   3.943   1.422   4.981  0.0543 -0.3443 -0.9313
 5160TIP3    H136971   3.862   1.402   5.028 -0.4134  0.1073 -1.5257
 5160TIP3    H236972   3.993   1.340   4.984 -0.3544 -0.5852 -0.4324
 5161TIP3   OH236973   0.196   2.604   0.640  0.1178  0.1907 -0.4023
 5161TIP3    H136974   0.275   2.658   0.632 -0.8346  1.8739  1.0473
 5161TIP3    H236975   0.229   2.517   0.664  1.5252  0.9416  0.4894
 5162TIP3   OH236976   4.461   0.016  17.095 -0.0271 -0.1580 -0.7920
 5162TIP3    H136977   4.405   0.009  17.172 -1.4433 -1.8219 -1.9029
 5162TIP3    H236978   4.511   0.097  17.109 -2.1810  1.0341  0.5757
 5163TIP3   OH236979   2.794   1.928  14.038 -0.2396  0.0889  0.2441
 5163TIP3    H136980   2.814   2.006  13.985 -1.5455  1.3963  1.5888
 5163TIP3    H236981   2.698   1.921  14.034 -0.1625 -1.2741  0.4333
 5164TIP3   OH236982   2.801   6.658  12.837  0.0012 -0.1862  0.1619
 5164TIP3    H136983   2.764   6.652  12.749  0.3047 -0.0128  0.0219
 5164TIP3    H236984   2.746   6.721  12.883 -0.3250 -0.4837  0.1830
 5165TIP3   OH236985   4.179   3.324   5.125 -0.6485 -0.4443 -0.1031
 5165TIP3    H136986   4.095   3.336   5.169 -0.3221  0.1262  0.3801
 5165TIP3    H236987   4.222   3.254   5.174  0.0738  0.7684  1.0659
 5166TIP3   OH236988   0.055   1.713  14.302 -0.2293 -0.4073 -0.2746
 5166TIP3    H136989  -0.024   1.690  14.351 -1.5100  1.2406 -1.4236
 5166TIP3    H236990   0.125   1.712  14.367 -0.9123 -3.0600  0.5624
 5167TIP3   OH236991   1.868   1.845   0.402 -0.2873 -0.9433  0.0496
 5167TIP3    H136992   1.832   1.762   0.435 -1.8147 -0.9975 -1.5578
 5167TIP3    H236993   1.955   1.822   0.369 -1.7747 -2.7617 -3.1758
 5168TIP3   OH236994   3.687   6.656   4.343  0.1611  0.2929  0.7036
 5168TIP3    H136995   3.722   6.575   4.379  0.5848  0.0573 -0.2189
 5168TIP3    H236996   3.617   6.681   4.404  1.1966  0.1970  1.9713
 5169TIP3   OH236997   5.142   3.848   2.810  0.5803 -0.4076  0.0153
 5169TIP3    H136998   5.128   3.754   2.819 -0.8303 -0.4062 -1.6605
 5169TIP3    H236999   5.164   3.861   2.718  1.6361  0.8381  0.3995
 5170TIP3   OH237000   5.408   2.401   4.858 -0.5480 -0.1379 -0.3482
 5170TIP3    H137001   5.371   2.479   4.898  2.4873  1.3456 -0.1499
 5170TIP3    H237002   5.447   2.353   4.931  0.9828  0.2100 -0.8952
 5171TIP3   OH237003   5.568   6.243  14.868  0.4064  0.9735  0.1125
 5171TIP3    H137004   5.597   6.263  14.779  0.2341  0.9336  0.0467
 5171TIP3    H237005   5.577   6.148  14.876  1.3158  1.0835  0.4576
 5172TIP3   OH237006   3.282   5.023   2.530 -0.1996 -0.0648 -0.4385
 5172TIP3    H137007   3.324   4.957   2.475 -1.9145 -1.2509 -0.4002
 5172TIP3    H237008   3.339   5.030   2.607  0.5455 -0.7248 -0.9146
 5173TIP3   OH237009   4.052   1.387  13.169  0.2084 -0.3748  0.5346
 5173TIP3    H137010   4.074   1.294  13.178  1.9225  0.1058  1.7794
 5173TIP3    H237011   4.111   1.432  13.228 -1.0278  1.4922  0.4518
 5174TIP3   OH237012   1.188   0.163  15.292 -0.1305  0.5246  0.2108
 5174TIP3    H137013   1.260   0.223  15.276  0.5177 -0.0563  0.9201
 5174TIP3    H237014   1.154   0.142  15.205 -0.7490  2.3612 -0.0229
 5175TIP3   OH237015   4.941   4.334   0.934  0.2306  0.2250  0.0192
 5175TIP3    H137016   4.875   4.266   0.942  0.9558 -0.4515  0.3472
 5175TIP3    H237017   5.010   4.295   0.880  1.2397  0.2155  1.2518
 5176TIP3   OH237018   2.083   5.899  10.173 -0.5060 -0.6911  0.2980
 5176TIP3    H137019   2.093   5.962  10.244 -0.3871 -0.1293 -0.2042
 5176TIP3    H237020   2.053   5.819  10.215 -1.4062 -0.0743  0.8651
 5177TIP3   OH237021   1.167   6.276   2.857  0.7713  0.2322  0.2240
 5177TIP3    H137022   1.190   6.188   2.826 -1.2188  0.1192 -1.1341
 5177TIP3    H237023   1.133   6.262   2.946 -0.5207 -0.5894 -0.3573
 5178TIP3   OH237024   4.230   1.488   4.784  0.6768 -0.3797 -0.0378
 5178TIP3    H137025   4.194   1.477   4.696  0.3584  0.3711 -0.0097
 5178TIP3    H237026   4.182   1.425   4.837 -0.6472  0.6089 -0.0042
 5179TIP3   OH237027   2.848   1.606  11.484  0.5078 -0.0881  0.3274
 5179TIP3    H137028   2.863   1.522  11.439  0.3187  0.4587 -0.7847
 5179TIP3    H237029   2.871   1.588  11.576 -0.0004 -1.4875  0.2136
 5180TIP3   OH237030   5.341   5.653  15.519 -0.1261  0.0858  0.0233
 5180TIP3    H137031   5.277   5.590  15.486  0.4429  0.0337 -1.0209
 5180TIP3    H237032   5.326   5.732  15.467  1.2842 -0.2368 -0.9199
 5181TIP3   OH237033   4.812   2.531  11.123 -0.6650  0.0358  0.0283
 5181TIP3    H137034   4.863   2.607  11.151  0.5332 -0.7620  0.1012
 5181TIP3    H237035   4.725   2.545  11.159 -0.6734  1.7133 -0.5518
 5182TIP3   OH237036   0.741   0.102   5.828 -0.0105  0.1069  0.3742
 5182TIP3    H137037   0.817   0.157   5.809  0.7270 -0.8061  0.5557
 5182TIP3    H237038   0.777   0.013   5.833 -0.9220 -0.2255  1.4918
 5183TIP3   OH237039   6.297   4.842  13.352 -0.0437 -0.1396  0.3457
 5183TIP3    H137040   6.251   4.925  13.364  1.9025  1.1070 -0.2796
 5183TIP3    H237041   6.386   4.868  13.328  0.1977 -2.4120 -1.5471
 5184TIP3   OH237042   3.656   1.102   3.465 -0.3817 -0.1458 -0.8765
 5184TIP3    H137043   3.667   1.008   3.450 -1.1638 -0.3762 -0.1068
 5184TIP3    H237044   3.577   1.108   3.519  0.8601  0.8016  0.9186
 5185TIP3   OH237045   5.398   1.842  13.275  0.2326 -0.2676  0.4200
 5185TIP3    H137046   5.469   1.897  13.244  2.8341 -3.7951 -0.4100
 5185TIP3    H237047   5.341   1.830  13.199 -0.0745  0.7623  0.4707
 5186TIP3   OH237048   1.991   1.981  11.609  0.0800 -0.3562 -0.5722
 5186TIP3    H137049   1.944   2.018  11.534 -0.0560 -0.8739 -0.7532
 5186TIP3    H237050   1.935   1.909  11.638 -0.9294  1.1161  1.3598
 5187TIP3   OH237051   0.305   3.291   6.161  0.2236  0.4762 -0.0225
 5187TIP3    H137052   0.281   3.383   6.172 -0.0212  0.3319  0.6605
 5187TIP3    H237053   0.224   3.243   6.177  0.0542  0.1923 -1.5516
 5188TIP3   OH237054   4.467   0.874  11.008 -0.2288  0.4304  1.0247
 5188TIP3    H137055   4.508   0.800  10.962  0.7400  0.5586  1.6557
 5188TIP3    H237056   4.373   0.854  11.006 -0.0336 -0.5120  0.6479
 5189TIP3   OH237057   5.132   4.744   3.838  0.0442 -0.6331  0.2637
 5189TIP3    H137058   5.065   4.712   3.778  0.6981 -0.8084 -0.3819
 5189TIP3    H237059   5.087   4.811   3.890  0.2593  2.0452 -2.6864
 5190TIP3   OH237060   2.829   3.762   0.092 -0.7440  0.4391 -0.3010
 5190TIP3    H137061   2.854   3.710   0.017  1.6529 -0.9777  1.3344
 5190TIP3    H237062   2.743   3.798   0.070 -1.6372 -2.6180 -2.3160
 5191TIP3   OH237063   0.853   2.691   4.147 -0.1284  0.0683 -0.4198
 5191TIP3    H137064   0.917   2.743   4.196 -0.0790  2.8976 -3.2255
 5191TIP3    H237065   0.774   2.693   4.202  0.3079  1.9773  0.2050
 5192TIP3   OH237066   0.616   5.099   3.755 -0.4291 -0.4324 -0.4148
 5192TIP3    H137067   0.709   5.115   3.769  0.0301 -3.3855  0.5806
 5192TIP3    H237068   0.606   5.102   3.659  0.6796 -0.0890 -0.5351
 5193TIP3   OH237069   6.704   4.244   4.110  0.4137 -0.1387  0.8536
 5193TIP3    H137070   6.707   4.335   4.080  0.6641 -1.2106 -2.7175
 5193TIP3    H237071   6.790   4.228   4.149  1.0938  0.6014 -0.3099
 5194TIP3   OH237072   0.477   0.857  14.557 -0.5973  0.2455  0.3097
 5194TIP3    H137073   0.461   0.766  14.584  0.6199 -0.4432 -1.1114
 5194TIP3    H237074   0.572   0.864  14.551 -0.6918  1.4961 -0.0156
 5195TIP3   OH237075   5.833   3.901   5.654 -0.0933 -0.2012 -0.4099
 5195TIP3    H137076   5.778   3.854   5.717  0.8828  0.5798  1.0940
 5195TIP3    H237077   5.772   3.957   5.606 -0.6953  0.3120  0.9110
 5196TIP3   OH237078   3.482   1.760  12.641  0.8143  0.5133  0.1162
 5196TIP3    H137079   3.480   1.675  12.597  2.6953  0.5101 -0.0529
 5196TIP3    H237080   3.401   1.803  12.614 -0.5325 -1.4703  0.7619
 5197TIP3   OH237081   5.365   2.586   3.199  0.2863 -0.1485 -0.3956
 5197TIP3    H137082   5.416   2.660   3.165 -1.5655  1.6212  0.4397
 5197TIP3    H237083   5.281   2.592   3.154 -0.8626 -0.0482  1.6257
 5198TIP3   OH237084   3.878   6.799   3.787 -0.0485 -0.2351  0.1136
 5198TIP3    H137085   3.941   6.751   3.840  1.9412  0.0618 -1.7985
 5198TIP3    H237086   3.817   6.733   3.756  2.1489 -1.5581 -1.7916
 5199TIP3   OH237087   3.913   3.884   5.764  0.6331 -0.0232 -0.0478
 5199TIP3    H137088   4.002   3.884   5.728  0.2028  0.0859 -1.1318
 5199TIP3    H237089   3.856   3.877   5.688 -0.2852 -0.5293  0.6672
 5200TIP3   OH237090   5.210   3.761   0.970  0.6136  0.1832  0.2238
 5200TIP3    H137091   5.134   3.702   0.971  1.4677 -0.9321  0.5685
 5200TIP3    H237092   5.198   3.813   0.891 -0.0097 -0.6594 -0.2561
 5201TIP3   OH237093   4.192   4.572   3.597  0.3862  0.5118  0.6750
 5201TIP3    H137094   4.129   4.625   3.548 -0.1120 -0.6103  0.0655
 5201TIP3    H237095   4.259   4.549   3.533 -0.1772 -0.8156  0.5200
 5202TIP3   OH237096   3.806   0.703   5.469 -0.1756 -0.1643  0.0265
 5202TIP3    H137097   3.899   0.699   5.444 -0.1122  1.5169 -0.1923
 5202TIP3    H237098   3.759   0.684   5.387 -0.0334 -0.9806  0.1286
 5203TIP3   OH237099   2.271   6.762   4.168  0.1347 -0.5353  0.3826
 5203TIP3    H137100   2.271   6.670   4.140  0.1714 -0.1452 -0.9410
 5203TIP3    H237101   2.199   6.802   4.120  0.7443  0.3544  0.1922
 5204TIP3   OH237102   3.835   4.383  16.524  0.3895  0.8292 -0.0045
 5204TIP3    H137103   3.883   4.427  16.454  2.2990 -0.6851  0.2725
 5204TIP3    H237104   3.902   4.355  16.586 -1.0341  0.1228  1.3021
 5205TIP3   OH237105   3.461   5.413  11.942 -0.4473  0.8291  0.2086
 5205TIP3    H137106   3.521   5.446  12.009 -1.4264  1.1804  0.9371
 5205TIP3    H237107   3.436   5.326  11.973 -1.0673  1.0777  0.4247
 5206TIP3   OH237108   2.998   5.188   1.651  0.3524 -0.4204 -0.2178
 5206TIP3    H137109   2.980   5.112   1.707 -1.6060 -0.1315 -0.3917
 5206TIP3    H237110   3.002   5.262   1.711  2.8235 -0.6642  0.0216
 5207TIP3   OH237111   0.905   4.686   1.164 -0.0495  0.3418  0.0965
 5207TIP3    H137112   0.883   4.656   1.253 -1.2544  1.0103  0.0477
 5207TIP3    H237113   0.999   4.670   1.156  0.1766  0.6978  1.6738
 5208TIP3   OH237114   3.042   0.306   3.629  0.0519  0.3245  0.0988
 5208TIP3    H137115   3.046   0.366   3.703 -2.1876  2.0094 -1.0361
 5208TIP3    H237116   2.971   0.339   3.575  0.9687 -1.4031 -2.3404
 5209TIP3   OH237117   4.151   2.562   3.907 -0.2887 -0.1169  0.2695
 5209TIP3    H137118   4.197   2.646   3.915 -0.0697 -0.1756 -0.2855
 5209TIP3    H237119   4.218   2.496   3.926 -0.0605 -0.2128 -0.7964
 5210TIP3   OH237120   6.638   4.192   2.524  0.2721  0.4285  0.4527
 5210TIP3    H137121   6.579   4.267   2.526  1.6699  1.6746 -1.7493
 5210TIP3    H237122   6.618   4.149   2.441  2.6543  1.0956 -0.5253
 5211TIP3   OH237123   1.421   6.492  16.672 -0.2681  0.5668 -0.0088
 5211TIP3    H137124   1.449   6.519  16.759  1.0613 -0.8607  0.0595
 5211TIP3    H237125   1.326   6.506  16.672 -0.3782  0.1469  1.8543
 5212TIP3   OH237126   4.006   4.301  13.980  0.3023 -0.1484 -0.2280
 5212TIP3    H137127   3.912   4.315  13.971  0.5610  0.6155 -2.3060
 5212TIP3    H237128   4.040   4.386  14.007  0.4166 -0.4398  0.5781
 5213TIP3   OH237129   5.101   5.958   4.034  0.3138  0.6175  0.4636
 5213TIP3    H137130   5.105   6.015   3.957  0.4054  0.1158  0.0967
 5213TIP3    H237131   5.191   5.930   4.048  0.2383  0.4100  0.5335
 5214TIP3   OH237132   2.415   5.050   1.418  0.1981  0.2449  0.0091
 5214TIP3    H137133   2.446   5.000   1.494 -0.8243  0.6146  0.6995
 5214TIP3    H237134   2.374   4.985   1.361  0.8247 -0.0123 -0.1529
 5215TIP3   OH237135   1.894   5.005  14.698  0.4423 -0.0431 -0.2411
 5215TIP3    H137136   1.852   5.091  14.693 -1.2805 -0.7670  0.7050
 5215TIP3    H237137   1.948   5.009  14.777 -1.3546 -0.4730  1.0782
 5216TIP3   OH237138   1.226   6.409   2.355  0.1329 -0.2816 -0.2037
 5216TIP3    H137139   1.271   6.462   2.421  0.0630 -1.3806  0.7495
 5216TIP3    H237140   1.163   6.470   2.315  1.6827  0.9837 -0.8027
 5217TIP3   OH237141   0.388   1.339   5.028 -0.2062  0.3098  0.0931
 5217TIP3    H137142   0.425   1.280   5.094 -1.7153  0.4904  1.1475
 5217TIP3    H237143   0.338   1.403   5.078 -2.7194 -0.4593 -1.2294
 5218TIP3   OH237144   4.307   1.971  14.086  0.2679  0.5339  0.3289
 5218TIP3    H137145   4.275   1.924  14.162 -1.0381  0.7831 -0.0503
 5218TIP3    H237146   4.258   1.935  14.012  1.4967  0.3055 -0.4140
 5219TIP3   OH237147   1.304   2.231  15.012  0.5090 -0.6235  0.3703
 5219TIP3    H137148   1.382   2.189  14.973  0.1360  0.4686 -1.7073
 5219TIP3    H237149   1.326   2.240  15.105  2.4290 -1.3049  0.0417
 5220TIP3   OH237150   5.739   2.350   4.576  0.3391  0.4043  0.0179
 5220TIP3    H137151   5.764   2.385   4.491 -0.3478  0.2148 -0.2671
 5220TIP3    H237152   5.776   2.412   4.639 -0.2660  1.2619 -0.4536
 5221TIP3   OH237153   1.606   3.982  15.517  0.1255 -0.2361 -0.0836
 5221TIP3    H137154   1.614   4.031  15.435  0.3588 -0.4652 -0.1984
 5221TIP3    H237155   1.562   3.901  15.493 -0.7280  0.1311  0.1976
 5222TIP3   OH237156   0.501   1.662  12.676 -0.6720  0.0802  0.5320
 5222TIP3    H137157   0.409   1.679  12.697 -0.9172 -0.4179 -0.0959
 5222TIP3    H237158   0.499   1.618  12.591  0.2782  1.9100 -0.4952
 5223TIP3   OH237159   5.585   1.350  13.339 -0.1081 -0.0633  0.4233
 5223TIP3    H137160   5.621   1.356  13.428 -0.7557 -1.3499  0.8137
 5223TIP3    H237161   5.577   1.440  13.310  0.1631  0.3873  1.6675
 5224TIP3   OH237162   0.852   5.063  12.772  0.2742  0.0737  0.4446
 5224TIP3    H137163   0.768   5.091  12.807 -1.2727  0.8736 -3.4179
 5224TIP3    H237164   0.914   5.129  12.802 -1.8361  3.4756 -2.0434
 5225TIP3   OH237165   6.354   2.594  14.575  0.0250 -0.2419  0.0605
 5225TIP3    H137166   6.273   2.562  14.613  0.2461 -2.6490 -1.3050
 5225TIP3    H237167   6.416   2.597  14.649 -0.0752 -2.9505  0.3713
 5226TIP3   OH237168   2.325   2.268  14.588 -0.1093  0.2212  0.2870
 5226TIP3    H137169   2.251   2.327  14.604  0.7896  1.7837 -0.9942
 5226TIP3    H237170   2.380   2.316  14.526  2.5279 -0.4410  1.9945
 5227TIP3   OH237171   5.906   2.466   0.027 -0.2072  0.7227  0.2070
 5227TIP3    H137172   5.833   2.431   0.077  0.5516 -0.6853  0.3843
 5227TIP3    H237173   5.940   2.537   0.081  0.5273 -0.6920  1.6950
 5228TIP3   OH237174   0.838   3.088   1.946  0.0034  0.4641  0.0865
 5228TIP3    H137175   0.802   3.016   1.999  2.3912 -0.4084  0.6295
 5228TIP3    H237176   0.800   3.074   1.859  1.3869 -2.3261 -0.1883
 5229TIP3   OH237177   5.864   1.346  12.336 -0.0870 -0.6463 -0.2015
 5229TIP3    H137178   5.848   1.254  12.314  2.2916 -0.9478 -0.9703
 5229TIP3    H237179   5.910   1.381  12.260  1.2477  0.4961  1.0706
 5230TIP3   OH237180   1.100   2.698   0.296  0.0345 -0.0955  0.1661
 5230TIP3    H137181   1.006   2.699   0.316  0.5762  0.0420  3.0350
 5230TIP3    H237182   1.125   2.606   0.304  0.4076  0.0646  0.9371
 5231TIP3   OH237183   2.966   5.200   0.145  0.0599 -0.4074 -0.1410
 5231TIP3    H137184   3.027   5.174   0.076  0.3958  0.1095 -0.0470
 5231TIP3    H237185   2.969   5.296   0.145  0.5855 -0.4109  1.0424
 5232TIP3   OH237186   5.165   1.341  16.523 -0.2800 -0.5777  0.0712
 5232TIP3    H137187   5.139   1.400  16.594  1.3973 -0.7350  0.8890
 5232TIP3    H237188   5.260   1.354  16.516  0.1009 -2.9056  0.0467
 5233TIP3   OH237189   6.530   2.871  10.675  0.2952 -0.6936  0.2845
 5233TIP3    H137190   6.601   2.810  10.696 -0.6520 -1.7595  0.5009
 5233TIP3    H237191   6.491   2.835  10.595  0.4501  0.2858 -0.2389
 5234TIP3   OH237192   5.259   4.577   5.792  0.0209 -0.6297 -0.4681
 5234TIP3    H137193   5.241   4.485   5.775 -1.2695 -0.4918 -0.0161
 5234TIP3    H237194   5.353   4.582   5.806 -0.1266 -2.1946  1.3936
 5235TIP3   OH237195   0.277   3.533   4.821 -0.1300 -0.1482  0.4474
 5235TIP3    H137196   0.211   3.539   4.890 -0.3057 -0.0534  0.2713
 5235TIP3    H237197   0.236   3.481   4.752  0.6279 -1.6786  1.0925
 5236TIP3   OH237198   4.117   1.216   2.784  0.3711  1.0513  0.0003
 5236TIP3    H137199   4.171   1.290   2.755  0.1457  1.3059  0.2192
 5236TIP3    H237200   4.107   1.161   2.706  1.2347  0.8178  0.0469
 5237TIP3   OH237201   6.710   1.237   1.032 -0.2746  0.6929 -0.1605
 5237TIP3    H137202   6.756   1.254   1.114 -0.8684  1.4007  0.0294
 5237TIP3    H237203   6.618   1.225   1.057 -0.3956  0.4837 -0.6754
 5238TIP3   OH237204   1.600   0.997  15.608  0.0576  0.8080 -0.1852
 5238TIP3    H137205   1.661   1.043  15.551  1.8428 -3.1968 -1.9216
 5238TIP3    H237206   1.563   0.928  15.552 -0.6710 -1.2654  2.6338
 5239TIP3   OH237207   3.202   4.775  10.613 -0.1380  0.0994 -0.6180
 5239TIP3    H137208   3.179   4.848  10.670 -1.2164 -1.6704  1.3281
 5239TIP3    H237209   3.295   4.789  10.593 -0.1916  1.7199  0.0936
 5240TIP3   OH237210   5.377   5.572   0.208  0.3301  0.2508  0.2325
 5240TIP3    H137211   5.309   5.511   0.237  1.0597 -0.8606 -0.3275
 5240TIP3    H237212   5.442   5.517   0.164  1.8953  1.1975  1.2561
 5241TIP3   OH237213   6.722   5.221   1.158  0.4153 -0.7539 -0.2487
 5241TIP3    H137214   6.761   5.304   1.184 -1.3113 -0.1665  0.6061
 5241TIP3    H237215   6.797   5.164   1.140  1.6412  0.5892  0.3908
 5242TIP3   OH237216   4.196   5.484   3.688  0.1651 -0.5636  0.8682
 5242TIP3    H137217   4.151   5.552   3.637  1.0970  0.8749  1.8585
 5242TIP3    H237218   4.256   5.443   3.625  0.6042  0.5203  0.5436
 5243TIP3   OH237219   6.319   2.065   2.168 -0.5046  0.2251  0.2096
 5243TIP3    H137220   6.334   2.017   2.250 -1.4897  0.6785  0.6687
 5243TIP3    H237221   6.394   2.124   2.161  1.9695 -2.8187 -1.5123
 5244TIP3   OH237222   1.926   6.798   3.390 -0.3856 -0.0476  0.2258
 5244TIP3    H137223   1.887   6.850   3.319  0.1965 -0.7609 -0.6358
 5244TIP3    H237224   1.994   6.747   3.347 -0.9037 -1.4851  1.0529
 5245TIP3   OH237225   4.421   2.451  10.640  0.1212  0.3713 -0.0247
 5245TIP3    H137226   4.458   2.480  10.723  2.1800  0.2624 -0.8395
 5245TIP3    H237227   4.327   2.466  10.648  0.3245  0.6708  2.1801
 5246TIP3   OH237228   1.121   1.599   0.512  0.5031  0.0726 -0.0515
 5246TIP3    H137229   1.148   1.648   0.589 -0.6830  0.5550  0.0707
 5246TIP3    H237230   1.101   1.666   0.446  0.1187 -0.2796 -0.3012
 5247TIP3   OH237231   3.372   1.130   3.191 -0.3436  0.0538 -0.7901
 5247TIP3    H137232   3.280   1.147   3.211 -0.6897 -1.4698 -0.9175
 5247TIP3    H237233   3.415   1.215   3.195 -1.6470  0.6935 -0.1146
 5248TIP3   OH237234   4.780   2.841  15.939  0.2797 -0.2860  0.3740
 5248TIP3    H137235   4.859   2.790  15.956 -0.0198 -0.9884 -0.2548
 5248TIP3    H237236   4.713   2.775  15.918 -0.1777  0.3497 -0.2159
 5249TIP3   OH237237   1.931   0.340  15.775 -0.3494 -0.2141 -0.2783
 5249TIP3    H137238   1.844   0.339  15.815 -0.6785 -1.8176 -0.9477
 5249TIP3    H237239   1.917   0.375  15.687 -0.0962  0.6530  0.0155
 5250TIP3   OH237240   1.302   6.109  13.698  0.0806 -0.1314  0.0201
 5250TIP3    H137241   1.211   6.138  13.696  0.3459  0.8827  1.2387
 5250TIP3    H237242   1.301   6.023  13.655 -1.8293 -1.1554  1.9196
 5251TIP3   OH237243   2.485   3.829  13.183 -0.6840 -0.5031 -0.4372
 5251TIP3    H137244   2.395   3.842  13.213 -0.6422 -1.1961  0.0122
 5251TIP3    H237245   2.487   3.738  13.153 -0.4766 -0.1045 -1.6960
 5252TIP3   OH237246   1.955   0.481  12.171 -0.2533  0.7297 -0.0266
 5252TIP3    H137247   1.952   0.395  12.211  0.0947  1.2871  1.2470
 5252TIP3    H237248   2.016   0.471  12.098 -2.1985 -0.7215 -1.5514
 5253TIP3   OH237249   3.443   3.334  13.721  0.6410 -0.2008 -0.4613
 5253TIP3    H137250   3.391   3.375  13.652 -1.3808 -0.1899  1.0074
 5253TIP3    H237251   3.490   3.264  13.676  0.4269  0.6434 -2.0875
 5254TIP3   OH237252   1.381   4.923  17.123  0.0561 -0.4575 -0.4409
 5254TIP3    H137253   1.344   4.922  17.211  1.2296 -0.7998  0.0613
 5254TIP3    H237254   1.475   4.917  17.136  0.3742  1.1922 -1.6540
 5255TIP3   OH237255   5.968   2.294   0.860 -0.1367 -0.2128 -0.4676
 5255TIP3    H137256   6.029   2.349   0.909 -1.2731  1.9746 -1.3856
 5255TIP3    H237257   5.908   2.355   0.818 -1.4589 -2.1712 -1.6170
 5256TIP3   OH237258   0.221   4.512  16.541  0.0340 -0.2210 -0.1527
 5256TIP3    H137259   0.182   4.438  16.587 -0.9878  1.4747  1.8919
 5256TIP3    H237260   0.154   4.541  16.480 -0.3058  0.1651  0.3997
 5257TIP3   OH237261   4.688   0.885  11.378 -0.0560  0.2407 -0.1944
 5257TIP3    H137262   4.755   0.817  11.374 -0.4795 -0.1787 -0.2219
 5257TIP3    H237263   4.700   0.937  11.298  1.6574  1.5320  0.8269
 5258TIP3   OH237264   4.599   4.414   2.022 -0.6193 -0.4096  0.3211
 5258TIP3    H137265   4.532   4.480   2.043 -0.6887  0.4487 -2.2325
 5258TIP3    H237266   4.651   4.455   1.952  3.1927 -0.6889  2.7297
 5259TIP3   OH237267   6.356   1.076   2.661  0.1810 -0.1055  0.1488
 5259TIP3    H137268   6.448   1.099   2.679 -0.0674  2.1538 -1.0350
 5259TIP3    H237269   6.356   0.981   2.655  2.6990 -0.1294 -0.9362
 5260TIP3   OH237270   4.622   4.550   3.182  0.0939  0.1857  0.4540
 5260TIP3    H137271   4.540   4.518   3.145 -0.3105 -0.1247  1.5908
 5260TIP3    H237272   4.649   4.620   3.123  1.2061 -2.3685 -2.3677
 5261TIP3   OH237273   4.782   3.477   0.095  0.2824  0.1527 -0.7085
 5261TIP3    H137274   4.828   3.453   0.175 -1.3183  0.8205  0.4726
 5261TIP3    H237275   4.847   3.522   0.042  1.7160 -1.4101 -0.3766
 5262TIP3   OH237276   1.119   2.476   1.872 -0.4049  0.0301 -0.5546
 5262TIP3    H137277   1.095   2.532   1.798  1.3376 -0.5058 -1.5779
 5262TIP3    H237278   1.163   2.536   1.934 -0.8808  0.2701 -0.4453
 5263TIP3   OH237279   6.197   0.298   3.627  0.2258  0.2850  0.4239
 5263TIP3    H137280   6.248   0.226   3.664  1.0828  1.0850  0.8577
 5263TIP3    H237281   6.169   0.266   3.541  0.9491 -0.4123  0.4326
 5264TIP3   OH237282   0.484   0.523  11.431  0.1634 -0.2757 -0.2034
 5264TIP3    H137283   0.483   0.456  11.363 -0.9684 -0.0838 -0.3946
 5264TIP3    H237284   0.422   0.590  11.401 -0.5411 -0.2940  1.1111
 5265TIP3   OH237285   0.473   2.425   4.005  0.4376 -0.2422  0.8260
 5265TIP3    H137286   0.526   2.380   3.938  0.8731  3.5096 -1.6580
 5265TIP3    H237287   0.523   2.414   4.086  2.8097 -0.5030 -0.5748
 5266TIP3   OH237288   0.152   2.021   5.329 -0.1224 -0.5336 -0.0102
 5266TIP3    H137289   0.226   2.081   5.324 -0.4711 -0.0263  0.7594
 5266TIP3    H237290   0.119   2.030   5.418 -1.0993 -0.7570 -0.3335
 5267TIP3   OH237291   0.299   3.143   3.017 -0.3313 -0.3058  0.1018
 5267TIP3    H137292   0.306   3.231   3.052  1.1714 -1.6788  3.8120
 5267TIP3    H237293   0.353   3.144   2.938 -0.2069  2.0094  0.1665
 5268TIP3   OH237294   2.605   0.703   0.147 -0.0935 -0.1082 -0.2593
 5268TIP3    H137295   2.667   0.656   0.091  0.1305 -1.2093  0.8689
 5268TIP3    H237296   2.660   0.746   0.213 -0.4883 -1.0541  0.7259
 5269TIP3   OH237297   2.620   2.827   0.644  0.4561 -0.3722 -0.1952
 5269TIP3    H137298   2.709   2.794   0.655  0.2196 -0.9820 -0.0676
 5269TIP3    H237299   2.588   2.839   0.734  0.1083 -1.0109 -0.2218
 5270TIP3   OH237300   1.181   0.454   0.638  0.1694  0.0568  0.1709
 5270TIP3    H137301   1.103   0.505   0.661  0.9693  1.0355  0.8131
 5270TIP3    H237302   1.231   0.512   0.581 -0.0657 -0.9776 -1.1255
 5271TIP3   OH237303   3.818   4.220   0.346 -0.2085  0.1442 -0.2067
 5271TIP3    H137304   3.790   4.164   0.418 -0.4148  1.9553  1.2055
 5271TIP3    H237305   3.839   4.304   0.387  1.8764  0.5933 -1.9664
 5272TIP3   OH237306   1.912   6.588   4.995  0.0015 -0.0508  0.0719
 5272TIP3    H137307   1.907   6.652   4.924  0.2495 -0.3059 -0.1778
 5272TIP3    H237308   1.941   6.638   5.071 -0.9063  0.3584  0.1617
 5273TIP3   OH237309   1.711   5.870   1.762  0.5020  0.7751 -0.2919
 5273TIP3    H137310   1.644   5.807   1.738  4.0855 -2.4301 -2.9948
 5273TIP3    H237311   1.732   5.850   1.853 -1.1585  0.9231  0.1507
 5274TIP3   OH237312   2.874   1.595   4.222 -0.0758  0.4284 -0.0079
 5274TIP3    H137313   2.857   1.501   4.219 -1.2719  0.5997  0.6638
 5274TIP3    H237314   2.960   1.602   4.264  1.6962 -0.4601 -3.1287
 5275TIP3   OH237315   2.965   5.512   6.092  0.0029  0.1655 -0.2292
 5275TIP3    H137316   3.051   5.469   6.091 -0.1269 -0.1088 -0.0023
 5275TIP3    H237317   2.975   5.585   6.152  0.7589  1.6097 -2.0276
 5276TIP3   OH237318   1.145   1.788  16.386 -0.1690 -0.1155 -0.0383
 5276TIP3    H137319   1.140   1.745  16.300 -0.4288 -1.7212  0.7474
 5276TIP3    H237320   1.185   1.722  16.443  0.4320  1.0955  0.9803
 5277TIP3   OH237321   0.673   6.413  14.708  0.4689  0.1562  0.2999
 5277TIP3    H137322   0.713   6.499  14.723  1.1175 -0.2355  0.8559
 5277TIP3    H237323   0.729   6.351  14.755  0.3442 -0.6550 -0.5847
 5278TIP3   OH237324   4.152   3.779   4.783 -0.7845 -0.1554 -0.1104
 5278TIP3    H137325   4.146   3.872   4.759 -1.3135  0.0227  0.6687
 5278TIP3    H237326   4.061   3.754   4.803 -0.5752 -0.7051  0.1740
 5279TIP3   OH237327   5.680   1.883  15.401  0.2559  0.3711  0.3433
 5279TIP3    H137328   5.672   1.924  15.314 -0.7386  1.5793  0.9650
 5279TIP3    H237329   5.594   1.843  15.415 -0.0395  1.3053  1.2959
 5280TIP3   OH237330   2.465   4.778  14.140  0.0283 -0.2541 -0.2232
 5280TIP3    H137331   2.463   4.841  14.212  2.0558 -0.7712  0.3576
 5280TIP3    H237332   2.556   4.781  14.108  1.0689 -4.7194  1.6029
 5281TIP3   OH237333   1.844   2.562   4.280 -0.0045 -0.9509 -0.0576
 5281TIP3    H137334   1.911   2.516   4.332 -0.6020 -1.9719 -0.1570
 5281TIP3    H237335   1.808   2.494   4.222  1.6007  0.4150 -2.8769
 5282TIP3   OH237336   2.245   6.026  16.866  0.0719 -0.1525 -0.6458
 5282TIP3    H137337   2.257   6.070  16.951 -3.0736 -1.7508  0.8261
 5282TIP3    H237338   2.158   6.054  16.838 -0.4131 -2.4025 -1.5463
 5283TIP3   OH237339   0.372   4.432  11.666  0.0238  0.6172 -0.2523
 5283TIP3    H137340   0.378   4.388  11.751 -0.7850  2.2968  0.7295
 5283TIP3    H237341   0.317   4.374  11.613  0.1540 -0.2297  0.5080
 5284TIP3   OH237342   5.764   3.453  15.291 -0.2054 -0.7640  0.1847
 5284TIP3    H137343   5.832   3.443  15.357 -0.8056 -0.6309  0.8323
 5284TIP3    H237344   5.751   3.365  15.256  1.5845 -0.5106 -1.2726
 5285TIP3   OH237345   3.537   1.753   6.449 -0.2089 -0.4093  0.3023
 5285TIP3    H137346   3.484   1.809   6.392  0.6141  0.3060  0.2088
 5285TIP3    H237347   3.533   1.667   6.408  0.2454  0.0560 -0.7806
 5286TIP3   OH237348   1.421   5.176  13.714  0.6154  1.0629  0.5151
 5286TIP3    H137349   1.329   5.202  13.710 -0.1726 -1.1169  2.2932
 5286TIP3    H237350   1.448   5.171  13.622 -2.1118 -1.4855 -0.3185
 5287TIP3   OH237351   0.397   6.094   0.760  0.1679  0.1322  0.2546
 5287TIP3    H137352   0.406   6.138   0.676  3.2742 -0.6073  0.0903
 5287TIP3    H237353   0.454   6.143   0.819  0.3893 -1.1418  1.1432
 5288TIP3   OH237354   4.976   5.550   1.488 -0.3444 -0.4213 -0.5273
 5288TIP3    H137355   4.897   5.497   1.497 -0.3535 -0.8216 -2.4903
 5288TIP3    H237356   5.040   5.492   1.447  1.1042 -0.1954  1.2760
 5289TIP3   OH237357   4.777   3.180   1.640 -0.1987  0.2442 -0.4185
 5289TIP3    H137358   4.795   3.226   1.722 -0.4147  1.4186 -1.0143
 5289TIP3    H237359   4.859   3.183   1.592  0.5499 -2.2309  0.5527
 5290TIP3   OH237360   4.018   1.476   5.428 -0.5007  0.0372  0.5048
 5290TIP3    H137361   3.961   1.547   5.459  1.3984  1.9033 -0.0396
 5290TIP3    H237362   4.091   1.476   5.490  0.3103 -0.3551 -0.4279
 5291TIP3   OH237363   2.662   3.943   1.563 -0.1071  0.0041 -0.7896
 5291TIP3    H137364   2.613   3.968   1.485  0.1298 -1.5524 -1.4527
 5291TIP3    H237365   2.752   3.969   1.544  0.0386 -0.8081 -1.2512
 5292TIP3   OH237366   5.406   3.768  12.233 -0.0596 -0.2286  0.3016
 5292TIP3    H137367   5.485   3.718  12.214  0.2929  0.0937  0.8792
 5292TIP3    H237368   5.400   3.832  12.162  0.1699 -0.2941  0.2237
 5293TIP3   OH237369   4.113   0.784  13.128  0.4641  0.0892 -0.0641
 5293TIP3    H137370   4.120   0.819  13.039 -0.0573  0.2369 -0.0523
 5293TIP3    H237371   4.024   0.806  13.155  0.4365 -0.4448  0.2905
 5294TIP3   OH237372   0.879   6.794   3.675 -0.2461  0.1532 -0.8002
 5294TIP3    H137373   0.857   6.742   3.752  0.2746  0.8629 -0.1569
 5294TIP3    H237374   0.904   6.880   3.710  1.4202  0.0519 -1.6346
 5295TIP3   OH237375   1.466   4.001   2.231  0.1443 -0.3013  0.4235
 5295TIP3    H137376   1.403   3.944   2.188  0.4728 -0.9736  0.8240
 5295TIP3    H237377   1.533   3.942   2.265  1.3264  0.4480 -0.5513
 5296TIP3   OH237378   4.016   0.743   5.784 -0.0397  0.3705 -0.1426
 5296TIP3    H137379   4.035   0.826   5.740  0.2942 -0.2980 -1.2762
 5296TIP3    H237380   4.099   0.696   5.784 -0.3742 -0.2353 -0.0877
 5297TIP3   OH237381   0.252   3.283  11.719  0.6776  0.1703  0.4045
 5297TIP3    H137382   0.324   3.255  11.663 -0.5986 -0.8597 -0.8241
 5297TIP3    H237383   0.206   3.349  11.667 -0.2957 -0.5057  0.3774
 5298TIP3   OH237384   6.245   0.001   4.046  0.8160  0.1070 -0.0283
 5298TIP3    H137385   6.191  -0.020   4.122  0.1983  3.5261  0.6578
 5298TIP3    H237386   6.183   0.012   3.974  1.0129  0.1948 -0.1851
 5299TIP3   OH237387   0.532   3.780  12.156 -0.0981 -0.1755 -0.5542
 5299TIP3    H137388   0.578   3.774  12.072 -1.1605 -0.0140 -1.1724
 5299TIP3    H237389   0.573   3.855  12.200  0.0795  0.1115 -1.1851
 5300TIP3   OH237390   3.546   6.808  13.158  0.1989  0.5019 -0.3235
 5300TIP3    H137391   3.494   6.729  13.169 -0.5860  1.3641  3.0426
 5300TIP3    H237392   3.623   6.779  13.109 -1.5663 -1.5881 -2.0452
 5301TIP3   OH237393   4.315   1.392   2.660  0.0736  0.1633  0.0649
 5301TIP3    H137394   4.283   1.476   2.626 -0.1029  0.0335 -0.0875
 5301TIP3    H237395   4.365   1.416   2.738  1.7568  0.6297 -1.0999
 5302TIP3   OH237396   2.659   5.816   1.678 -0.1280  0.3199 -0.3306
 5302TIP3    H137397   2.584   5.763   1.704  0.3206  0.2910  1.0115
 5302TIP3    H237398   2.731   5.753   1.672  0.2238  0.6372  0.4416
 5303TIP3   OH237399   3.905   3.688   5.331 -0.5633  0.2943 -0.0768
 5303TIP3    H137400   3.909   3.678   5.236 -0.3457 -0.7535  0.0324
 5303TIP3    H237401   3.945   3.773   5.348 -0.0145  0.2039 -0.8686
 5304TIP3   OH237402   3.950   0.434   2.113  0.2582  0.1080  0.0445
 5304TIP3    H137403   3.930   0.456   2.204  0.6083  1.2371 -0.1292
 5304TIP3    H237404   4.021   0.371   2.118 -0.5842 -0.8156  0.5750
 5305TIP3   OH237405   2.422   0.638  11.189 -0.1080  0.1685 -0.6754
 5305TIP3    H137406   2.492   0.611  11.249 -0.0239  1.6738 -0.0520
 5305TIP3    H237407   2.342   0.600  11.227  0.0812  0.2574 -0.1815
 5306TIP3   OH237408   5.813   4.935   4.245  0.6952  0.4033 -0.5112
 5306TIP3    H137409   5.823   5.030   4.251 -3.1453  0.8823  3.2161
 5306TIP3    H237410   5.722   4.922   4.216  0.9304 -2.1216 -0.3875
 5307TIP3   OH237411   2.485   6.146  10.649 -0.4816 -0.0819 -0.0342
 5307TIP3    H137412   2.526   6.158  10.734 -0.4985 -1.1819  0.1461
 5307TIP3    H237413   2.427   6.070  10.661 -0.4801 -0.2524 -1.0184
 5308TIP3   OH237414   6.447   2.975   2.341 -0.4909 -0.1322  0.1210
 5308TIP3    H137415   6.470   2.883   2.349  1.5314  0.3105 -0.0623
 5308TIP3    H237416   6.507   3.020   2.400  0.2250  1.2580 -1.5560
 5309TIP3   OH237417   1.110   0.923   4.013 -0.2890 -0.2883  0.1173
 5309TIP3    H137418   1.142   0.985   4.079 -1.8198 -0.4275  1.0228
 5309TIP3    H237419   1.024   0.896   4.045 -0.4675 -1.4231 -1.2478
 5310TIP3   OH237420   6.386   1.809  13.272 -0.5572  0.3869  0.8155
 5310TIP3    H137421   6.386   1.853  13.187 -2.8083  3.1887  2.1120
 5310TIP3    H237422   6.297   1.773  13.281  0.0091 -0.9255  1.5393
 5311TIP3   OH237423   6.183   3.061   6.129  0.3894 -0.7424 -0.6897
 5311TIP3    H137424   6.232   3.142   6.118 -2.1189  1.0001 -0.1255
 5311TIP3    H237425   6.209   3.029   6.215  1.2017 -0.3675 -0.7863
 5312TIP3   OH237426   6.809   1.090   5.245  0.0287  0.6242 -0.0266
 5312TIP3    H137427   6.767   1.109   5.329  0.7823  1.5093  0.1633
 5312TIP3    H237428   6.840   1.175   5.214  1.2679  0.0639 -0.3792
 5313TIP3   OH237429   5.362   5.388   2.996 -0.5811 -0.1310 -0.8548
 5313TIP3    H137430   5.395   5.310   3.041 -0.3950 -0.0509 -0.8494
 5313TIP3    H237431   5.352   5.452   3.066  1.5041  0.6050 -1.1499
 5314TIP3   OH237432   5.376   1.881  11.490  0.2471 -0.2310 -0.4206
 5314TIP3    H137433   5.336   1.967  11.501 -0.0325 -0.3662 -0.3568
 5314TIP3    H237434   5.378   1.844  11.579  0.6859 -0.1512 -0.3965
 5315TIP3   OH237435   4.520   4.794   3.987  0.1798  0.6980  0.2441
 5315TIP3    H137436   4.484   4.867   3.936  0.6089  0.5157 -0.3285
 5315TIP3    H237437   4.475   4.800   4.071 -2.0410 -0.1772 -0.7849
 5316TIP3   OH237438   6.004   4.086  12.690 -0.4480  0.5349 -0.5083
 5316TIP3    H137439   5.938   4.137  12.643 -1.7802 -1.7977 -1.3354
 5316TIP3    H237440   6.087   4.130  12.669 -1.6062  3.1596  0.0430
 5317TIP3   OH237441   6.626   4.609  15.452 -0.2773  0.4880  0.5908
 5317TIP3    H137442   6.689   4.648  15.391 -1.0514 -0.4391 -0.8307
 5317TIP3    H237443   6.596   4.683  15.505 -1.2452  1.7915 -1.6323
 5318TIP3   OH237444   1.531   5.641   5.123 -0.1033  0.5315 -0.4869
 5318TIP3    H137445   1.603   5.585   5.151  0.1722 -0.1805 -2.4766
 5318TIP3    H237446   1.463   5.629   5.189  1.6893  1.5325  1.6739
 5319TIP3   OH237447   3.373   2.353  12.721  0.1349 -0.5767 -0.0538
 5319TIP3    H137448   3.409   2.297  12.789  1.0554  0.9706  0.7952
 5319TIP3    H237449   3.428   2.337  12.644 -0.5997 -1.9663 -0.3162
 5320TIP3   OH237450   0.797   2.785   5.609 -0.2156  0.2178  0.3880
 5320TIP3    H137451   0.853   2.802   5.534  2.4584 -0.6651  2.0447
 5320TIP3    H237452   0.719   2.742   5.573  0.8620  0.0478 -1.8590
 5321TIP3   OH237453   1.628   6.358  11.924  0.4571  0.0620  0.2036
 5321TIP3    H137454   1.649   6.303  11.849  0.0136 -1.0514  0.8808
 5321TIP3    H237455   1.690   6.331  11.992  0.5822  0.7736  0.3842
 5322TIP3   OH237456   6.516   1.398   3.770  0.3496  0.2823  0.2939
 5322TIP3    H137457   6.498   1.451   3.693 -0.5792  1.6414  1.4044
 5322TIP3    H237458   6.494   1.454   3.844  3.3661 -0.1379  1.6626
 5323TIP3   OH237459   4.589   1.491   3.398  0.1882  0.4894  0.3793
 5323TIP3    H137460   4.585   1.583   3.426 -1.3962 -0.0261  2.0442
 5323TIP3    H237461   4.651   1.450   3.458 -0.0203  0.2314  0.4200
 5324TIP3   OH237462   0.137   4.996  11.194 -0.1387 -0.3883  0.4620
 5324TIP3    H137463   0.083   5.012  11.271  0.7965  0.0904  1.0407
 5324TIP3    H237464   0.093   5.044  11.123 -1.2110 -1.1444  0.5955
 5325TIP3   OH237465   0.324   2.459   5.041  0.0508 -0.1834  0.1299
 5325TIP3    H137466   0.348   2.551   5.030 -1.0359 -0.0094 -1.1212
 5325TIP3    H237467   0.255   2.445   4.976  0.5968 -2.0455 -0.0995
 5326TIP3   OH237468   6.127   4.617  10.690  1.2594 -0.6146 -0.2361
 5326TIP3    H137469   6.160   4.528  10.674  0.8921 -0.7686 -0.1582
 5326TIP3    H237470   6.031   4.607  10.693  1.2629 -0.7181  2.6746
 5327TIP3   OH237471   5.390   1.470  11.351 -0.7913  0.0290 -0.4469
 5327TIP3    H137472   5.458   1.488  11.416 -0.4815  1.6361 -1.1385
 5327TIP3    H237473   5.371   1.377  11.359  1.4074 -0.4316 -0.1321
 5328TIP3   OH237474   2.453   5.258   3.912 -0.3980 -0.4657 -0.9792
 5328TIP3    H137475   2.476   5.202   3.837 -0.5666 -0.6462 -0.8987
 5328TIP3    H237476   2.428   5.342   3.873 -1.1778 -0.7814 -1.1824
 5329TIP3   OH237477   2.616   6.202  15.613 -0.0159 -0.3059 -0.1125
 5329TIP3    H137478   2.651   6.123  15.652  0.2017  0.9516  2.4323
 5329TIP3    H237479   2.659   6.208  15.527  1.2873 -1.9916  0.3749
 5330TIP3   OH237480   2.602   6.183   6.532 -0.3571  0.6609  0.1465
 5330TIP3    H137481   2.611   6.255   6.594 -1.4276 -0.0502  1.1575
 5330TIP3    H237482   2.548   6.119   6.577 -0.7899 -0.0743 -1.3628
 5331TIP3   OH237483   3.232   6.068  14.847 -0.4880 -0.2062 -1.1461
 5331TIP3    H137484   3.265   6.150  14.811 -1.2794 -0.4158 -2.4044
 5331TIP3    H237485   3.163   6.094  14.908  1.1781  0.1765  0.7002
 5332TIP3   OH237486   4.309   1.904  14.627  0.2510 -0.5682 -0.1831
 5332TIP3    H137487   4.384   1.888  14.684  0.4192  1.4699  0.2278
 5332TIP3    H237488   4.347   1.917  14.540  0.1034 -2.2995 -0.5432
 5333TIP3   OH237489   6.247   0.730  15.753 -0.3007 -0.5206  0.6811
 5333TIP3    H137490   6.325   0.734  15.807  1.6465  1.0914 -2.0193
 5333TIP3    H237491   6.243   0.640  15.722 -0.4115 -0.9864  1.9990
 5334TIP3   OH237492   5.670   0.321  11.599  0.3199  0.0864 -0.2265
 5334TIP3    H137493   5.662   0.278  11.684  2.2563 -0.0633 -0.0853
 5334TIP3    H237494   5.671   0.415  11.620  1.3969  0.0324 -0.0167
 5335TIP3   OH237495   2.260   0.656  13.763  0.6268  0.0409  0.1846
 5335TIP3    H137496   2.349   0.692  13.766  0.6693 -0.0663  0.2210
 5335TIP3    H237497   2.225   0.671  13.851  0.2015  1.1097 -0.1565
 5336TIP3   OH237498   4.557   4.545  13.048 -0.0343  0.3155  0.1402
 5336TIP3    H137499   4.644   4.567  13.012  0.5127 -2.0259 -0.1094
 5336TIP3    H237500   4.571   4.539  13.143  0.2933 -0.8836  0.0248
 5337TIP3   OH237501   1.627   6.781   2.948  0.5679 -0.1845 -0.1238
 5337TIP3    H137502   1.631   6.698   2.901  0.4117  1.4462 -3.2879
 5337TIP3    H237503   1.541   6.780   2.991  0.6384 -1.6927  0.0414
 5338TIP3   OH237504   4.927   6.075  14.057  0.0718  0.2015  0.5466
 5338TIP3    H137505   4.954   6.133  14.128  2.4320 -0.4938  0.3250
 5338TIP3    H237506   4.986   6.097  13.985 -1.4214  0.0090 -0.7808
 5339TIP3   OH237507   6.781   6.621  13.098  0.0715 -0.0910 -0.4900
 5339TIP3    H137508   6.820   6.686  13.040  2.5462 -1.1695 -0.1723
 5339TIP3    H237509   6.842   6.615  13.172 -1.0098 -1.5111  0.3524
 5340TIP3   OH237510   4.005   6.353  15.155  0.4165 -0.1450  0.0287
 5340TIP3    H137511   3.955   6.302  15.219 -1.6140 -0.1455 -1.4377
 5340TIP3    H237512   3.983   6.444  15.175  0.9690 -0.0584  0.2499
 5341TIP3   OH237513   2.567   3.869   1.063 -0.2416 -0.1862 -0.6764
 5341TIP3    H137514   2.497   3.827   1.113 -0.2319 -0.3598 -0.8040
 5341TIP3    H237515   2.639   3.879   1.125 -1.0489  1.8321  0.0220
 5342TIP3   OH237516   5.380   5.080   1.344 -0.1909 -0.5958  0.4532
 5342TIP3    H137517   5.336   5.049   1.423 -0.6179 -0.6078  0.2105
 5342TIP3    H237518   5.442   5.010   1.322 -0.4146 -0.8089  0.4995
 5343TIP3   OH237519   3.363   4.611  16.108  0.3745  0.8205  0.6972
 5343TIP3    H137520   3.286   4.640  16.156  0.3669  0.4247  0.9280
 5343TIP3    H237521   3.436   4.651  16.154  0.2817  1.5854  0.1940
 5344TIP3   OH237522   1.302   2.976   1.656  0.4900 -0.0915  0.3007
 5344TIP3    H137523   1.286   2.882   1.666  1.2191 -0.0737  1.9996
 5344TIP3    H237524   1.379   2.993   1.710 -0.2706  1.6639  0.9128
 5345TIP3   OH237525   4.312   6.342   5.103  0.5787 -0.1810 -0.0555
 5345TIP3    H137526   4.391   6.329   5.051  1.8652  1.8148  1.2783
 5345TIP3    H237527   4.336   6.311   5.191  0.4715  1.8467  0.7432
 5346TIP3   OH237528   1.963   5.404   3.981 -0.5335 -0.1036 -0.2597
 5346TIP3    H137529   2.020   5.407   4.058  0.5128  0.4328 -1.0245
 5346TIP3    H237530   1.963   5.493   3.947  0.2321 -0.6174 -1.7173
 5347TIP3   OH237531   6.644   5.561  12.612  0.3562  0.3221 -0.4784
 5347TIP3    H137532   6.711   5.623  12.639  0.9020 -0.4603 -0.0113
 5347TIP3    H237533   6.568   5.584  12.666  0.5341  0.6260 -0.3532
 5348TIP3   OH237534   6.012   4.411  16.329  0.3120  0.0633 -0.7823
 5348TIP3    H137535   6.081   4.353  16.298  0.1426 -0.0340 -0.9768
 5348TIP3    H237536   5.990   4.465  16.254 -0.6067 -0.6660 -1.0551
 5349TIP3   OH237537   6.846   0.110   2.740  0.2112  0.3421  0.0775
 5349TIP3    H137538   6.915   0.137   2.681  0.8863  2.2916  1.6459
 5349TIP3    H237539   6.886   0.041   2.793 -0.5372 -1.7351 -1.9048
 5350TIP3   OH237540   3.317   3.094  16.518  0.1160 -0.0930 -0.2632
 5350TIP3    H137541   3.333   3.044  16.438 -0.0730  0.7364 -0.8257
 5350TIP3    H237542   3.346   3.036  16.588  2.2745 -0.0434 -1.0369
 5351TIP3   OH237543   1.254   2.511  10.896 -0.2347 -0.2804  0.4272
 5351TIP3    H137544   1.177   2.554  10.858 -1.3899 -1.3964  1.4038
 5351TIP3    H237545   1.272   2.560  10.976  0.5260  0.3972 -0.1358
 5352TIP3   OH237546   6.103   3.207   2.942 -0.2994 -0.0031  0.4009
 5352TIP3    H137547   6.168   3.161   2.889 -0.3492 -0.6063  0.8453
 5352TIP3    H237548   6.154   3.266   2.997  0.0875 -1.7679  2.0536
 5353TIP3   OH237549   5.470   6.613   2.808 -0.0980  0.2619  0.0829
 5353TIP3    H137550   5.407   6.686   2.814  0.8536  1.0268  1.0844
 5353TIP3    H237551   5.509   6.623   2.722  0.0101  0.9424  0.2019
 5354TIP3   OH237552   4.622   3.474   2.991 -0.6424 -0.0272 -0.1813
 5354TIP3    H137553   4.535   3.437   2.978 -0.8903 -0.9734  3.2429
 5354TIP3    H237554   4.680   3.398   2.993 -0.2798  0.2671  1.0632
 5355TIP3   OH237555   5.001   2.894   6.024 -0.0587  0.2482 -0.0003
 5355TIP3    H137556   4.947   2.815   6.022  1.7779 -1.1608 -3.5402
 5355TIP3    H237557   5.090   2.861   6.033  0.6491  2.0375 -0.0509
 5356TIP3   OH237558   6.458   0.848  12.539 -0.3273 -0.2164 -0.0722
 5356TIP3    H137559   6.535   0.901  12.561 -0.5730  0.2500 -0.3030
 5356TIP3    H237560   6.397   0.911  12.500  0.2892 -1.0678 -2.6207
 5357TIP3   OH237561   3.365   4.437  12.433  0.2737  0.3664  0.2434
 5357TIP3    H137562   3.306   4.437  12.508  0.2700  1.6457  0.2592
 5357TIP3    H237563   3.364   4.528  12.401 -1.1842 -0.4857 -2.4566
 5358TIP3   OH237564   4.840   4.314  11.430 -0.5674  0.5223 -0.3007
 5358TIP3    H137565   4.931   4.303  11.461 -1.0335  0.8246  1.2710
 5358TIP3    H237566   4.812   4.397  11.469 -1.7318  0.0989 -0.2083
 5359TIP3   OH237567   0.534   5.172   1.302  0.2204 -0.3425  0.5958
 5359TIP3    H137568   0.527   5.233   1.228 -0.9603  0.0636  1.0288
 5359TIP3    H237569   0.474   5.207   1.368 -0.1984 -1.7770  0.9958
 5360TIP3   OH237570   0.874   4.966   5.612 -0.1382 -0.1004 -0.3958
 5360TIP3    H137571   0.957   5.014   5.615 -0.3741  0.2751  0.8961
 5360TIP3    H237572   0.848   4.969   5.520  1.6893 -0.9765 -0.9965
 5361TIP3   OH237573   2.651   1.920   6.214  0.1484 -0.1327  0.5716
 5361TIP3    H137574   2.611   1.991   6.264 -2.0345 -0.4700 -0.5722
 5361TIP3    H237575   2.715   1.963   6.157 -0.9583  0.9140  0.0881
 5362TIP3   OH237576   0.590   4.644   2.000 -0.3440  0.2173  0.2539
 5362TIP3    H137577   0.608   4.609   2.087  0.8536  1.7274  0.6827
 5362TIP3    H237578   0.677   4.669   1.966 -0.5292 -1.9817 -2.1612
 5363TIP3   OH237579   0.812   5.881  11.011  0.1105 -0.2214  0.0126
 5363TIP3    H137580   0.875   5.932  10.960 -0.5205 -0.1798 -0.7323
 5363TIP3    H237581   0.727   5.911  10.982 -0.3033 -2.3409 -1.1252
 5364TIP3   OH237582   6.846   4.567   0.039 -0.2069  0.0742 -0.0613
 5364TIP3    H137583   6.843   4.662   0.026 -1.4402 -0.0378 -0.7456
 5364TIP3    H237584   6.781   4.550   0.108  0.6206 -0.1917  0.6679
 5365TIP3   OH237585   6.636   0.522   3.253 -0.4311  0.4874  0.4416
 5365TIP3    H137586   6.710   0.509   3.312  0.6581  2.4366 -0.3798
 5365TIP3    H237587   6.642   0.450   3.190  0.1740  0.0723  0.9698
 5366TIP3   OH237588   1.664   1.547  13.334 -0.2225  0.9221  0.4065
 5366TIP3    H137589   1.757   1.533  13.316 -0.2288 -1.2219  1.7343
 5366TIP3    H237590   1.623   1.549  13.248  0.8930  0.5532 -0.1488
 5367TIP3   OH237591   5.285   5.799   6.938 -0.8550 -0.1588 -0.3073
 5367TIP3    H137592   5.211   5.785   6.879 -0.2062 -2.1448 -0.7354
 5367TIP3    H237593   5.251   5.781   7.025 -0.8906 -1.1510 -0.5109
 5368TIP3   OH237594   6.157   4.014   2.675  0.3215  0.0743 -0.4979
 5368TIP3    H137595   6.222   3.993   2.608 -0.4811 -0.8246 -1.0019
 5368TIP3    H237596   6.177   4.105   2.699  0.7268  0.3537 -1.8143
 5369TIP3   OH237597   3.326   4.413   5.931  0.2150  0.4571  0.1354
 5369TIP3    H137598   3.245   4.410   5.981 -0.3813  1.7616 -0.6890
 5369TIP3    H237599   3.328   4.332   5.881  0.7914 -0.8430  2.1760
 5370TIP3   OH237600   3.690   6.769  16.922 -0.6987  0.2901 -0.2185
 5370TIP3    H137601   3.627   6.800  16.857 -0.3895  0.2990 -0.5179
 5370TIP3    H237602   3.672   6.822  17.000 -0.9964  0.3571 -0.3328
 5371TIP3   OH237603   1.594   6.613   5.713 -0.1000  0.2422 -0.4768
 5371TIP3    H137604   1.636   6.686   5.669  1.9920 -1.3069 -1.2381
 5371TIP3    H237605   1.561   6.558   5.643 -1.0103  0.0868  0.0584
 5372TIP3   OH237606   2.304   4.543   4.215 -0.1247 -0.5425  0.6121
 5372TIP3    H137607   2.302   4.634   4.186  1.1200 -0.1732  1.6155
 5372TIP3    H237608   2.212   4.516   4.213 -0.8317  1.4250  2.3647
 5373TIP3   OH237609   6.562   2.825   0.121  0.1910 -0.1361  0.5899
 5373TIP3    H137610   6.652   2.828   0.086  0.5003  0.7462  1.4179
 5373TIP3    H237611   6.558   2.742   0.169  1.0133  0.4522  1.6943
 5374TIP3   OH237612   1.744   4.557   2.275  0.1648  0.0015  0.1695
 5374TIP3    H137613   1.798   4.529   2.201  0.4081  0.0359  0.3347
 5374TIP3    H237614   1.799   4.542   2.352  0.6817  1.8657  0.2077
 5375TIP3   OH237615   5.437   1.342  16.492 -0.0854 -0.8023 -0.1985
 5375TIP3    H137616   5.409   1.371  16.405  0.5774 -2.6195 -1.0610
 5375TIP3    H237617   5.505   1.405  16.517 -1.1178  0.4414 -0.4399
 5376TIP3   OH237618   0.055   0.894   4.600 -0.0652  0.0524 -0.4415
 5376TIP3    H137619  -0.026   0.852   4.631 -0.5299  0.0660 -1.5870
 5376TIP3    H237620   0.024   0.972   4.552  0.7325  1.1681  0.7912
 5377TIP3   OH237621   3.350   6.228   1.982 -0.2460 -0.0909 -0.2268
 5377TIP3    H137622   3.307   6.275   1.910  0.6439 -1.9697 -2.0753
 5377TIP3    H237623   3.279   6.180   2.024 -0.6522  0.4090 -0.3179
 5378TIP3   OH237624   3.612   6.274  12.963  0.4548 -0.7298  0.2966
 5378TIP3    H137625   3.572   6.229  12.888  1.7974 -1.1461 -0.2094
 5378TIP3    H237626   3.681   6.328  12.924 -0.4016  0.9569  1.0153
 5379TIP3   OH237627   5.706   4.074  11.734 -0.0936  0.2957 -0.0372
 5379TIP3    H137628   5.795   4.045  11.753 -0.5257 -1.6991 -0.7468
 5379TIP3    H237629   5.664   4.082  11.820 -0.1251 -2.0213  0.2288
 5380TIP3   OH237630   1.059   5.600  17.095 -0.5966  0.4564 -0.4646
 5380TIP3    H137631   1.072   5.548  17.016 -0.1377  0.9805 -0.7386
 5380TIP3    H237632   1.147   5.610  17.132 -0.9380 -0.7212  0.7222
 5381TIP3   OH237633   1.231   3.665   4.750 -0.5031  0.2827  0.2021
 5381TIP3    H137634   1.158   3.651   4.809  1.3341 -1.0552  2.3443
 5381TIP3    H237635   1.238   3.583   4.701  1.0129 -0.6716  1.8612
 5382TIP3   OH237636   2.309   1.721  15.209  0.2368 -0.0230 -0.3026
 5382TIP3    H137637   2.252   1.752  15.139 -1.2813 -0.9572  0.4704
 5382TIP3    H237638   2.377   1.670  15.164  0.6350  1.3138 -1.2580
 5383TIP3   OH237639   3.093   5.932  13.117 -0.4616 -0.6901 -0.3053
 5383TIP3    H137640   3.111   5.913  13.025  2.4340 -2.0820  0.4391
 5383TIP3    H237641   3.170   5.979  13.148 -2.0430  1.1659  1.0881
 5384TIP3   OH237642   5.828   2.176   2.063  0.0484  0.1983  0.1879
 5384TIP3    H137643   5.905   2.158   2.116  0.9792  0.8259 -0.8875
 5384TIP3    H237644   5.852   2.147   1.975 -1.0561  0.1277 -0.1035
 5385TIP3   OH237645   1.402   1.740  15.812  0.0469  0.0300  0.2655
 5385TIP3    H137646   1.422   1.702  15.726  1.7412  1.0423  0.1705
 5385TIP3    H237647   1.440   1.679  15.875 -2.7929 -1.7047  0.4835
 5386TIP3   OH237648   4.029   2.321   3.838 -0.2521  0.1642 -0.0127
 5386TIP3    H137649   4.065   2.403   3.872  0.3986 -0.6188  1.2706
 5386TIP3    H237650   3.986   2.281   3.914  0.9105 -1.4718 -0.1733
 5387TIP3   OH237651   5.558   5.022   1.813  0.6095  0.5089  0.1770
 5387TIP3    H137652   5.604   4.980   1.740  0.8854 -1.3962  1.3543
 5387TIP3    H237653   5.472   4.979   1.815 -0.2699  2.1696 -0.3884
 5388TIP3   OH237654   3.222   0.504   4.144  0.7960 -0.2626 -0.3292
 5388TIP3    H137655   3.165   0.445   4.094  0.2438 -1.9582  2.1246
 5388TIP3    H237656   3.176   0.588   4.142 -0.3661 -0.8760 -0.7395
 5389TIP3   OH237657   0.046   1.284   2.664  0.1543  0.3604  0.3042
 5389TIP3    H137658   0.132   1.244   2.679 -0.2916 -0.6857  0.2004
 5389TIP3    H237659   0.010   1.296   2.752 -0.9955 -2.4769  0.3494
 5390TIP3   OH237660   0.989   3.446   2.839  0.0935  0.4102  0.0453
 5390TIP3    H137661   1.000   3.402   2.924  0.3511  0.0648 -0.1658
 5390TIP3    H237662   1.076   3.448   2.801  0.1415  1.3852  0.1759
 5391TIP3   OH237663   5.996   2.662   0.680  0.7167 -0.3155  0.0211
 5391TIP3    H137664   5.969   2.663   0.772  1.9865 -1.3085  0.4289
 5391TIP3    H237665   6.035   2.749   0.665 -1.6340  0.7628 -0.2995
 5392TIP3   OH237666   6.847   0.674   3.883  0.6731 -0.2904 -0.2307
 5392TIP3    H137667   6.844   0.619   3.961 -0.5525 -0.2997 -0.2730
 5392TIP3    H237668   6.804   0.756   3.910  2.0281  0.4783 -0.3146
 5393TIP3   OH237669   0.655   5.614   2.769 -0.2696 -0.0969 -0.3828
 5393TIP3    H137670   0.712   5.538   2.764 -0.6090 -0.2841 -2.3637
 5393TIP3    H237671   0.684   5.661   2.847  1.4276 -1.0739 -0.3748
 5394TIP3   OH237672   5.632   3.316   1.685 -0.3748 -0.6944 -0.5541
 5394TIP3    H137673   5.613   3.240   1.630  1.6787 -0.8189 -1.1611
 5394TIP3    H237674   5.612   3.391   1.629 -0.6956 -0.7870 -0.5681
 5395TIP3   OH237675   5.590   2.881  16.761 -0.6192 -0.0373 -0.2150
 5395TIP3    H137676   5.526   2.835  16.816 -0.2684 -2.4989 -1.7069
 5395TIP3    H237677   5.592   2.970  16.796 -2.4837 -0.7276  1.9006
 5396TIP3   OH237678   3.950   6.083  16.289 -0.6616 -0.1517 -0.2755
 5396TIP3    H137679   4.029   6.136  16.280 -0.9957  0.0413 -2.6441
 5396TIP3    H237680   3.981   5.995  16.307  0.1283 -0.1153 -1.3632
 5397TIP3   OH237681   1.633   0.287  11.316 -0.0121 -0.5300 -0.5915
 5397TIP3    H137682   1.571   0.312  11.384 -0.0352  1.0723 -1.1724
 5397TIP3    H237683   1.719   0.311  11.351  0.1539 -1.3420 -0.4175
 5398TIP3   OH237684   4.252   3.771  14.170  0.7461  0.2264  0.2898
 5398TIP3    H137685   4.187   3.781  14.101 -0.1310 -0.4088  1.0029
 5398TIP3    H237686   4.334   3.803  14.131  0.0161  1.0494 -0.6144
 5399TIP3   OH237687   1.264   3.367  11.607 -0.1411 -0.2455 -0.0766
 5399TIP3    H137688   1.302   3.436  11.662 -0.5335  0.2388 -0.4059
 5399TIP3    H237689   1.224   3.414  11.534 -2.3804 -0.6430  0.8349
 5400TIP3   OH237690   1.050   3.620   4.942 -0.3364 -0.1881 -0.1110
 5400TIP3    H137691   1.114   3.639   5.011  0.1716 -0.5673 -0.4720
 5400TIP3    H237692   0.965   3.633   4.985 -0.0422  1.4730  0.0496
 5401TIP3   OH237693   1.533   1.298  15.949  0.1673  0.7015  0.0379
 5401TIP3    H137694   1.535   1.243  16.027  1.1947  0.5405 -0.0842
 5401TIP3    H237695   1.544   1.387  15.984 -1.6629  0.8703  0.2487
 5402TIP3   OH237696   4.499   1.116  15.233  0.0902 -0.1370 -0.2112
 5402TIP3    H137697   4.454   1.189  15.190 -0.6605 -1.3373 -1.5867
 5402TIP3    H237698   4.527   1.150  15.317 -0.6330  1.5949 -0.6376
 5403TIP3   OH237699   2.692   6.792   1.504 -0.1785 -0.6721  0.7219
 5403TIP3    H137700   2.625   6.823   1.566 -2.3182 -2.3848 -0.5536
 5403TIP3    H237701   2.767   6.769   1.559  0.1004  2.8602  2.0587
 5404TIP3   OH237702   1.511   4.562  14.908 -0.4612 -0.2891 -0.0020
 5404TIP3    H137703   1.467   4.567  14.993  2.0190  1.4855  1.2949
 5404TIP3    H237704   1.474   4.635  14.858  0.2727  0.6143  0.7380
 5405TIP3   OH237705   0.592   6.537   5.345  0.0159  0.7603 -0.4961
 5405TIP3    H137706   0.572   6.581   5.428 -0.4695  0.1577 -0.2834
 5405TIP3    H237707   0.684   6.511   5.353  0.2259  1.4817 -0.5136
 5406TIP3   OH237708   1.227   1.129   0.291 -0.1247 -0.6134 -0.4385
 5406TIP3    H137709   1.217   1.140   0.197  1.1139  0.6865 -0.4561
 5406TIP3    H237710   1.182   1.206   0.329  1.5068  0.2285 -0.1214
 5407TIP3   OH237711   0.382   3.169   1.732  0.0099 -0.0952  0.3255
 5407TIP3    H137712   0.437   3.118   1.791 -1.0298 -0.6316  0.8736
 5407TIP3    H237713   0.407   3.260   1.748 -0.3044 -0.2150  1.6958
 5408TIP3   OH237714   0.500   2.951   4.265 -0.6919  0.0640  0.1039
 5408TIP3    H137715   0.493   2.982   4.175 -0.0324 -2.2860 -0.8237
 5408TIP3    H237716   0.444   3.010   4.316 -0.5650  1.8344 -1.7160
 5409TIP3   OH237717   1.372   6.169  11.250 -0.0463  0.6328 -0.3438
 5409TIP3    H137718   1.286   6.192  11.283 -0.2063  0.0634 -0.3474
 5409TIP3    H237719   1.433   6.220  11.303 -0.3293  0.2158  0.3929
 5410TIP3   OH237720   6.630   1.171  17.076  0.2747  0.3209 -0.2386
 5410TIP3    H137721   6.704   1.229  17.060 -1.3275  2.4356 -0.5149
 5410TIP3    H237722   6.572   1.184  17.001 -0.3126 -1.4146 -0.1355
 5411TIP3   OH237723   2.627   3.427   3.929 -0.1030  0.2021 -0.6632
 5411TIP3    H137724   2.686   3.386   3.866  0.8091 -1.7066  1.3001
 5411TIP3    H237725   2.539   3.408   3.896  0.3529 -0.4779 -1.5277
 5412TIP3   OH237726   5.315   5.694   1.616 -0.5624 -0.4901 -0.1825
 5412TIP3    H137727   5.357   5.611   1.636 -1.9791 -1.0115  0.8103
 5412TIP3    H237728   5.387   5.752   1.589  0.6963 -1.5047  0.8429
 5413TIP3   OH237729   6.521   4.709  12.513 -0.4995  0.6842  0.1575
 5413TIP3    H137730   6.597   4.762  12.489  1.5921 -2.3858 -0.5512
 5413TIP3    H237731   6.478   4.690  12.430 -1.0325  0.9836  0.3646
 5414TIP3   OH237732   4.484   5.785  15.966  0.0850 -0.4724 -0.1768
 5414TIP3    H137733   4.437   5.770  16.047 -0.9602  0.0986 -0.6595
 5414TIP3    H237734   4.549   5.852  15.988 -0.5396  0.0587  0.0682
 5415TIP3   OH237735   6.251   5.119  12.213 -0.2203  0.4306 -0.2546
 5415TIP3    H137736   6.316   5.113  12.283  0.3660 -0.9875 -0.8805
 5415TIP3    H237737   6.223   5.210  12.214  0.9464  0.8037  0.7662
 5416TIP3   OH237738   1.195   5.346  16.961 -0.0614 -0.0034  0.1714
 5416TIP3    H137739   1.234   5.260  16.948  1.7446  0.7009  0.7122
 5416TIP3    H237740   1.182   5.352  17.056 -1.7579 -0.3037 -0.0046
 5417TIP3   OH237741   5.942   2.735   5.099 -0.0857 -0.0042  0.1333
 5417TIP3    H137742   6.028   2.771   5.074  0.4697 -1.0091  0.5323
 5417TIP3    H237743   5.918   2.784   5.178 -0.3143  0.9066 -0.4864
 5418TIP3   OH237744   0.199   2.050  16.158  0.2901 -0.7987 -0.0006
 5418TIP3    H137745   0.133   2.119  16.156  1.2548  0.1658 -1.8928
 5418TIP3    H237746   0.183   2.004  16.240 -1.7991  0.2802  0.2784
 5419TIP3   OH237747   0.689   2.501  12.755 -0.2444 -0.3648 -0.3259
 5419TIP3    H137748   0.776   2.505  12.795  0.1345  0.9183 -1.2280
 5419TIP3    H237749   0.639   2.442  12.813  1.3667 -1.6059 -0.1279
 5420TIP3   OH237750   4.956   1.015   1.336 -0.6411 -0.0097 -0.2126
 5420TIP3    H137751   4.877   0.986   1.382 -0.4878  0.6301  0.4848
 5420TIP3    H237752   4.945   1.109   1.325 -0.3198 -0.0375 -0.7942
 5421TIP3   OH237753   4.309   5.772  13.679 -0.5735 -0.2535 -0.5182
 5421TIP3    H137754   4.314   5.863  13.709 -2.3641 -0.5821  1.0112
 5421TIP3    H237755   4.261   5.776  13.597  1.6096  0.3694 -1.8445
 5422TIP3   OH237756   5.630   5.987   0.587  0.1066 -0.3649 -0.1456
 5422TIP3    H137757   5.694   6.057   0.579 -1.8719  1.5617 -0.0246
 5422TIP3    H237758   5.551   6.021   0.544 -0.5818 -3.0223 -1.1791
 5423TIP3   OH237759   3.437   0.772  13.920  0.0978 -0.4246  0.0603
 5423TIP3    H137760   3.383   0.696  13.898 -0.4284 -0.3507  1.0142
 5423TIP3    H237761   3.527   0.741  13.912 -0.0868 -0.7924 -0.7274
 5424TIP3   OH237762   0.455   1.296   2.023  0.0699 -0.0754 -0.1020
 5424TIP3    H137763   0.544   1.296   1.988 -0.4249  0.1016 -1.3947
 5424TIP3    H237764   0.410   1.366   1.977 -0.9689 -0.6952 -0.0677
 5425TIP3   OH237765   2.271   4.909  16.358  0.2865  0.0365  0.1653
 5425TIP3    H137766   2.196   4.892  16.415  1.7758  0.8352  2.4815
 5425TIP3    H237767   2.269   5.004  16.344  2.1270  0.4701  2.2681
 5426TIP3   OH237768   0.985   5.577   6.296  0.4031 -0.3244 -0.0095
 5426TIP3    H137769   1.049   5.509   6.276 -1.3177 -1.5206 -1.8741
 5426TIP3    H237770   0.932   5.540   6.366  0.8706  0.0641  0.5512
 5427TIP3   OH237771   6.631   1.513   1.735  0.7220  0.3290 -0.3113
 5427TIP3    H137772   6.685   1.515   1.813  0.9188  1.3356 -0.4611
 5427TIP3    H237773   6.625   1.421   1.712  2.8743  0.2199 -0.6319
 5428TIP3   OH237774   1.051   5.980  12.962 -0.5800 -0.0409 -0.2900
 5428TIP3    H137775   1.085   5.976  12.873 -0.4828 -0.9279 -0.2274
 5428TIP3    H237776   1.122   6.020  13.013  0.3337 -1.6601 -0.2019
 5429TIP3   OH237777   4.451   3.235  15.116 -0.1403 -0.2972  0.3669
 5429TIP3    H137778   4.366   3.263  15.082 -0.0973 -1.6715 -1.0112
 5429TIP3    H237779   4.432   3.152  15.161 -0.0663  1.1078  3.2234
 5430TIP3   OH237780   1.573   3.520   2.249 -0.6358 -0.2914 -0.0699
 5430TIP3    H137781   1.603   3.500   2.337  0.3821  0.1273 -0.3056
 5430TIP3    H237782   1.573   3.437   2.203 -1.0304 -0.4874  0.2785
 5431TIP3   OH237783   1.256   5.688   2.086 -0.1321  0.3669 -0.0440
 5431TIP3    H137784   1.279   5.714   1.997 -0.0721  1.7625  0.3438
 5431TIP3    H237785   1.220   5.768   2.125  0.4484 -0.0402  1.3818
 5432TIP3   OH237786   2.894   2.151   1.159  0.4342  0.5500 -0.0086
 5432TIP3    H137787   2.817   2.130   1.211  1.3118 -1.2463  0.6693
 5432TIP3    H237788   2.861   2.164   1.071 -0.5795 -1.2020  0.0569
 5433TIP3   OH237789   6.329   6.239  13.797 -0.5724  0.7068 -0.3489
 5433TIP3    H137790   6.409   6.290  13.811 -1.1930  1.3934  0.8846
 5433TIP3    H237791   6.340   6.162  13.851 -0.1672  0.1064 -1.2610
 5434TIP3   OH237792   5.980   1.272  11.677 -0.3177 -0.1689  0.2058
 5434TIP3    H137793   5.993   1.183  11.710 -1.4030 -0.2710  0.3888
 5434TIP3    H237794   6.046   1.282  11.608  0.7898 -0.5924  1.1598
 5435TIP3   OH237795   3.877   2.219   3.632 -0.4036 -0.0293 -0.3896
 5435TIP3    H137796   3.839   2.146   3.680 -0.1428 -0.4725 -0.8423
 5435TIP3    H237797   3.927   2.268   3.697  0.6116 -1.0701 -0.3329
 5436TIP3   OH237798   6.754   4.234  16.919 -0.5114  0.1874 -0.0905
 5436TIP3    H137799   6.766   4.212  17.011  0.2960  0.7774 -0.0446
 5436TIP3    H237800   6.793   4.321  16.909  1.1997 -0.6675 -1.3949
 5437TIP3   OH237801   4.386   5.381   3.512 -0.6625  0.5633  0.5046
 5437TIP3    H137802   4.453   5.338   3.459 -0.6290 -1.8334  2.3524
 5437TIP3    H237803   4.339   5.436   3.449 -0.0236 -1.3697 -1.8418
 5438TIP3   OH237804   3.144   2.768   5.808  0.3865  0.4951 -0.4391
 5438TIP3    H137805   3.145   2.715   5.888  0.7314 -1.4227 -1.6569
 5438TIP3    H237806   3.232   2.806   5.803  0.3133  0.7536  0.1520
 5439TIP3   OH237807   3.449   2.829   2.670  0.0700 -0.6563  0.4817
 5439TIP3    H137808   3.483   2.739   2.673  0.6240 -0.4640  0.0677
 5439TIP3    H237809   3.361   2.822   2.706  0.2121 -1.3206  0.7180
 5440TIP3   OH237810   2.798   1.454   6.144 -0.3418  0.3939  0.1551
 5440TIP3    H137811   2.825   1.436   6.054  2.0051  2.2124  0.3944
 5440TIP3    H237812   2.747   1.535   6.138  1.0504  1.3223  0.5876
 5441TIP3   OH237813   0.852   1.404  11.636  0.1438 -0.2292  0.2256
 5441TIP3    H137814   0.882   1.490  11.606  3.0386 -1.7987 -2.0312
 5441TIP3    H237815   0.892   1.392  11.722  0.9731  0.1388 -0.1025
 5442TIP3   OH237816   6.008   5.247   1.645 -0.4623  0.4966 -0.6531
 5442TIP3    H137817   6.008   5.232   1.739 -2.6335  1.7828 -0.3751
 5442TIP3    H237818   5.956   5.327   1.634  1.5647  1.6380 -2.7713
 5443TIP3   OH237819   2.262   2.072   0.473  0.0133 -0.0898  0.0696
 5443TIP3    H137820   2.218   2.002   0.522 -1.6450  0.4189 -0.6266
 5443TIP3    H237821   2.213   2.151   0.497  0.6573  0.5292 -0.6338
 5444TIP3   OH237822   0.615   4.034  13.115  0.0252  0.3339 -0.3112
 5444TIP3    H137823   0.593   4.126  13.100 -0.2299  0.2740 -0.2979
 5444TIP3    H237824   0.649   4.032  13.205  0.0594  0.4191 -0.3218
 5445TIP3   OH237825   6.601   3.178  14.341 -0.0077  0.5429 -0.2926
 5445TIP3    H137826   6.678   3.157  14.287  1.4118  1.5233  1.2251
 5445TIP3    H237827   6.572   3.094  14.375 -1.0776 -0.1303 -2.6684
 5446TIP3   OH237828   1.594   1.252  16.423 -0.8720  0.1566 -0.2238
 5446TIP3    H137829   1.525   1.224  16.483 -0.8454  1.7987  0.6235
 5446TIP3    H237830   1.670   1.267  16.478 -0.7609  1.4115 -0.6683
 5447TIP3   OH237831   0.911   6.825   2.200  0.0604 -0.0436  0.2856
 5447TIP3    H137832   0.941   6.835   2.110  1.4458  0.2727  0.7495
 5447TIP3    H237833   0.882   6.913   2.225 -0.8060 -0.2421 -0.0054
 5448TIP3   OH237834   3.325   5.362   0.626  0.2551 -0.4352 -0.6499
 5448TIP3    H137835   3.412   5.377   0.589  0.8524 -1.5828  0.2310
 5448TIP3    H237836   3.290   5.287   0.578  0.7195 -1.4445  0.5349
 5449TIP3   OH237837   2.401   6.555  14.349  0.1957 -0.2196  0.6193
 5449TIP3    H137838   2.379   6.463  14.364 -3.0723  0.4008  0.3865
 5449TIP3    H237839   2.471   6.574  14.412 -0.0170 -2.5093  1.6210
 5450TIP3   OH237840   1.974   4.039   5.182 -0.6592  0.1415  0.1723
 5450TIP3    H137841   2.035   3.975   5.217  0.1404  0.9519  0.3024
 5450TIP3    H237842   2.006   4.057   5.093  0.0238  1.4479  0.6564
 5451TIP3   OH237843   6.588   2.710   1.621  0.3185  0.4711  0.7030
 5451TIP3    H137844   6.658   2.650   1.646  0.9118 -0.1328 -2.0609
 5451TIP3    H237845   6.514   2.653   1.600 -0.2627  0.9681  1.3361
 5452TIP3   OH237846   6.848   2.132   3.267  0.0268  0.4733  0.3886
 5452TIP3    H137847   6.863   2.212   3.217  0.6628 -0.3650 -0.7934
 5452TIP3    H237848   6.935   2.102   3.292 -0.1996  0.0668  0.7139
 5453TIP3   OH237849   5.110   3.261   1.265 -0.2454  0.4352 -0.5208
 5453TIP3    H137850   5.064   3.345   1.255  0.4879  0.8711 -0.3210
 5453TIP3    H237851   5.150   3.246   1.179 -0.2287  0.3822 -0.5034
 5454TIP3   OH237852   5.469   0.211   4.884 -0.0462 -0.1327  0.0780
 5454TIP3    H137853   5.423   0.258   4.953  1.4022  1.3530  0.1102
 5454TIP3    H237854   5.433   0.246   4.802 -1.1056 -1.2190  0.0554
 5455TIP3   OH237855   1.019   2.352   2.359  0.0865  0.9069 -0.2352
 5455TIP3    H137856   0.932   2.313   2.367  0.0753  0.1974 -2.8611
 5455TIP3    H237857   1.045   2.372   2.449 -1.7383 -1.1506  0.8417
 5456TIP3   OH237858   2.874   6.458   0.954  0.4347  0.1125  0.4598
 5456TIP3    H137859   2.858   6.397   0.882  0.9958 -0.0399  0.4627
 5456TIP3    H237860   2.952   6.424   0.997  1.3347  1.3864 -0.1240
 5457TIP3   OH237861   3.490   5.282   4.726 -0.0179  0.7424 -0.2442
 5457TIP3    H137862   3.572   5.252   4.764  0.9831  1.0483 -2.0467
 5457TIP3    H237863   3.422   5.231   4.771  1.2089 -0.0182  0.7838
 5458TIP3   OH237864   0.035   1.646   0.834  0.2285  0.1427  0.3723
 5458TIP3    H137865   0.118   1.616   0.871 -0.3039 -0.2008  1.3396
 5458TIP3    H237866   0.013   1.580   0.768  0.1059 -0.4624  1.0031
 5459TIP3   OH237867   6.223   5.912  12.429 -0.2610 -0.5990  0.7787
 5459TIP3    H137868   6.184   5.828  12.408  2.3651 -1.5019 -1.1460
 5459TIP3    H237869   6.246   5.950  12.344  3.0427 -0.3082  1.6269
 5460TIP3   OH237870   4.581   2.606  15.055  0.1151  0.7037  0.2156
 5460TIP3    H137871   4.595   2.595  14.961 -1.0142  2.4953 -0.2112
 5460TIP3    H237872   4.663   2.642  15.088 -0.8060  4.3507 -0.9689
 5461TIP3   OH237873   5.616   6.478   5.150  0.3556  0.7413  0.2188
 5461TIP3    H137874   5.688   6.416   5.156 -0.1603  0.1784  0.8546
 5461TIP3    H237875   5.613   6.520   5.236  0.6483  1.5925 -0.1797
 5462TIP3   OH237876   1.819   2.846   6.349  0.3194 -0.0434  0.2512
 5462TIP3    H137877   1.808   2.795   6.429 -0.5231  0.0003  0.1810
 5462TIP3    H237878   1.896   2.900   6.364 -0.0490  0.2445  1.1951
 5463TIP3   OH237879   0.090   3.578  14.925 -0.1227 -0.0905  0.0412
 5463TIP3    H137880   0.161   3.514  14.922 -0.1523 -0.1223  0.0224
 5463TIP3    H237881   0.134   3.662  14.934 -0.1081 -0.1969  1.1575
 5464TIP3   OH237882   3.002   5.872   4.804  0.2234  0.5053 -0.4271
 5464TIP3    H137883   3.011   5.935   4.876 -1.6592  0.5216 -0.1452
 5464TIP3    H237884   3.061   5.903   4.736 -0.5419  2.5190 -0.2333
 5465TIP3   OH237885   5.589   6.721  11.646  0.1220 -0.8715  0.1871
 5465TIP3    H137886   5.633   6.768  11.576  0.3446  0.4485  1.1821
 5465TIP3    H237887   5.654   6.712  11.715 -1.1192  1.2851  1.7635
 5466TIP3   OH237888   5.569   1.668  15.954 -0.4237 -0.3641 -0.0247
 5466TIP3    H137889   5.641   1.648  15.894 -0.4808  2.8341 -1.3371
 5466TIP3    H237890   5.491   1.667  15.899 -0.7168  0.8960  0.3437
 5467TIP3   OH237891   0.091   2.121  11.704 -0.2362  0.6940 -0.3238
 5467TIP3    H137892   0.156   2.111  11.774  0.0580 -0.6900 -0.7614
 5467TIP3    H237893   0.115   2.055  11.639 -2.0113  0.1893 -0.5409
 5468TIP3   OH237894   2.597   1.407  14.385  0.4365 -0.2449  0.1178
 5468TIP3    H137895   2.541   1.342  14.343  2.1457 -2.2113  0.7200
 5468TIP3    H237896   2.647   1.446  14.313 -0.2632  0.0846 -0.1970
 5469TIP3   OH237897   2.282   2.508   2.904  0.1450  0.3712  0.4506
 5469TIP3    H137898   2.284   2.591   2.857  1.6495 -0.2388 -0.6410
 5469TIP3    H237899   2.348   2.454   2.860  0.7206 -0.6665  2.4804
 5470TIP3   OH237900   0.044   2.850   2.751  0.3121 -0.0132 -0.4198
 5470TIP3    H137901   0.121   2.816   2.798  1.1314  0.9467 -1.0192
 5470TIP3    H237902  -0.029   2.798   2.784  1.3299 -1.4965 -0.4066
 5471TIP3   OH237903   3.181   0.962  16.411 -0.0685  1.1057 -0.2923
 5471TIP3    H137904   3.098   1.009  16.420 -0.4602  0.0453  2.2374
 5471TIP3    H237905   3.158   0.879  16.369  0.1075  1.6937 -1.6166
 5472TIP3   OH237906   6.654   0.240  15.202 -0.1119 -0.1224  0.0219
 5472TIP3    H137907   6.577   0.281  15.162 -0.7014  1.3926  2.5389
 5472TIP3    H237908   6.666   0.286  15.285  4.0979  0.3555 -0.6104
 5473TIP3   OH237909   1.661   3.365  12.089  0.1357  0.7275 -0.5490
 5473TIP3    H137910   1.640   3.316  12.168  1.9768  1.1106  0.2126
 5473TIP3    H237911   1.616   3.449  12.100  0.9356  1.0432  0.4387
 5474TIP3   OH237912   2.591   4.402  14.075 -0.7943 -0.4179 -0.0371
 5474TIP3    H137913   2.621   4.454  14.001 -0.3231 -0.6948 -0.0495
 5474TIP3    H237914   2.607   4.311  14.048 -1.1576 -0.5451  0.1720
 5475TIP3   OH237915   2.965   4.610   1.071  0.3625  0.5648  0.4442
 5475TIP3    H137916   2.880   4.581   1.105 -1.3518  1.8408 -2.3492
 5475TIP3    H237917   2.976   4.698   1.105 -0.1432  0.9059 -0.2409
 5476TIP3   OH237918   1.843   1.458   3.435  0.1409 -0.0333  0.1127
 5476TIP3    H137919   1.911   1.511   3.477 -0.3219  0.4618  0.2415
 5476TIP3    H237920   1.841   1.377   3.485  2.8534 -1.4330 -1.7706
 5477TIP3   OH237921   5.074   4.637  15.833 -0.5629 -0.3606 -0.1520
 5477TIP3    H137922   4.982   4.639  15.808 -0.5602  1.1464 -0.0830
 5477TIP3    H237923   5.116   4.702  15.777  0.3605 -0.6296  0.2110
 5478TIP3   OH237924   5.990   6.792   0.055  0.0041 -0.1997 -0.0213
 5478TIP3    H137925   5.993   6.847   0.134 -0.1938 -1.6860  1.0512
 5478TIP3    H237926   6.074   6.808   0.012  0.0050  0.8303  0.3221
 5479TIP3   OH237927   1.025   4.014   1.335  0.8100 -0.1004  0.1149
 5479TIP3    H137928   1.118   3.993   1.325  0.7072 -0.6596  0.2697
 5479TIP3    H237929   1.018   4.106   1.310  1.2414 -0.3110 -0.8296
 5480TIP3   OH237930   0.359   3.454  12.779 -0.1038  0.2060 -0.4610
 5480TIP3    H137931   0.265   3.453  12.799  0.0773  0.0563  0.4489
 5480TIP3    H237932   0.363   3.468  12.685 -1.0362  0.5718 -0.4631
 5481TIP3   OH237933   3.976   5.938  10.708  0.5789  0.1560 -0.4386
 5481TIP3    H137934   3.893   5.927  10.754  1.6927 -1.7067  1.3305
 5481TIP3    H237935   3.953   5.980  10.626 -1.7258  2.2375  1.1452
 5482TIP3   OH237936   2.048   5.040  12.385  0.3049 -0.1496 -0.1551
 5482TIP3    H137937   2.126   4.985  12.388 -0.1396 -0.8151 -0.4134
 5482TIP3    H237938   2.072   5.112  12.327  0.8786 -0.1029  0.1390
 5483TIP3   OH237939   2.744   4.223  13.160 -0.2509 -0.6048  0.4276
 5483TIP3    H137940   2.758   4.130  13.179  0.2851 -0.5898  0.1200
 5483TIP3    H237941   2.651   4.236  13.174 -0.6847 -1.6026 -1.2227
 5484TIP3   OH237942   1.240   6.297   4.290  0.1740  0.2645 -0.0438
 5484TIP3    H137943   1.304   6.357   4.250 -2.1202  1.5634 -2.0086
 5484TIP3    H237944   1.238   6.324   4.382  1.2917  1.2379 -0.2687
 5485TIP3   OH237945   6.723   4.361   5.592  0.7411 -0.0591  0.8886
 5485TIP3    H137946   6.643   4.388   5.636 -0.2736 -0.5150 -0.6187
 5485TIP3    H237947   6.759   4.441   5.555  1.3355  0.2443  2.0732
 5486TIP3   OH237948   4.497   0.548   3.359 -0.1135 -0.3721  0.0579
 5486TIP3    H137949   4.437   0.591   3.420 -0.3976  0.2858 -0.6868
 5486TIP3    H237950   4.567   0.611   3.345  0.3955 -0.8572  0.3538
 5487TIP3   OH237951   0.990   0.066  12.747  0.1375  0.0106 -0.1487
 5487TIP3    H137952   1.000   0.158  12.723 -0.6016 -0.1823 -1.2543
 5487TIP3    H237953   0.999   0.018  12.665  0.6837 -0.9258  0.4408
 5488TIP3   OH237954   0.076   2.886  14.289 -0.2730 -0.0924 -0.2443
 5488TIP3    H137955   0.016   2.883  14.363  0.5754 -3.9723  0.5480
 5488TIP3    H237956   0.153   2.933  14.321 -0.8584  0.3651  0.5049
 5489TIP3   OH237957   3.349   4.238   6.604  0.0280 -0.3573  0.0628
 5489TIP3    H137958   3.395   4.214   6.684 -1.0050 -1.8070  0.2663
 5489TIP3    H237959   3.418   4.271   6.546  1.1441 -1.3844  0.7500
 5490TIP3   OH237960   3.663   4.630   5.113 -0.1453 -0.3366 -0.0256
 5490TIP3    H137961   3.683   4.564   5.179  0.4774  1.5036  1.7453
 5490TIP3    H237962   3.589   4.679   5.149 -0.8302 -0.2459 -1.4599
 5491TIP3   OH237963   3.986   2.089  10.810 -0.0334 -0.0019  0.0601
 5491TIP3    H137964   4.002   2.077  10.903 -1.4569 -0.0985  0.3184
 5491TIP3    H237965   3.967   2.182  10.800 -1.9200 -0.3316  0.2374
 5492TIP3   OH237966   6.765   3.812  12.011  0.4446 -0.0312 -0.2660
 5492TIP3    H137967   6.847   3.789  11.968  1.4058  1.2389  0.7858
 5492TIP3    H237968   6.786   3.811  12.104 -0.5717  0.8742 -0.0005
 5493TIP3   OH237969   0.842   4.207   4.824 -0.2550 -0.1594  0.4044
 5493TIP3    H137970   0.906   4.138   4.808 -0.2232  0.4297 -2.6591
 5493TIP3    H237971   0.878   4.284   4.778 -2.0872  0.8069  0.4922
 5494TIP3   OH237972   2.986   0.152   0.997 -0.1286  0.4690  0.1068
 5494TIP3    H137973   3.081   0.157   1.012 -0.0768  0.2564 -0.1604
 5494TIP3    H237974   2.966   0.059   0.999  0.4915 -0.0359 -4.8821
 5495TIP3   OH237975   3.100   6.701  14.486  0.6145 -0.6258 -0.0202
 5495TIP3    H137976   3.195   6.713  14.483  1.0795 -3.7523 -0.9660
 5495TIP3    H237977   3.065   6.787  14.464  3.2674  0.1635 -1.6070
 5496TIP3   OH237978   6.376   6.353  11.628 -0.1634  0.3158  0.2699
 5496TIP3    H137979   6.317   6.285  11.597 -0.3325  0.7683 -0.4107
 5496TIP3    H237980   6.463   6.323  11.603 -0.2642  0.4857 -0.2914
 5497TIP3   OH237981   6.443   2.075  13.112  1.3771  0.1588 -0.0297
 5497TIP3    H137982   6.423   2.168  13.126  1.8031  0.1320  0.8246
 5497TIP3    H237983   6.366   2.041  13.066  0.4341  0.5597  1.1894
 5498TIP3   OH237984   6.495   1.295  12.014 -0.4706 -0.0855 -0.2848
 5498TIP3    H137985   6.504   1.259  11.926  0.3208 -0.0759 -0.2152
 5498TIP3    H237986   6.555   1.370  12.016  1.3948 -1.5206  1.0080
 5499TIP3   OH237987   4.633   5.039   2.145  0.0756  0.3776 -0.0981
 5499TIP3    H137988   4.610   4.989   2.067 -0.6352 -2.1207  1.5641
 5499TIP3    H237989   4.728   5.042   2.145  0.1887 -1.6916  0.0687
 5500TIP3   OH237990   1.434   2.037  15.213 -0.6442  0.3471 -1.0494
 5500TIP3    H137991   1.442   1.943  15.229  1.3309  0.5798 -0.4116
 5500TIP3    H237992   1.474   2.050  15.127 -2.0518  0.4745 -1.7179
 5501TIP3   OH237993   3.317   6.459  15.769  0.2922 -0.2346 -0.4720
 5501TIP3    H137994   3.277   6.413  15.695  0.2303  0.8341 -1.1329
 5501TIP3    H237995   3.244   6.483  15.826  0.4133 -1.7286  0.3536
 5502TIP3   OH237996   3.570   5.080   2.381  0.2768 -0.3714 -0.4759
 5502TIP3    H137997   3.533   5.065   2.468  1.0967 -0.2493 -0.0924
 5502TIP3    H237998   3.560   5.174   2.366 -0.8408 -0.5583 -0.9836
 5503TIP3   OH237999   0.238   5.928  12.731 -0.4676 -0.2233 -0.5529
 5503TIP3    H138000   0.228   6.021  12.755 -2.0058 -0.5731  0.2704
 5503TIP3    H238001   0.327   5.922  12.697 -0.9727  1.9790 -2.5750
 5504TIP3   OH238002   4.271   6.179  12.617  0.3413  0.5584  0.1188
 5504TIP3    H138003   4.342   6.234  12.584  0.9284 -0.7794 -0.9182
 5504TIP3    H238004   4.260   6.110  12.551 -1.7186  0.5363  0.3975
 5505TIP3   OH238005   4.877   1.089  14.747 -0.2545  0.1462  0.3938
 5505TIP3    H138006   4.936   1.043  14.807 -0.1006  0.0615  0.1760
 5505TIP3    H238007   4.868   1.177  14.784  2.3485  1.1635 -1.1311
 5506TIP3   OH238008   1.708   1.093  15.828  0.0678  0.1978 -0.1796
 5506TIP3    H138009   1.647   1.161  15.856  1.1744  0.7431  1.0296
 5506TIP3    H238010   1.655   1.033  15.776 -1.5741  0.4988  1.0499
 5507TIP3   OH238011   0.133   3.065   1.922  0.1310 -0.5621  0.0834
 5507TIP3    H138012   0.130   3.161   1.923  1.0984 -0.5167  1.1345
 5507TIP3    H238013   0.143   3.041   2.014 -0.9350 -1.7233 -0.0825
 5508TIP3   OH238014   0.545   0.794   1.138  0.2503  0.5154  0.0249
 5508TIP3    H138015   0.622   0.833   1.097  0.2928  0.0476 -0.3396
 5508TIP3    H238016   0.575   0.765   1.224  0.0957  1.7452  0.5251
 5509TIP3   OH238017   0.887   3.486   3.861  0.4185  0.8944 -0.4145
 5509TIP3    H138018   0.928   3.487   3.774  0.6283 -1.2799 -0.3941
 5509TIP3    H238019   0.794   3.474   3.844  0.6416 -1.3048 -0.3730
 5510TIP3   OH238020   5.014   0.736   2.726  0.1304  1.0154  0.1033
 5510TIP3    H138021   5.014   0.658   2.781  0.1827  1.7078  1.1148
 5510TIP3    H238022   5.106   0.764   2.724  0.0339  1.3377  0.1598
 5511TIP3   OH238023   4.936   1.412   5.242 -0.3612  0.1115 -0.4656
 5511TIP3    H138024   4.971   1.333   5.200  2.0735  0.5623  0.5126
 5511TIP3    H238025   4.841   1.402   5.238 -0.1333 -2.6621 -0.7640
 5512TIP3   OH238026   5.722   4.349   1.540 -0.1098 -0.2882  0.0465
 5512TIP3    H138027   5.733   4.414   1.609  1.2394  0.0081 -0.4112
 5512TIP3    H238028   5.721   4.399   1.458 -0.8085 -0.7060 -0.2148
 5513TIP3   OH238029   3.027   0.179   4.267 -0.4491 -0.0551 -0.2075
 5513TIP3    H138030   3.045   0.205   4.176 -0.2050 -1.3849 -0.5518
 5513TIP3    H238031   3.112   0.185   4.311 -0.2003 -1.1758 -0.5225
 5514TIP3   OH238032   6.113   5.232  13.618  1.1849 -0.0840  0.0990
 5514TIP3    H138033   6.141   5.156  13.567 -0.0728  0.4623 -1.5166
 5514TIP3    H238034   6.111   5.304  13.554 -3.2528  0.0436  0.0825
 5515TIP3   OH238035   6.671   0.376   4.352 -0.6405  0.4672  0.1570
 5515TIP3    H138036   6.696   0.352   4.441 -0.0776  0.3547 -0.0285
 5515TIP3    H238037   6.626   0.460   4.362  2.1217  2.0734  0.2586
 5516TIP3   OH238038   5.737   1.287  11.181  0.3096  0.0410 -0.3609
 5516TIP3    H138039   5.704   1.374  11.157 -1.8818  0.0460  2.1815
 5516TIP3    H238040   5.786   1.301  11.262  1.1556 -0.9346 -0.6771
 5517TIP3   OH238041   4.907   1.895  13.414  0.3934  0.0734 -0.0313
 5517TIP3    H138042   4.816   1.864  13.414 -0.2974  1.9338  1.0159
 5517TIP3    H238043   4.959   1.816  13.403 -1.2722 -1.3616  1.7182
 5518TIP3   OH238044   2.810   5.430   3.246  0.1338  0.0550 -0.0414
 5518TIP3    H138045   2.834   5.468   3.161 -1.0666 -0.2188 -0.5142
 5518TIP3    H238046   2.884   5.374   3.268 -0.4080 -1.5021 -1.9234
 5519TIP3   OH238047   2.243   2.222   2.353  0.5164  0.4406 -0.0275
 5519TIP3    H138048   2.271   2.297   2.405 -0.1802 -0.4276  1.6923
 5519TIP3    H238049   2.185   2.259   2.286  1.8903  1.6570 -0.5920
 5520TIP3   OH238050   6.051   6.505   1.462  0.3179 -0.0254  0.4747
 5520TIP3    H138051   5.957   6.501   1.480 -0.2053  0.7072 -1.7913
 5520TIP3    H238052   6.083   6.576   1.519 -0.8158  0.7829  0.1472
 5521TIP3   OH238053   3.253   3.783   2.624  0.3088  0.2548 -0.3651
 5521TIP3    H138054   3.200   3.734   2.686  0.9028 -1.6172 -1.2450
 5521TIP3    H238055   3.225   3.873   2.634  1.6286  0.3992  3.8854
 5522TIP3   OH238056   3.494   2.736  12.248 -0.5119  0.3216 -0.5874
 5522TIP3    H138057   3.469   2.722  12.340  0.1653  0.3497 -0.3965
 5522TIP3    H238058   3.571   2.793  12.253  0.6130 -1.1115 -1.1018
 5523TIP3   OH238059   3.577   3.646   5.981  0.0166 -0.2872  0.3452
 5523TIP3    H138060   3.565   3.600   6.064  0.2767 -1.2688 -0.1339
 5523TIP3    H238061   3.495   3.629   5.934  0.3422 -0.7673 -0.0614
 5524TIP3   OH238062   0.421   0.326  14.057 -0.1372  0.0265  0.1203
 5524TIP3    H138063   0.442   0.367  13.973  0.0011  0.1652  0.2214
 5524TIP3    H238064   0.500   0.339  14.110  0.0904 -0.7795 -0.0002
 5525TIP3   OH238065   5.406   6.681  11.442 -0.4914  0.1386  0.1397
 5525TIP3    H138066   5.452   6.698  11.523  0.1066  0.1004 -0.1866
 5525TIP3    H238067   5.412   6.586  11.430 -1.5371  0.0006  0.6103
 5526TIP3   OH238068   4.627   2.027  16.188  0.7350 -0.2080 -0.1119
 5526TIP3    H138069   4.711   2.066  16.214  0.7308 -0.1374 -0.2052
 5526TIP3    H238070   4.562   2.078  16.237  0.5596  1.3655 -1.8804
 5527TIP3   OH238071   2.010   2.912  13.125  0.1555 -0.6555 -0.3789
 5527TIP3    H138072   2.037   2.853  13.055 -0.8040 -0.7456 -0.6928
 5527TIP3    H238073   1.973   2.854  13.192 -0.7891 -0.4227 -0.6879
 5528TIP3   OH238074   3.531   6.020  14.853 -0.2415 -0.1059 -0.2570
 5528TIP3    H138075   3.543   5.925  14.846 -1.1876 -0.6327  3.4038
 5528TIP3    H238076   3.448   6.037  14.810 -0.9054 -1.2567  0.5073
 5529TIP3   OH238077   1.433   3.068  15.140 -0.1549  0.6458 -0.0958
 5529TIP3    H138078   1.342   3.096  15.150 -1.0241 -1.9133  0.1178
 5529TIP3    H238079   1.459   3.042  15.229 -0.4202 -1.6855 -0.6170
 5530TIP3   OH238080   3.122   0.045  13.368  0.1714  0.1014 -0.0155
 5530TIP3    H138081   3.141  -0.048  13.369  0.5586  0.1829  0.4374
 5530TIP3    H238082   3.146   0.074  13.279  2.4633  0.2516  0.5849
 5531TIP3   OH238083   5.263   3.980  15.395  0.5790 -0.7686  0.0615
 5531TIP3    H138084   5.353   3.948  15.385 -0.2211 -3.0711 -0.3400
 5531TIP3    H238085   5.218   3.948  15.316 -0.2967  1.6228 -0.4966
 5532TIP3   OH238086   0.110   6.315  14.504 -0.0071 -0.1657 -0.1241
 5532TIP3    H138087   0.186   6.277  14.461  0.4214  0.5403 -0.0019
 5532TIP3    H238088   0.082   6.248  14.567 -1.0930 -1.5415 -1.9371
 5533TIP3   OH238089   0.989   3.097   1.005  0.1008 -0.3944  0.8108
 5533TIP3    H138090   1.048   3.072   1.076  0.6729 -0.2679  0.3881
 5533TIP3    H238091   0.901   3.085   1.041  0.3622  1.0932  2.0612
 5534TIP3   OH238092   6.230   1.674  17.123 -0.0984  0.1996 -0.4351
 5534TIP3    H138093   6.144   1.661  17.083 -0.8794  2.5251  0.3139
 5534TIP3    H238094   6.216   1.742  17.189  2.5552  1.6809 -1.2435
 5535TIP3   OH238095   6.009   6.665  12.745 -0.3202 -0.4909  0.3099
 5535TIP3    H138096   6.078   6.668  12.810 -0.4193 -1.0053  0.4430
 5535TIP3    H238097   5.928   6.678  12.795 -0.2549  1.4565 -0.0024
 5536TIP3   OH238098   3.651   1.361  15.637  1.1744  0.2687  0.2397
 5536TIP3    H138099   3.560   1.367  15.667  0.4304  1.1159 -1.9733
 5536TIP3    H238100   3.689   1.445  15.660  0.6128  0.9100 -1.1023
 5537TIP3   OH238101   1.586   4.320   0.687 -0.0794 -0.0792 -0.2846
 5537TIP3    H138102   1.583   4.416   0.688 -1.2754 -0.0956  0.4978
 5537TIP3    H238103   1.550   4.295   0.772  2.8714 -1.2107  0.7733
 5538TIP3   OH238104   1.950   2.222   5.127 -0.3449  0.0360  0.6828
 5538TIP3    H138105   1.888   2.153   5.104 -0.2492  0.4302 -0.8667
 5538TIP3    H238106   1.900   2.303   5.116  0.0605  0.2898  0.7139
 5539TIP3   OH238107   1.824   2.518  16.507 -0.1031 -0.6924 -0.4153
 5539TIP3    H138108   1.732   2.527  16.530 -0.0112 -2.0725  0.6125
 5539TIP3    H238109   1.827   2.531  16.413 -0.6733  4.1945 -0.0230
 5540TIP3   OH238110   5.328   2.100   1.282  0.2614 -0.0693  0.0799
 5540TIP3    H138111   5.341   2.060   1.368 -0.7269 -0.8526 -0.1111
 5540TIP3    H238112   5.274   2.177   1.300 -0.6724 -0.7029  0.0935
 5541TIP3   OH238113   0.014   3.652   3.665  0.4193  0.4923  0.0080
 5541TIP3    H138114   0.031   3.625   3.755 -0.6315 -3.1418 -0.7335
 5541TIP3    H238115   0.078   3.722   3.649  3.4802 -1.5158  2.3001
 5542TIP3   OH238116   3.140   6.659   3.410  0.3869  0.2503 -0.2480
 5542TIP3    H138117   3.083   6.683   3.483  0.8572  0.1572  0.1557
 5542TIP3    H238118   3.110   6.714   3.337 -0.1876  0.2326 -0.0337
 5543TIP3   OH238119   1.043   1.920   0.676  0.8288  0.0724  0.7706
 5543TIP3    H138120   0.948   1.915   0.686  0.5979 -0.4951 -1.1431
 5543TIP3    H238121   1.058   1.997   0.620  1.3376 -0.6699 -0.1561
 5544TIP3   OH238122   0.950   1.306   4.321  0.1987 -0.0502  0.1078
 5544TIP3    H138123   1.022   1.367   4.337 -0.3167  0.4962  0.3786
 5544TIP3    H238124   0.926   1.274   4.408 -0.5471  0.5383  0.1240
 5545TIP3   OH238125   3.027   0.426   0.850 -0.3257 -0.3696  0.2480
 5545TIP3    H138126   2.977   0.482   0.910  0.8067  1.9168 -0.8291
 5545TIP3    H238127   3.119   0.442   0.873  0.1147  0.2171 -1.7509
 5546TIP3   OH238128   0.497   2.616   0.345  0.2844 -0.3763 -0.4821
 5546TIP3    H138129   0.450   2.629   0.263 -1.0215 -2.8210 -0.2202
 5546TIP3    H238130   0.525   2.524   0.342  2.2079  0.0897  0.8555
 5547TIP3   OH238131   3.939   4.182   5.726  0.0312  0.0766 -0.2673
 5547TIP3    H138132   3.989   4.127   5.667  1.1712 -1.1881  1.7622
 5547TIP3    H238133   3.982   4.268   5.722  0.5964 -0.2215 -0.6598
 5548TIP3   OH238134   2.159   4.731  16.836  0.4156  0.0770  0.6609
 5548TIP3    H138135   2.184   4.657  16.780 -0.0178 -2.8101  3.9335
 5548TIP3    H238136   2.236   4.748  16.889  0.6229  2.3700 -0.2547
 5549TIP3   OH238137   6.457   2.216   6.393  0.3751 -0.3423  0.1224
 5549TIP3    H138138   6.527   2.278   6.376  0.4028  0.3100  2.3352
 5549TIP3    H238139   6.500   2.141   6.434  0.3578 -1.9623 -2.5571
 5550TIP3   OH238140   0.960   3.390   4.379 -0.1361  0.2690 -0.4683
 5550TIP3    H138141   1.001   3.313   4.420 -0.4211  0.2998 -0.1156
 5550TIP3    H238142   0.959   3.370   4.286  2.0857  0.9202 -0.6878
 5551TIP3   OH238143   1.266   0.621  11.378  0.8687 -0.0049 -0.4547
 5551TIP3    H138144   1.300   0.710  11.367  0.1004  0.4264  0.4795
 5551TIP3    H238145   1.243   0.616  11.471 -0.6248 -0.6208 -0.8367
 5552TIP3   OH238146   2.373   5.724   0.967 -0.1451  0.1486 -0.4105
 5552TIP3    H138147   2.358   5.815   0.940  2.0776  0.1568 -1.8888
 5552TIP3    H238148   2.450   5.728   1.023 -0.8327 -0.6912  0.6309
 5553TIP3   OH238149   4.336   2.217  11.801 -0.0955  0.1706  0.0965
 5553TIP3    H138150   4.407   2.171  11.846 -0.9606  0.5860  1.9893
 5553TIP3    H238151   4.293   2.149  11.748  0.6112 -0.4588  0.3069
 5554TIP3   OH238152   2.453   6.279   0.921  0.2262  0.1582  0.3899
 5554TIP3    H138153   2.380   6.302   0.978 -1.6519 -2.5703 -0.7011
 5554TIP3    H238154   2.418   6.289   0.832  1.2814 -0.8476 -0.1696
 5555TIP3   OH238155   1.402   3.762   3.010 -0.5967 -0.7942  0.3590
 5555TIP3    H138156   1.444   3.691   2.963 -0.8886 -0.4633 -0.4163
 5555TIP3    H238157   1.323   3.782   2.960  1.9391  3.5290 -2.6291
 5556TIP3   OH238158   2.170   0.373  12.889  0.3947 -0.3623 -0.0779
 5556TIP3    H138159   2.216   0.289  12.883 -0.7146 -0.9187 -1.4937
 5556TIP3    H238160   2.223   0.425  12.948  2.5419 -1.1591 -1.2032
 5557TIP3   OH238161   3.425   4.143  13.135  0.5541  0.4022  0.4596
 5557TIP3    H138162   3.380   4.200  13.072  0.6866 -1.0469 -1.0056
 5557TIP3    H238163   3.499   4.195  13.166 -0.2925  1.6458  0.4742
 5558TIP3   OH238164   6.565   2.237  15.815 -0.7759  0.1899 -0.5426
 5558TIP3    H138165   6.517   2.159  15.842 -1.3190  0.0396 -1.8563
 5558TIP3    H238166   6.531   2.307  15.870  0.2528 -0.5949  1.1907
 5559TIP3   OH238167   6.652   2.087  14.522 -0.6890 -0.3034 -0.4256
 5559TIP3    H138168   6.726   2.064  14.465  0.1888  1.2478  0.0169
 5559TIP3    H238169   6.677   2.054  14.608  0.8128  2.5033  0.3257
 5560TIP3   OH238170   4.680   4.355  12.034 -0.8137  0.0010 -0.2447
 5560TIP3    H138171   4.593   4.370  12.071 -0.4515 -0.1913  0.7154
 5560TIP3    H238172   4.740   4.369  12.107 -0.0677 -0.3144 -0.7812
 5561TIP3   OH238173   2.916   5.686   5.321 -0.6520  0.0488  0.3961
 5561TIP3    H138174   2.949   5.638   5.244 -1.8246 -0.5561  0.2409
 5561TIP3    H238175   2.977   5.663   5.391  0.1826  0.2583 -0.2302
 5562TIP3   OH238176   4.356   2.977  12.241  0.8138 -0.2131 -0.5581
 5562TIP3    H138177   4.396   2.944  12.321 -0.5056 -0.4777  0.0196
 5562TIP3    H238178   4.265   2.946  12.245  0.0060  1.9365 -0.9054
 5563TIP3   OH238179   4.935   6.092  16.142  0.2658  0.7841 -0.0469
 5563TIP3    H138180   5.005   6.155  16.124  1.0281  0.3507  1.2265
 5563TIP3    H238181   4.977   6.024  16.193 -0.8405 -0.1094 -0.2868
 5564TIP3   OH238182   0.490   6.354  13.476  0.5484 -0.6740 -0.5280
 5564TIP3    H138183   0.488   6.431  13.531  0.6619 -0.9501 -0.1326
 5564TIP3    H238184   0.583   6.340  13.458  0.3951  1.3223 -3.5169
 5565TIP3   OH238185   4.603   5.231   2.556 -0.1682  0.7858  0.2292
 5565TIP3    H138186   4.637   5.319   2.569 -0.2208  1.1567 -1.8228
 5565TIP3    H238187   4.546   5.238   2.480 -0.7031 -0.8988  0.4288
 5566TIP3   OH238188   4.864   0.522  12.759 -0.2767 -0.1800 -0.1284
 5566TIP3    H138189   4.942   0.498  12.809 -1.2915 -1.4348  0.9170
 5566TIP3    H238190   4.835   0.604  12.799 -0.0445 -0.2125  0.1136
 5567TIP3   OH238191   0.443   0.245   5.084 -0.0731  0.4051  0.3074
 5567TIP3    H138192   0.401   0.322   5.045 -2.1803 -0.3490  0.9525
 5567TIP3    H238193   0.371   0.186   5.104  1.3536 -1.0926  1.2833
 5568TIP3   OH238194   3.659   5.555  14.443 -0.2175 -0.2563 -0.3668
 5568TIP3    H138195   3.585   5.615  14.450 -1.1239 -1.2989 -0.7429
 5568TIP3    H238196   3.725   5.591  14.503 -0.4791  1.4485 -1.0333
 5569TIP3   OH238197   3.119   5.483  11.331  0.3855  0.3293  0.2126
 5569TIP3    H138198   3.126   5.390  11.355  2.9729  0.1611 -0.8909
 5569TIP3    H238199   3.113   5.483  11.236 -0.9878  1.2785  0.2799
 5570TIP3   OH238200   2.273   0.306  11.484 -0.2688 -0.4250  0.1142
 5570TIP3    H138201   2.191   0.331  11.525  0.5472  3.2355 -0.1253
 5570TIP3    H238202   2.340   0.355  11.532  1.3317 -0.3567 -2.0279
 5571TIP3   OH238203   2.678   0.687  16.423  0.1818 -0.2245 -0.3783
 5571TIP3    H138204   2.629   0.694  16.341  0.3357  0.6562 -0.4002
 5571TIP3    H238205   2.734   0.764  16.425 -2.0128  1.4770  1.9874
 5572TIP3   OH238206   1.224   6.758   5.381 -0.2913  0.1139 -0.7419
 5572TIP3    H138207   1.305   6.805   5.399 -0.3862  0.2461 -0.6582
 5572TIP3    H238208   1.162   6.790   5.446 -0.2358 -0.4442 -0.4095
 5573TIP3   OH238209   6.798   5.676   0.534  0.1313  0.0146 -0.2727
 5573TIP3    H138210   6.755   5.714   0.457 -0.5562  2.1712  1.0861
 5573TIP3    H238211   6.726   5.642   0.588  0.2645  1.4781  0.8947
 5574TIP3   OH238212   2.976   2.204  14.515  0.2969  0.1824  0.4454
 5574TIP3    H138213   3.002   2.293  14.489  1.8297 -0.4721 -0.3769
 5574TIP3    H238214   3.012   2.148  14.446 -1.2925 -1.0341  0.5542
 5575TIP3   OH238215   4.494   6.297   0.870 -0.1162 -0.3396 -0.2857
 5575TIP3    H138216   4.504   6.363   0.938 -0.0073 -0.5658 -0.0782
 5575TIP3    H238217   4.471   6.217   0.918  0.7641 -0.6966 -0.4385
 5576TIP3   OH238218   0.825   2.989   3.637  0.1921 -0.3155  0.0718
 5576TIP3    H138219   0.837   3.070   3.687 -2.3424  0.4501 -0.4363
 5576TIP3    H238220   0.786   2.927   3.698 -4.5176  1.1382 -1.0740
 5577TIP3   OH238221   1.711   2.415   1.719 -0.2407 -0.3754  0.5858
 5577TIP3    H138222   1.794   2.399   1.674 -0.0346  1.2542  0.3407
 5577TIP3    H238223   1.644   2.395   1.655 -0.0289 -1.0618  0.5719
 5578TIP3   OH238224   4.435   5.100  16.282  0.4003  0.1126  0.2394
 5578TIP3    H138225   4.522   5.072  16.253  0.7727  0.6326  0.7968
 5578TIP3    H238226   4.454   5.161  16.354 -0.3186  2.1484 -1.1966
 5579TIP3   OH238227   4.788   1.813  14.422  0.3328  0.2925  0.3234
 5579TIP3    H138228   4.853   1.882  14.416 -1.2915  1.8026 -3.7290
 5579TIP3    H238229   4.793   1.768  14.337 -0.9820 -2.3957  1.5417
 5580TIP3   OH238230   3.566   3.321   1.197 -0.2760  0.6021 -0.1472
 5580TIP3    H138231   3.585   3.353   1.109 -0.1557  1.3348  0.1359
 5580TIP3    H238232   3.531   3.398   1.243  1.2354  0.6737  0.9339
 5581TIP3   OH238233   3.051   4.828  13.765 -0.3821  0.2478  0.2597
 5581TIP3    H138234   2.981   4.891  13.782 -0.3221  0.4292 -0.1581
 5581TIP3    H238235   3.127   4.881  13.742 -0.6476  0.0144 -1.2856
 5582TIP3   OH238236   2.936   1.075  12.133  0.2378  0.3830  0.5811
 5582TIP3    H138237   2.887   1.095  12.053  0.9940 -1.9013 -0.5358
 5582TIP3    H238238   3.028   1.073  12.105  0.6874  1.2141  1.9003
 5583TIP3   OH238239   0.711   3.803   3.336  0.5077 -0.5187  0.7794
 5583TIP3    H138240   0.738   3.885   3.293  0.3505 -0.4849  0.7438
 5583TIP3    H238241   0.791   3.751   3.340  0.1280 -1.3876 -1.4677
 5584TIP3   OH238242   5.597   4.663   4.228 -0.6939  0.0767  0.3716
 5584TIP3    H138243   5.579   4.651   4.134  1.4226 -0.1297 -0.0561
 5584TIP3    H238244   5.655   4.590   4.250 -2.2161 -0.6734  2.2219
 5585TIP3   OH238245   6.230   5.164  12.667 -0.1038 -0.2726  0.2132
 5585TIP3    H138246   6.276   5.177  12.750  0.3525 -2.7658  0.4248
 5585TIP3    H238247   6.298   5.131  12.608 -0.4402  1.3835 -1.1838
 5586TIP3   OH238248   6.378   6.825  17.054 -0.5004 -0.1602  0.4510
 5586TIP3    H138249   6.331   6.805  17.135  2.8153 -0.9630  2.3774
 5586TIP3    H238250   6.439   6.895  17.079 -0.3644  0.5960 -1.8008
 5587TIP3   OH238251   3.945   4.905  11.647  0.6420 -0.1989  0.0264
 5587TIP3    H138252   4.025   4.919  11.597  0.2531  0.8826 -0.3315
 5587TIP3    H238253   3.888   4.856  11.588  0.0619  1.3572 -0.7696
 5588TIP3   OH238254   6.326   0.279   4.203  0.1691 -0.3981  0.3042
 5588TIP3    H138255   6.309   0.259   4.110  3.1912  0.0495 -0.4455
 5588TIP3    H238256   6.392   0.348   4.201  0.0600 -0.1260  2.8415
 5589TIP3   OH238257   2.385   4.050  13.951 -0.1019  0.3690  0.4941
 5589TIP3    H138258   2.338   4.114  13.898  0.2363  0.1796 -0.0517
 5589TIP3    H238259   2.366   3.966  13.908  0.9699  0.3239  0.0702
 5590TIP3   OH238260   5.951   1.067   1.740  0.4528 -0.0042  0.1131
 5590TIP3    H138261   5.962   1.027   1.654 -0.3553 -0.0685  0.0321
 5590TIP3    H238262   5.862   1.042   1.767 -0.0943  1.7289  0.0453
 5591TIP3   OH238263   1.427   1.828  13.559  0.5912 -0.3770 -0.0933
 5591TIP3    H138264   1.409   1.906  13.611 -2.3709 -1.3631  0.5672
 5591TIP3    H238265   1.437   1.758  13.624 -1.3123 -1.2925 -0.7177
 5592TIP3   OH238266   5.570   1.986   3.077 -0.5562  0.2073 -0.0603
 5592TIP3    H138267   5.639   2.032   3.125 -1.5869  0.0899  1.5914
 5592TIP3    H238268   5.489   2.016   3.118 -1.5560  0.6910 -2.2491
 5593TIP3   OH238269   2.261   2.466  12.523  0.0450 -0.5974  0.1092
 5593TIP3    H138270   2.296   2.433  12.441  0.3535 -2.3768  0.9063
 5593TIP3    H238271   2.333   2.459  12.585 -0.3785  0.0562  0.6936
 5594TIP3   OH238272   1.136   2.762   5.226  0.0441  0.3912 -0.3652
 5594TIP3    H138273   1.204   2.829   5.221  0.3030  0.0994 -0.9242
 5594TIP3    H238274   1.163   2.704   5.297 -0.6581  1.3804  0.7402
 5595TIP3   OH238275   5.528   4.734  13.178  0.0586  0.0433  0.2464
 5595TIP3    H138276   5.572   4.819  13.184  0.3950 -0.0625 -0.6036
 5595TIP3    H238277   5.598   4.672  13.156 -0.3341 -0.3120 -0.0131
 5596TIP3   OH238278   0.492   6.700  14.967  0.0906 -0.2013 -0.7159
 5596TIP3    H138279   0.481   6.610  14.936 -0.2775 -0.4311  0.0614
 5596TIP3    H238280   0.461   6.754  14.894  0.8034 -0.6862 -1.3914
 5597TIP3   OH238281   4.123   3.028   4.896 -0.2952 -0.0659 -0.0570
 5597TIP3    H138282   4.149   2.936   4.890 -1.2968 -0.3017 -1.2365
 5597TIP3    H238283   4.174   3.072   4.827 -1.1872 -0.0971 -0.7560
 5598TIP3   OH238284   6.746   6.001  14.074  0.0518 -0.0761 -0.3725
 5598TIP3    H138285   6.798   5.925  14.100  0.8718  0.2507 -0.9994
 5598TIP3    H238286   6.787   6.075  14.119 -1.5983 -0.1579  1.3606
 5599TIP3   OH238287   5.690   5.324   5.411 -0.1664  0.0318 -0.2863
 5599TIP3    H138288   5.623   5.272   5.454  0.8336 -0.5985  0.5673
 5599TIP3    H238289   5.725   5.381   5.480 -0.1755  0.7294 -0.8388
 5600TIP3   OH238290   0.760   5.677   6.162 -0.4283 -0.1887 -0.2374
 5600TIP3    H138291   0.712   5.595   6.173 -0.8890  0.0181 -0.6510
 5600TIP3    H238292   0.850   5.655   6.184 -0.7301 -0.5572  0.6907
 5601TIP3   OH238293   0.751   3.815  12.417  0.6055  0.1380  0.1103
 5601TIP3    H138294   0.834   3.839  12.376  0.5098 -0.2254 -0.3096
 5601TIP3    H238295   0.705   3.898  12.427  1.0164  0.3418  0.3438
 5602TIP3   OH238296   4.934   6.185   3.163  0.5400 -0.0600 -0.1863
 5602TIP3    H138297   4.958   6.230   3.244 -1.1767  1.3499 -0.4040
 5602TIP3    H238298   4.984   6.230   3.095  0.5121  0.0363 -0.1431
 5603TIP3   OH238299   1.662   3.063   5.326  0.3341 -0.2857 -0.0169
 5603TIP3    H138300   1.692   2.983   5.368  0.8139  0.1266  0.4399
 5603TIP3    H238301   1.569   3.068   5.347  0.1427 -1.0717 -0.6254
 5604TIP3   OH238302   2.483   2.125  14.780  0.5580  0.2346  0.0123
 5604TIP3    H138303   2.421   2.170  14.723 -1.0393 -0.3813  1.1720
 5604TIP3    H238304   2.477   2.173  14.863  0.1856 -0.9706  0.7043
 5605TIP3   OH238305   4.121   5.922   2.829 -0.0815  0.2923 -0.2620
 5605TIP3    H138306   4.051   5.949   2.769  1.6423 -0.0818 -2.6125
 5605TIP3    H238307   4.191   5.985   2.813  0.0687  0.8370  2.2485
 5606TIP3   OH238308   5.887   3.122   0.107  0.1725  0.7802  0.0042
 5606TIP3    H138309   5.863   3.212   0.087  0.5546  0.4734 -2.0437
 5606TIP3    H238310   5.862   3.073   0.029 -1.2851 -1.1474  1.5820
 5607TIP3   OH238311   2.991   6.595  12.193 -0.3353  0.0729  0.5880
 5607TIP3    H138312   2.922   6.532  12.172 -0.0255  0.0288 -0.3302
 5607TIP3    H238313   3.070   6.557  12.156  0.1274  0.2884  1.3370
 5608TIP3   OH238314   4.920   1.251   1.983  0.3956 -0.2521 -0.0382
 5608TIP3    H138315   4.907   1.213   1.896  1.4971 -0.0194 -0.3224
 5608TIP3    H238316   4.945   1.342   1.966 -2.0946  0.6334  0.6269
 5609TIP3   OH238317   0.362   6.211   1.377  0.4029  0.6154  0.4200
 5609TIP3    H138318   0.394   6.295   1.410 -0.0779  1.0752 -0.2545
 5609TIP3    H238319   0.355   6.224   1.282 -4.3093  1.4709  0.6566
 5610TIP3   OH238320   1.494   5.730   1.828 -0.0447 -0.7552  0.0422
 5610TIP3    H138321   1.493   5.814   1.875 -0.1706 -1.0930  0.6625
 5610TIP3    H238322   1.466   5.752   1.739 -1.3106 -0.3146  0.5186
 5611TIP3   OH238323   2.851   0.991   5.103 -0.3525  0.0044  0.2775
 5611TIP3    H138324   2.824   0.903   5.075  0.6856 -0.2206 -0.0483
 5611TIP3    H238325   2.800   1.007   5.182 -0.9531 -0.6714  0.0405
 5612TIP3   OH238326   3.235   1.113  16.643 -0.2269 -0.0966 -0.4208
 5612TIP3    H138327   3.252   1.080  16.555 -2.1670  1.9291 -1.6245
 5612TIP3    H238328   3.140   1.118  16.650 -0.1393 -0.2500  1.8444
 5613TIP3   OH238329   2.492   2.768   5.461 -0.2619 -0.1147 -0.4303
 5613TIP3    H138330   2.453   2.807   5.383  0.3319 -0.8225 -1.1075
 5613TIP3    H238331   2.437   2.798   5.533 -1.7392 -0.6612 -1.2801
 5614TIP3   OH238332   3.226   4.326   0.279  0.3330  0.0351 -0.2001
 5614TIP3    H138333   3.222   4.255   0.343  1.0701 -1.3181 -1.5726
 5614TIP3    H238334   3.250   4.282   0.197  2.0338  2.0201 -0.8576
 5615TIP3   OH238335   5.559   3.478  12.384  0.0394  0.1774 -0.6659
 5615TIP3    H138336   5.611   3.523  12.317 -0.3086  1.2269 -0.2574
 5615TIP3    H238337   5.621   3.419  12.427  0.9419  1.4527 -0.1407
 5616TIP3   OH238338   6.202   1.581  10.230  0.7826  0.1862  0.1292
 5616TIP3    H138339   6.250   1.663  10.246 -2.1589  1.8213  1.5354
 5616TIP3    H238340   6.187   1.580  10.136 -0.6151  2.2885  0.2522
 5617TIP3   OH238341   4.320   5.246  14.093  0.0068 -0.2096 -0.0655
 5617TIP3    H138342   4.319   5.340  14.080  0.3744 -0.2582 -0.4596
 5617TIP3    H238343   4.402   5.217  14.054  0.6538 -0.4958  1.4744
 5618TIP3   OH238344   2.276   0.361  14.715 -0.1375 -0.0822 -0.1688
 5618TIP3    H138345   2.298   0.434  14.656 -0.6294 -1.2473 -1.8920
 5618TIP3    H238346   2.182   0.371  14.730 -0.5401 -1.2135 -1.7199
 5619TIP3   OH238347   4.288   2.880   1.244  0.1521 -0.3776 -0.4396
 5619TIP3    H138348   4.294   2.814   1.175  0.4003  0.1801 -0.9648
 5619TIP3    H238349   4.218   2.939   1.215 -0.2758 -0.5760  0.1736
 5620TIP3   OH238350   6.303   5.858  15.404 -0.0636  0.1861  0.1911
 5620TIP3    H138351   6.346   5.777  15.376  0.4738  0.3773  0.4490
 5620TIP3    H238352   6.257   5.890  15.326  0.6433  0.2220 -0.2135
 5621TIP3   OH238353   3.756   4.862   2.384 -0.4081 -1.0714  0.1742
 5621TIP3    H138354   3.727   4.951   2.401 -0.9446 -0.9062 -1.4425
 5621TIP3    H238355   3.852   4.865   2.390 -0.5253 -1.0737  3.0763
 5622TIP3   OH238356   1.022   5.260   5.500 -0.4556 -0.0929 -0.1175
 5622TIP3    H138357   1.047   5.335   5.554  0.7694 -0.2903 -0.3743
 5622TIP3    H238358   1.101   5.240   5.450 -0.2399 -2.5167  1.0567
 5623TIP3   OH238359   4.967   6.250   1.932  0.0526 -0.4171  0.4392
 5623TIP3    H138360   4.879   6.283   1.914 -0.7705 -2.5501  0.2664
 5623TIP3    H238361   5.023   6.293   1.867 -1.1591 -0.3848 -0.6191
 5624TIP3   OH238362   4.350   0.123   1.985 -0.1380 -0.8591 -0.2917
 5624TIP3    H138363   4.371   0.033   1.958  0.0189 -0.5617 -1.1715
 5624TIP3    H238364   4.342   0.171   1.903 -0.0292 -0.0189  0.1872
 5625TIP3   OH238365   3.449   5.723  11.075  0.3792 -0.1428 -0.1234
 5625TIP3    H138366   3.401   5.793  11.031 -0.6458 -1.1534 -0.6568
 5625TIP3    H238367   3.521   5.702  11.015  0.7283  0.4713  0.0666
 5626TIP3   OH238368   3.386   1.575  15.346 -0.8727  0.0274 -0.2922
 5626TIP3    H138369   3.424   1.553  15.261 -1.6412 -0.5669 -0.4974
 5626TIP3    H238370   3.368   1.490  15.387 -2.0193  0.2821 -0.2284
 5627TIP3   OH238371   1.303   2.921   0.897  0.3158 -0.6885 -0.3774
 5627TIP3    H138372   1.223   2.935   0.847  0.8075 -0.1521 -1.0229
 5627TIP3    H238373   1.281   2.949   0.986 -0.0567 -0.0514 -0.6659
 5628TIP3   OH238374   6.043   2.284  10.221 -0.1665  0.1542  0.2769
 5628TIP3    H138375   6.029   2.216  10.286 -1.1521 -0.6758 -0.7732
 5628TIP3    H238376   5.957   2.324  10.208  0.0234  0.3572 -0.4552
 5629TIP3   OH238377   3.979   2.892   2.941  0.1523  0.0644 -0.3851
 5629TIP3    H138378   4.060   2.907   2.990 -0.2591 -1.7262  0.8920
 5629TIP3    H238379   3.909   2.900   3.006 -0.6716  0.7533 -1.3168
 5630TIP3   OH238380   3.427   5.830  12.642  0.1345 -0.5040  0.1320
 5630TIP3    H138381   3.466   5.753  12.601  1.0803  0.1290 -0.1789
 5630TIP3    H238382   3.339   5.801  12.668  0.0041 -1.3104 -1.1172
 5631TIP3   OH238383   3.737   0.293  15.570 -0.1312 -0.3515 -0.2239
 5631TIP3    H138384   3.722   0.245  15.489 -0.2543  0.3243 -0.6027
 5631TIP3    H238385   3.831   0.313  15.569 -0.3123  0.5260 -0.6925
 5632TIP3   OH238386   1.076   0.752  11.939  0.0916  0.1734 -0.7833
 5632TIP3    H138387   1.061   0.832  11.989  0.2122 -0.0346 -0.4123
 5632TIP3    H238388   1.133   0.779  11.867  0.9794  0.2258 -0.0795
 5633TIP3   OH238389   5.567   1.825  16.456 -0.4971  0.1709 -0.2460
 5633TIP3    H138390   5.590   1.915  16.432  0.1454 -0.1959 -1.0513
 5633TIP3    H238391   5.647   1.789  16.493 -0.5093 -0.3180 -0.6851
 5634TIP3   OH238392   2.118   5.772   1.176 -0.5090 -0.2298 -0.7300
 5634TIP3    H138393   2.111   5.683   1.208 -0.9369  0.2167  0.4718
 5634TIP3    H238394   2.209   5.797   1.194 -0.4428 -0.3545 -0.8893
 5635TIP3   OH238395   2.140   0.610  15.805 -0.0851 -0.0247  0.9069
 5635TIP3    H138396   2.171   0.523  15.779 -1.0603 -0.6915  1.9170
 5635TIP3    H238397   2.169   0.620  15.896 -0.0670  0.6802  0.8338
 5636TIP3   OH238398   6.800   6.821   1.999 -0.0152  0.1637 -0.5621
 5636TIP3    H138399   6.751   6.889   2.045  0.9605 -0.3354  1.2867
 5636TIP3    H238400   6.877   6.806   2.053 -0.1152 -2.3097 -1.0104
 5637TIP3   OH238401   5.213   5.890   2.187 -0.1734 -0.4364  0.6491
 5637TIP3    H138402   5.194   5.969   2.135 -1.6205 -0.6805  0.7725
 5637TIP3    H238403   5.247   5.827   2.123 -0.2012 -0.1239  0.3201
 5638TIP3   OH238404   3.743   3.323  14.331  0.0977  0.8764  0.9301
 5638TIP3    H138405   3.716   3.285  14.248 -1.3395  1.4857  1.0867
 5638TIP3    H238406   3.825   3.369  14.311 -1.5662  3.2983 -0.8463
 5639TIP3   OH238407   0.503   3.703  14.829 -0.6638  0.0236 -1.0495
 5639TIP3    H138408   0.558   3.708  14.908  0.3354 -1.2806 -1.6156
 5639TIP3    H238409   0.508   3.790  14.790  0.6654  0.0538 -0.8433
 5640TIP3   OH238410   4.008   3.885   1.496 -0.2217 -0.2300 -0.9704
 5640TIP3    H138411   3.937   3.822   1.505  1.3842 -1.7737  3.1473
 5640TIP3    H238412   3.974   3.966   1.534  0.5050 -1.4564  2.7146
 5641TIP3   OH238413   1.350   0.163   4.465  0.4048  0.0431  0.3784
 5641TIP3    H138414   1.402   0.238   4.436 -1.1364  0.8854 -0.3801
 5641TIP3    H238415   1.400   0.087   4.436  2.2996  0.7176  1.6875
 5642TIP3   OH238416   3.316   5.092   4.854 -0.3107 -0.0823  0.4676
 5642TIP3    H138417   3.228   5.085   4.815 -0.7079  1.6384  0.9497
 5642TIP3    H238418   3.343   5.002   4.869 -2.5796 -0.6710  1.5363
 5643TIP3   OH238419   5.212   0.015   3.446 -0.2460  0.5714 -0.5077
 5643TIP3    H138420   5.253   0.001   3.532  0.1311  0.9463 -0.6232
 5643TIP3    H238421   5.256   0.092   3.411 -2.2225  2.0333  0.0835
 5644TIP3   OH238422   6.500   0.968   0.095  0.0401  0.0408 -0.5955
 5644TIP3    H138423   6.539   0.949   0.180  0.5471 -0.6788 -0.9789
 5644TIP3    H238424   6.543   1.048   0.065 -0.6210  0.6802  0.1082
 5645TIP3   OH238425   0.652   4.357  13.254  0.7102  0.2723  0.1055
 5645TIP3    H138426   0.723   4.309  13.297  0.1072 -1.2789 -0.5282
 5645TIP3    H238427   0.672   4.349  13.160 -0.7940 -1.0982 -0.1426
 5646TIP3   OH238428   3.423   5.462   0.212 -0.2630  0.2169  0.0437
 5646TIP3    H138429   3.478   5.513   0.271 -0.7813  0.4614  0.3266
 5646TIP3    H238430   3.343   5.514   0.202 -0.8818 -0.6142  0.4888
 5647TIP3   OH238431   6.090   0.287   2.644  0.0463  0.4826  0.0653
 5647TIP3    H138432   5.997   0.292   2.620  0.4413  2.3803 -1.3115
 5647TIP3    H238433   6.128   0.226   2.580 -0.2026 -0.2275  0.5756
 5648TIP3   OH238434   4.646   5.205  14.437 -0.7362  0.3218 -0.0777
 5648TIP3    H138435   4.552   5.191  14.430 -0.7700 -1.0839  2.0945
 5648TIP3    H238436   4.681   5.120  14.466  1.3519  0.5413 -1.6826
 5649TIP3   OH238437   3.642   0.785   2.228 -0.1073 -0.4490  0.4621
 5649TIP3    H138438   3.689   0.737   2.160  0.1188 -0.8761  0.9111
 5649TIP3    H238439   3.654   0.732   2.307 -2.8750 -1.5487  0.2473
 5650TIP3   OH238440   5.611   3.117   5.841  0.4797  0.4267 -0.1930
 5650TIP3    H138441   5.655   3.038   5.875 -1.0943 -1.0396 -1.4232
 5650TIP3    H238442   5.569   3.155   5.918  1.0073 -0.1047  0.3740
 5651TIP3   OH238443   3.170   3.524   4.829  0.1349 -0.2385  0.2659
 5651TIP3    H138444   3.124   3.569   4.900 -0.0532  0.4066 -0.2646
 5651TIP3    H238445   3.124   3.550   4.750  1.4957  0.5522 -0.2937
 5652TIP3   OH238446   2.119   4.943   5.699 -0.6348  0.0912 -0.4972
 5652TIP3    H138447   2.129   4.991   5.782 -0.0661 -0.6893 -0.1073
 5652TIP3    H238448   2.151   5.005   5.633  1.4125 -0.2032  0.1351
 5653TIP3   OH238449   0.967   6.149  16.796  0.3835 -0.3398  0.7463
 5653TIP3    H138450   0.885   6.180  16.835  0.9830  1.0678  0.9445
 5653TIP3    H238451   0.955   6.055  16.787 -1.9665  0.0391 -0.8973
 5654TIP3   OH238452   6.434   3.805  12.604  0.2887  0.6320 -0.4244
 5654TIP3    H138453   6.441   3.757  12.522 -2.8471  1.5027 -1.3657
 5654TIP3    H238454   6.367   3.759  12.654  2.2279  0.0300  1.8169
 5655TIP3   OH238455   4.895   5.794  11.688  0.2662  0.3889  0.2716
 5655TIP3    H138456   4.979   5.783  11.644  0.1511 -0.6047  0.2718
 5655TIP3    H238457   4.849   5.860  11.636 -0.6455 -2.0888 -2.2935
 5656TIP3   OH238458   4.390   0.850  16.842  0.0155  0.3439  0.1625
 5656TIP3    H138459   4.366   0.777  16.785  1.5029  0.9219 -1.2651
 5656TIP3    H238460   4.480   0.831  16.869 -0.8433 -0.2655  2.9582
 5657TIP3   OH238461   0.909   4.649   5.928 -0.4384 -0.7012 -0.0515
 5657TIP3    H138462   0.983   4.696   5.964 -0.0957  0.1028 -1.7297
 5657TIP3    H238463   0.944   4.564   5.902 -0.0353 -0.2574 -1.0035
 5658TIP3   OH238464   5.917   2.064   0.216 -0.8951  0.0920 -0.1262
 5658TIP3    H138465   5.845   2.017   0.258 -0.0307 -0.9661  0.2342
 5658TIP3    H238466   5.939   2.134   0.276  0.7069 -1.7396  1.5783
 5659TIP3   OH238467   6.155   4.464  17.049 -0.0866 -0.2812 -0.3374
 5659TIP3    H138468   6.178   4.372  17.045  0.1943 -0.2231 -0.0865
 5659TIP3    H238469   6.233   4.510  17.017 -0.2006 -0.1274 -0.3968
 5660TIP3   OH238470   4.341   4.368   3.794  0.0010  0.1065  0.0454
 5660TIP3    H138471   4.408   4.434   3.810  0.4755 -0.7010  1.6925
 5660TIP3    H238472   4.313   4.341   3.882 -1.3900 -0.6669 -0.6061
 5661TIP3   OH238473   0.215   1.192   4.223  0.1982  0.1111  0.3123
 5661TIP3    H138474   0.217   1.285   4.198  0.4777  0.0251  0.0181
 5661TIP3    H238475   0.216   1.145   4.140  1.3121 -0.1811  0.4783
 5662TIP3   OH238476   4.625   3.374   2.134  0.0941 -0.5060  0.2626
 5662TIP3    H138477   4.573   3.296   2.154 -0.9575  0.1075 -0.0268
 5662TIP3    H238478   4.598   3.439   2.199 -1.6310  0.7393 -1.5882
 5663TIP3   OH238479   3.903   0.712   4.568  0.2344  0.3003 -0.2788
 5663TIP3    H138480   3.941   0.799   4.552  1.3614 -0.2543 -0.7358
 5663TIP3    H238481   3.921   0.663   4.487  0.7372 -0.7467  0.4523
 5664TIP3   OH238482   5.595   2.176   2.623 -0.2134  0.1370 -0.3898
 5664TIP3    H138483   5.556   2.228   2.553 -1.2319  0.9538  0.7290
 5664TIP3    H238484   5.523   2.162   2.685  0.2666 -1.8502 -0.2070
 5665TIP3   OH238485   1.052   1.580  13.704 -0.3235  0.0545  0.3229
 5665TIP3    H138486   1.081   1.672  13.709 -1.1990  0.2706  1.8683
 5665TIP3    H238487   0.966   1.580  13.746 -0.8115 -1.2997 -0.6297
 5666TIP3   OH238488   1.085   6.413   1.106  0.1087 -0.7110 -0.2863
 5666TIP3    H138489   1.037   6.495   1.114  1.1541 -0.2049  1.5157
 5666TIP3    H238490   1.018   6.345   1.100 -0.8229  0.0471  1.1510
 5667TIP3   OH238491   4.317   6.246  11.407  0.3794 -0.1597  0.2482
 5667TIP3    H138492   4.242   6.241  11.348 -0.8069  0.1544  1.7051
 5667TIP3    H238493   4.378   6.306  11.363 -0.7655  0.5825 -0.3588
 5668TIP3   OH238494   1.189   0.873  11.257 -0.2348  0.2604 -0.2404
 5668TIP3    H138495   1.163   0.886  11.166 -0.4571 -0.2957 -0.2590
 5668TIP3    H238496   1.120   0.818  11.295  0.2638 -0.1805  0.0489
 5669TIP3   OH238497   1.099   3.360   3.072 -0.5639  1.0431  0.8902
 5669TIP3    H138498   1.122   3.267   3.076  3.5825  1.8153 -0.4441
 5669TIP3    H238499   1.141   3.398   3.149 -0.3265  2.1219  0.2463
 5670TIP3   OH238500   5.957   0.814  11.937 -0.3479 -0.7374 -0.0174
 5670TIP3    H138501   5.872   0.783  11.970 -0.7589  0.7821  0.4407
 5670TIP3    H238502   6.009   0.830  12.016 -0.7196  1.2255 -0.1124
 5671TIP3   OH238503   0.388   5.790   3.521 -0.4451 -0.1276  0.0213
 5671TIP3    H138504   0.383   5.880   3.554  0.1254 -0.4087  0.9320
 5671TIP3    H238505   0.324   5.742   3.574 -0.4409 -0.3406 -0.1674
 5672TIP3   OH238506   5.943   2.669   4.372 -0.1668 -0.5142  0.4549
 5672TIP3    H138507   5.961   2.649   4.280 -1.3110  1.1838 -0.1798
 5672TIP3    H238508   6.023   2.642   4.418  0.1233 -2.1406 -0.8910
 5673TIP3   OH238509   5.980   1.449   0.408  0.5117  0.1530 -0.3616
 5673TIP3    H138510   5.976   1.544   0.399  1.3290  0.2741  0.3475
 5673TIP3    H238511   5.899   1.426   0.453 -0.0581  0.4153 -1.2398
 5674TIP3   OH238512   3.865   2.782  16.572  0.5601  0.0855  0.0213
 5674TIP3    H138513   3.940   2.736  16.609  0.1846 -0.7999 -0.2946
 5674TIP3    H238514   3.900   2.866  16.544  1.3603 -0.1827  0.1915
 5675TIP3   OH238515   3.379   4.652   3.038 -0.1243 -0.0848 -0.2252
 5675TIP3    H138516   3.414   4.565   3.053 -1.6459 -0.6957  0.0229
 5675TIP3    H238517   3.376   4.661   2.942  1.6703  0.4230 -0.2584
 5676TIP3   OH238518   3.100   2.159  14.002 -0.1852 -0.7384  0.0065
 5676TIP3    H138519   3.115   2.084  13.944  0.8401  0.0985 -0.8456
 5676TIP3    H238520   3.053   2.222  13.947  0.6429 -0.0035  0.1314
 5677TIP3   OH238521   0.520   3.689   3.085 -0.0486 -0.0193  0.4232
 5677TIP3    H138522   0.445   3.636   3.057 -0.1798  0.1720  0.4156
 5677TIP3    H238523   0.562   3.636   3.153  0.7445 -0.8721 -0.6759
 5678TIP3   OH238524   5.828   5.075  14.499  0.4442  0.1720 -0.1358
 5678TIP3    H138525   5.749   5.060  14.447  0.4941  2.2176 -0.9101
 5678TIP3    H238526   5.816   5.163  14.536  1.9901  0.1907  0.3978
 5679TIP3   OH238527   4.216   0.085  13.088  0.7256  0.0222 -0.4987
 5679TIP3    H138528   4.303   0.125  13.090  0.9366 -0.3155 -1.8529
 5679TIP3    H238529   4.217   0.030  13.010 -1.6008  2.0848 -2.1152
 5680TIP3   OH238530   0.598   0.239  14.652  0.2664  0.0133  0.0035
 5680TIP3    H138531   0.618   0.250  14.559 -1.2939  0.2439 -0.3360
 5680TIP3    H238532   0.682   0.249  14.696  1.3529 -1.8894 -1.4984
 5681TIP3   OH238533   5.822   6.378  16.102  0.3208  0.1045  0.2564
 5681TIP3    H138534   5.816   6.473  16.093  0.1347  0.2217  1.3718
 5681TIP3    H238535   5.869   6.365  16.184 -0.8094 -0.7402  0.8148
 5682TIP3   OH238536   0.382   2.715   4.942 -0.0874 -0.2242 -0.2455
 5682TIP3    H138537   0.434   2.796   4.941 -1.1676  0.4923 -0.3155
 5682TIP3    H238538   0.291   2.745   4.940 -0.5366 -1.4437 -3.0746
 5683TIP3   OH238539   6.304   1.460   3.338  0.4965  0.4075 -0.4298
 5683TIP3    H138540   6.369   1.464   3.267 -0.8126 -0.4085 -1.7438
 5683TIP3    H238541   6.251   1.383   3.317  1.4104 -1.2252  2.7086
 5684TIP3   OH238542   4.323   0.259  12.436 -0.0614  0.6200  0.3967
 5684TIP3    H138543   4.362   0.173  12.452 -2.0172 -0.3443  0.3384
 5684TIP3    H238544   4.396   0.315  12.412  1.1522 -1.2790 -0.5592
 5685TIP3   OH238545   5.546   0.995   3.161 -0.9202  0.2627  0.4427
 5685TIP3    H138546   5.528   1.089   3.159 -0.3134  0.5114  2.8153
 5685TIP3    H238547   5.637   0.987   3.135 -1.3548  0.1454 -1.1310
 5686TIP3   OH238548   3.751   4.871  12.677  0.3623 -0.2666  0.1451
 5686TIP3    H138549   3.686   4.937  12.654  0.7551  0.1757  0.2912
 5686TIP3    H238550   3.700   4.795  12.703 -0.1287  0.4706  1.4472
 5687TIP3   OH238551   5.877   0.214  15.695 -0.0664  0.1945 -0.0769
 5687TIP3    H138552   5.795   0.188  15.653  0.5000 -0.3567 -0.8723
 5687TIP3    H238553   5.945   0.180  15.637  0.7778 -1.3507  1.6924
 5688TIP3   OH238554   6.778   6.036   3.400  0.1968  0.1185 -0.8056
 5688TIP3    H138555   6.703   5.985   3.431  0.3033  0.8013  0.6348
 5688TIP3    H238556   6.789   6.105   3.465  2.0025  0.1244 -1.0802
 5689TIP3   OH238557   4.600   0.518  16.640 -0.4130 -1.2390  0.1733
 5689TIP3    H138558   4.591   0.611  16.622  0.6180 -1.4760 -1.7901
 5689TIP3    H238559   4.684   0.510  16.686 -1.3584 -1.0459  2.0404
 5690TIP3   OH238560   3.394   3.998   0.115 -0.6603 -0.1049 -0.6286
 5690TIP3    H138561   3.348   4.048   0.048 -0.6008 -0.6909 -1.1098
 5690TIP3    H238562   3.349   4.021   0.197  0.4669  2.0876 -0.5511
 5691TIP3   OH238563   4.834   6.644  13.980  0.8263 -0.0080 -0.0486
 5691TIP3    H138564   4.857   6.661  14.071  0.1186  1.3044 -0.0950
 5691TIP3    H238565   4.882   6.564  13.957  1.3585 -0.0970  1.3291
 5692TIP3   OH238566   1.842   2.992  15.926 -0.1922  0.3093 -0.4662
 5692TIP3    H138567   1.891   3.042  15.992 -2.0846 -2.3882  3.3798
 5692TIP3    H238568   1.761   3.042  15.915  0.5545  1.3241 -1.7526
 5693TIP3   OH238569   2.461   3.912   2.738 -0.1394 -0.0605 -0.0164
 5693TIP3    H138570   2.374   3.943   2.713  0.3918  0.4691 -1.3387
 5693TIP3    H238571   2.462   3.914   2.833 -1.8723 -0.9582  0.0450
 5694TIP3   OH238572   4.249   1.091  13.663 -0.0480 -0.4982 -0.0539
 5694TIP3    H138573   4.194   1.027  13.618 -0.9515 -0.3976  0.8643
 5694TIP3    H238574   4.309   1.038  13.716 -1.6780 -0.6426  1.7547
 5695TIP3   OH238575   4.438   5.947  13.059 -0.4255  0.5527 -0.2746
 5695TIP3    H138576   4.443   5.873  12.999 -2.7695  0.1497 -0.0684
 5695TIP3    H238577   4.432   6.024  13.002  1.5875  0.5974 -0.4895
 5696TIP3   OH238578   4.944   4.855   3.447  0.2869 -0.3501 -0.1691
 5696TIP3    H138579   4.946   4.784   3.512  1.6451 -1.1089 -1.0032
 5696TIP3    H238580   4.916   4.813   3.366 -0.8465  0.4858 -0.2461
 5697TIP3   OH238581   5.447   4.452   4.561  0.1004  0.1103  0.2061
 5697TIP3    H138582   5.530   4.485   4.595 -0.5837 -2.1583  4.8590
 5697TIP3    H238583   5.459   4.358   4.555 -1.5069 -0.0626 -1.3212
 5698TIP3   OH238584   1.649   2.525  14.180 -0.6793  0.2341 -0.1444
 5698TIP3    H138585   1.632   2.501  14.089  1.4549  0.0104 -0.5224
 5698TIP3    H238586   1.737   2.493  14.198 -1.3110 -0.3771  2.2503
 5699TIP3   OH238587   4.622   1.393   0.612 -0.0014  0.1890  0.1014
 5699TIP3    H138588   4.583   1.417   0.528  1.3958 -0.2303 -0.6909
 5699TIP3    H238589   4.593   1.303   0.627 -1.6167  0.8124  0.9114
 5700TIP3   OH238590   0.381   2.438  12.668 -0.1123  0.3103  0.0433
 5700TIP3    H138591   0.442   2.369  12.643  0.7327  0.8360  0.6149
 5700TIP3    H238592   0.300   2.417  12.622  0.7561  0.0759 -1.4257
 5701TIP3   OH238593   3.116   4.323  15.599 -0.4971  0.2343 -0.3050
 5701TIP3    H138594   3.203   4.362  15.598 -0.3656  0.0429  1.0957
 5701TIP3    H238595   3.131   4.230  15.616 -0.9288 -0.0143 -1.2042
 5702TIP3   OH238596   4.082   3.866  17.072 -0.0231 -0.3078  1.2062
 5702TIP3    H138597   3.996   3.840  17.105 -1.3054  0.6720 -1.1715
 5702TIP3    H238598   4.143   3.838  17.141 -2.0277 -2.5792  2.1963
 5703TIP3   OH238599   0.043   0.268  12.806 -0.2166  0.2728 -0.4707
 5703TIP3    H138600   0.127   0.237  12.840 -0.6934 -0.8664 -0.2919
 5703TIP3    H238601   0.066   0.344  12.753  0.8819  0.2370 -0.0830
 5704TIP3   OH238602   3.368   2.462   3.078  0.1320  0.1045  0.0779
 5704TIP3    H138603   3.344   2.370   3.082 -1.2605  0.4531  0.1803
 5704TIP3    H238604   3.436   2.472   3.145 -2.7104 -0.0283  3.2595
 5705TIP3   OH238605   4.766   5.334  16.312  0.6547  0.3334 -0.0306
 5705TIP3    H138606   4.695   5.333  16.377 -0.6703  1.8104 -1.3489
 5705TIP3    H238607   4.720   5.331  16.228  2.0997  2.2084 -0.9422
 5706TIP3   OH238608   0.454   5.598   0.445 -0.3807  0.2112  0.0446
 5706TIP3    H138609   0.544   5.618   0.421 -0.2384  1.4721  1.4531
 5706TIP3    H238610   0.443   5.506   0.425  1.2027  0.0646 -0.2285
 5707TIP3   OH238611   2.646   4.359  13.409  0.2055 -0.1196  0.3576
 5707TIP3    H138612   2.681   4.303  13.480  0.3395  0.5799  0.8542
 5707TIP3    H238613   2.613   4.436  13.454  1.7013  1.0543 -0.4524
 5708TIP3   OH238614   0.736   3.329   0.482  0.0971 -0.6943  0.3135
 5708TIP3    H138615   0.810   3.270   0.499  0.7192 -0.1501 -0.4137
 5708TIP3    H238616   0.754   3.366   0.396 -1.8591 -1.7506 -0.6135
 5709TIP3   OH238617   2.258   3.241   3.562 -0.2079 -0.1372 -0.4560
 5709TIP3    H138618   2.281   3.164   3.614 -0.0435  0.6570  0.6614
 5709TIP3    H238619   2.330   3.302   3.575 -1.2726  0.9963  0.2845
 5710TIP3   OH238620   0.148   6.588  14.857  0.0195 -0.1320 -0.1026
 5710TIP3    H138621   0.154   6.672  14.902 -0.6603  1.3918 -2.6331
 5710TIP3    H238622   0.054   6.579  14.837  0.0474 -1.6369  0.3231
 5711TIP3   OH238623   4.448   4.840  15.174 -0.1550 -0.0157  0.7238
 5711TIP3    H138624   4.459   4.830  15.268 -0.9771  1.4737  1.0087
 5711TIP3    H238625   4.394   4.765  15.148  2.5340 -2.1613  0.8418
 5712TIP3   OH238626   5.998   3.903  13.961 -0.2378  0.0813 -0.5567
 5712TIP3    H138627   5.918   3.861  13.928 -1.1831  0.0179  1.6677
 5712TIP3    H238628   6.067   3.837  13.948 -0.7900 -0.3802 -1.2526
 5713TIP3   OH238629   0.698   4.963  15.452 -0.5155  0.3467  0.3354
 5713TIP3    H138630   0.776   4.913  15.428 -1.1899  0.2102 -1.8701
 5713TIP3    H238631   0.729   5.053  15.463  0.0663  0.1744  0.1436
 5714TIP3   OH238632   0.406   0.264  16.487  0.6282 -0.0936 -0.9007
 5714TIP3    H138633   0.331   0.313  16.453  0.3101  0.4142  0.4713
 5714TIP3    H238634   0.479   0.326  16.483  0.4929  0.1160 -0.2905
 5715TIP3   OH238635   3.886   3.407  11.703  0.1549 -0.0439 -0.4367
 5715TIP3    H138636   3.967   3.449  11.730  0.2124 -1.1935  1.3362
 5715TIP3    H238637   3.887   3.412  11.608  0.9937  2.3362 -0.3847
 5716TIP3   OH238638   6.391   3.469   0.491  0.9531 -0.0337 -0.6445
 5716TIP3    H138639   6.476   3.432   0.513  1.1641  0.3340 -0.8222
 5716TIP3    H238640   6.386   3.550   0.542 -0.3038 -1.2164  1.2148
 5717TIP3   OH238641   3.651   6.840  13.811 -0.5175  0.4999 -0.3468
 5717TIP3    H138642   3.579   6.792  13.769 -0.3893  0.7199 -0.8296
 5717TIP3    H238643   3.615   6.870  13.894 -0.7434 -0.0452 -0.2471
 5718TIP3   OH238644   4.024   3.957  11.248  0.6382  0.8216 -0.1804
 5718TIP3    H138645   3.930   3.947  11.232  0.5533  1.2721  0.0101
 5718TIP3    H238646   4.029   4.021  11.319  1.1278  1.4977 -0.8243
 5719TIP3   OH238647   1.268   2.685   5.531  0.3221  0.5343 -0.1679
 5719TIP3    H138648   1.338   2.676   5.465 -0.6164  0.1733 -1.1479
 5719TIP3    H238649   1.312   2.721   5.608  1.3530  1.5934 -1.2037
 5720TIP3   OH238650   5.023   4.400   1.186  0.1026  0.0163  0.3202
 5720TIP3    H138651   5.008   4.387   1.092  4.5108  0.5968 -0.6905
 5720TIP3    H238652   5.014   4.312   1.223 -0.3278 -0.4877 -0.9034
 5721TIP3   OH238653   2.884   4.584   3.329 -0.6294  0.5586 -0.4095
 5721TIP3    H138654   2.919   4.554   3.245 -1.6581 -0.4341 -0.5059
 5721TIP3    H238655   2.856   4.674   3.312 -2.8965 -0.3100 -1.8336
 5722TIP3   OH238656   0.000   1.535   5.377 -0.5544  0.1972  0.1632
 5722TIP3    H138657  -0.028   1.525   5.468 -0.6792 -0.4266  0.0638
 5722TIP3    H238658   0.002   1.629   5.362 -0.5554  0.3021  0.8057
 5723TIP3   OH238659   2.699   2.146   6.494 -0.5196  0.6426  0.6580
 5723TIP3    H138660   2.610   2.140   6.458 -0.2672 -1.2584  0.2391
 5723TIP3    H238661   2.750   2.084   6.442  0.7991  0.8407  1.6573
 5724TIP3   OH238662   5.951   3.168  14.571  0.4396  0.4287  0.2237
 5724TIP3    H138663   5.947   3.235  14.639 -1.4114  0.5734  0.0110
 5724TIP3    H238664   5.982   3.090  14.617  0.3142  0.8140  0.9839
 5725TIP3   OH238665   0.496   6.374   4.333 -0.1149  0.2047 -0.2969
 5725TIP3    H138666   0.586   6.342   4.324 -0.4842 -1.2901  0.8913
 5725TIP3    H238667   0.500   6.443   4.398 -0.3269 -2.7475  3.1665
 5726TIP3   OH238668   3.437   0.230  17.096  0.2574 -0.2878  0.0161
 5726TIP3    H138669   3.414   0.280  17.018 -0.5111 -1.8110 -0.7830
 5726TIP3    H238670   3.530   0.245  17.109  0.3807  0.0068 -1.1726
 5727TIP3   OH238671   4.221   3.930  12.174 -1.2803  0.5231  0.5765
 5727TIP3    H138672   4.275   3.956  12.100 -0.7730  1.3007  1.2060
 5727TIP3    H238673   4.279   3.878  12.230 -1.4779  0.4920  0.7551
 5728TIP3   OH238674   5.681   0.435   3.843 -0.0106 -0.4921 -0.1698
 5728TIP3    H138675   5.698   0.441   3.937  0.1476  0.0701 -0.2280
 5728TIP3    H238676   5.758   0.474   3.802 -1.8636  3.4367 -0.3996
 5729TIP3   OH238677   6.560   6.194  14.920  0.0644 -0.3295  0.2698
 5729TIP3    H138678   6.508   6.270  14.893 -1.1985 -1.0826  0.4998
 5729TIP3    H238679   6.505   6.149  14.983  0.9134 -1.2985  0.3369
 5730TIP3   OH238680   1.971   0.945   3.993 -0.3789 -0.3631  0.0248
 5730TIP3    H138681   1.895   1.001   3.975 -0.1032 -0.1505 -0.5089
 5730TIP3    H238682   2.004   0.976   4.078 -1.6375 -1.3096  0.8833
 5731TIP3   OH238683   0.122   1.199   2.062  0.1017  0.3671 -0.1269
 5731TIP3    H138684   0.074   1.115   2.066  1.4056 -0.3718  0.4853
 5731TIP3    H238685   0.100   1.243   2.144 -0.2120  0.4268 -0.2400
 5732TIP3   OH238686   0.583   5.272  12.609 -0.5806  0.1925  0.7757
 5732TIP3    H138687   0.668   5.293  12.648 -0.3254 -0.9942  0.8673
 5732TIP3    H238688   0.601   5.201  12.548 -1.4394  0.2358  0.4614
 5733TIP3   OH238689   4.428   0.734   4.628  0.6154 -0.3677 -0.0888
 5733TIP3    H138690   4.401   0.669   4.563 -0.3118  1.1577 -1.3132
 5733TIP3    H238691   4.395   0.700   4.711 -1.0216 -0.8372 -0.8913
 5734TIP3   OH238692   2.768   1.481  12.189 -0.5291 -0.6909 -0.1629
 5734TIP3    H138693   2.718   1.506  12.266 -1.1469 -1.8971 -0.1413
 5734TIP3    H238694   2.776   1.386  12.196 -1.6532 -0.9923 -2.1932
 5735TIP3   OH238695   2.021   4.394   6.551 -0.1447  0.7146  0.3659
 5735TIP3    H138696   2.089   4.357   6.607 -1.3342 -0.7821  0.8948
 5735TIP3    H238697   2.049   4.485   6.536  1.4397  0.4386  1.3624
 5736TIP3   OH238698   3.764   6.067  14.710  0.6019  0.1207  0.0538
 5736TIP3    H138699   3.730   6.109  14.631  0.2767 -1.1745 -0.5220
 5736TIP3    H238700   3.690   6.065  14.771 -0.1332 -1.7486 -0.8163
 5737TIP3   OH238701   2.786   3.423   2.822  0.1562 -0.1079  0.1931
 5737TIP3    H138702   2.848   3.421   2.895  0.1037 -2.3882  0.2260
 5737TIP3    H238703   2.746   3.510   2.827  0.1854 -0.1855  2.8575
 5738TIP3   OH238704   4.614   1.279  15.446 -0.3936  0.2953  0.0873
 5738TIP3    H138705   4.567   1.237  15.518  0.1669  0.9587  0.8642
 5738TIP3    H238706   4.595   1.372  15.457  1.0359  0.5713  0.3866
 5739TIP3   OH238707   5.330   3.720  15.979 -0.0764 -0.1053 -0.4186
 5739TIP3    H138708   5.305   3.811  15.966  3.3083  0.9386 -0.5511
 5739TIP3    H238709   5.415   3.712  15.936  0.0440 -3.1664  0.1684
 5740TIP3   OH238710   0.221   4.009   0.788  0.7495 -0.4728  0.1445
 5740TIP3    H138711   0.216   3.918   0.759  1.7637  0.1901 -2.3869
 5740TIP3    H238712   0.205   4.005   0.883 -1.1086 -3.0402 -0.1669
 5741TIP3   OH238713   1.003   6.419  12.584  0.2756  0.1318 -0.2404
 5741TIP3    H138714   0.908   6.432  12.589  0.2207 -0.1319 -0.5790
 5741TIP3    H238715   1.034   6.436  12.673 -0.1461 -0.2465 -0.0183
 5742TIP3   OH238716   6.793   3.889  14.503  0.5932 -0.6883 -0.1255
 5742TIP3    H138717   6.700   3.902  14.484  0.2382 -1.4867  0.9475
 5742TIP3    H238718   6.803   3.794  14.507  1.4595 -0.6079 -0.2323
 5743TIP3   OH238719   6.757   0.099   1.513  0.7774 -0.0079 -0.0725
 5743TIP3    H138720   6.682   0.077   1.568  1.4006 -1.8345  0.1277
 5743TIP3    H238721   6.802   0.169   1.559 -0.4203  0.6579  0.1324
 5744TIP3   OH238722   5.215   6.007   0.436  0.4177  0.2113  0.1296
 5744TIP3    H138723   5.288   6.051   0.480 -0.5871  1.2389  0.8314
 5744TIP3    H238724   5.254   5.929   0.397  1.6319  0.0137  1.6370
 5745TIP3   OH238725   3.876   5.007   0.679  0.4283 -0.0851 -0.5287
 5745TIP3    H138726   3.939   5.079   0.686  1.0603 -0.4496 -1.9245
 5745TIP3    H238727   3.791   5.049   0.685  0.7766  0.4653  1.0575
 5746TIP3   OH238728   0.220   1.265   0.618 -0.1954  0.1662 -0.4845
 5746TIP3    H138729   0.199   1.173   0.606  0.0544 -0.1913  1.5586
 5746TIP3    H238730   0.303   1.278   0.572 -0.1541 -0.6599 -0.6446
 5747TIP3   OH238731   1.990   4.564   1.440 -0.4034  0.4879  0.5263
 5747TIP3    H138732   2.020   4.590   1.353  0.9291 -0.5746  0.6441
 5747TIP3    H238733   1.923   4.497   1.424 -0.0253  0.1591  0.3138
 5748TIP3   OH238734   4.384   5.507  13.340 -0.0571  0.1932  0.1074
 5748TIP3    H138735   4.477   5.509  13.316 -0.4504  0.8990 -1.5368
 5748TIP3    H238736   4.384   5.504  13.436  1.6542  0.3026  0.1469
 5749TIP3   OH238737   0.601   4.984  15.197  0.5474  0.1634 -1.0633
 5749TIP3    H138738   0.624   4.978  15.290  1.3556  0.2641 -1.2541
 5749TIP3    H238739   0.527   5.044  15.195  0.1128 -0.3375 -0.4204
 5750TIP3   OH238740   5.782   2.019   6.731 -0.5851  0.0652 -0.3075
 5750TIP3    H138741   5.866   1.999   6.689 -0.5965  2.3298 -1.5621
 5750TIP3    H238742   5.806   2.066   6.811 -0.6590 -0.4753  0.0400
 5751TIP3   OH238743   5.762   2.996  14.054 -0.0222 -0.2350  0.5872
 5751TIP3    H138744   5.701   2.933  14.015  1.3888  0.0897 -2.4249
 5751TIP3    H238745   5.746   3.077  14.006  2.2061  0.0402  0.2127
 5752TIP3   OH238746   0.596   2.792   5.838 -0.0702 -0.3215 -0.3492
 5752TIP3    H138747   0.543   2.843   5.900  0.6201 -1.8385  1.5941
 5752TIP3    H238748   0.652   2.856   5.796 -1.0147  0.8520  0.1130
 5753TIP3   OH238749   6.364   2.781   1.025  0.2628  0.3733  0.3359
 5753TIP3    H138750   6.378   2.872   1.050  0.6966  0.5838 -0.6409
 5753TIP3    H238751   6.436   2.761   0.966 -0.5526 -0.2055 -0.4923
 5754TIP3   OH238752   0.028   1.635  13.820 -0.2320  0.0855  0.5926
 5754TIP3    H138753   0.075   1.566  13.773 -1.7602  0.3663 -1.4742
 5754TIP3    H238754   0.027   1.605  13.911  0.8532 -1.6298  0.0949
 5755TIP3   OH238755   4.405   3.131  13.533  0.6399  0.2334  0.2054
 5755TIP3    H138756   4.339   3.090  13.477  2.3178 -0.4821 -1.3771
 5755TIP3    H238757   4.355   3.185  13.594 -1.4024 -0.6049 -0.6363
 5756TIP3   OH238758   2.364   3.962   3.924 -0.2674  0.3183 -0.2817
 5756TIP3    H138759   2.343   3.893   3.987 -1.1620  1.8771  1.2285
 5756TIP3    H238760   2.291   3.962   3.862 -0.4549  0.1620 -0.0624
 5757TIP3   OH238761   2.907   0.574  15.654 -0.2751  0.0141  0.0335
 5757TIP3    H138762   2.882   0.575  15.746  2.1593 -0.3137  0.7714
 5757TIP3    H238763   2.964   0.650  15.644  1.0816 -1.0573 -0.6849
 5758TIP3   OH238764   0.130   3.735  11.852 -0.4316  0.0159 -0.0906
 5758TIP3    H138765   0.138   3.697  11.764  1.1426  0.5324 -0.2009
 5758TIP3    H238766   0.194   3.687  11.905 -0.0695  0.9293  0.3190
 5759TIP3   OH238767   4.934   1.777   2.726  0.0935 -0.4537  0.1571
 5759TIP3    H138768   4.890   1.692   2.715  0.5323 -0.4680 -1.6473
 5759TIP3    H238769   4.881   1.839   2.676  0.4664  0.1168  0.4519
 5760TIP3   OH238770   4.569   5.253   4.444  0.5094  0.7468  0.1167
 5760TIP3    H138771   4.530   5.292   4.366  0.5220 -0.6371 -0.6140
 5760TIP3    H238772   4.631   5.188   4.410 -0.3806 -0.7477  1.2536
 5761TIP3   OH238773   4.086   5.538   1.966  0.4520 -0.1427 -0.2733
 5761TIP3    H138774   4.042   5.453   1.957 -0.2002 -0.1170  1.9531
 5761TIP3    H238775   4.179   5.519   1.953  0.1067 -0.7269 -2.1687
 5762TIP3   OH238776   5.924   0.217  12.673  0.6091 -0.2357 -0.1158
 5762TIP3    H138777   5.993   0.172  12.721  0.9398 -0.9635 -1.2400
 5762TIP3    H238778   5.954   0.216  12.582 -1.0206 -0.8299 -0.6751
 5763TIP3   OH238779   3.776   6.582  13.834 -0.4085 -0.3280 -0.3216
 5763TIP3    H138780   3.740   6.669  13.816  1.5661  0.1134 -2.8354
 5763TIP3    H238781   3.705   6.522  13.814 -1.1473  0.6553 -0.7277
 5764TIP3   OH238782   0.978   5.344  12.380 -0.4960 -0.1611 -0.0833
 5764TIP3    H138783   0.950   5.256  12.405  1.1813 -1.1541 -1.4182
 5764TIP3    H238784   1.049   5.365  12.442 -0.5380  0.0250 -0.0975
 5765TIP3   OH238785   2.403   4.159   4.124  0.0650  0.3459 -0.3554
 5765TIP3    H138786   2.486   4.173   4.169  0.9413  2.9485 -2.4697
 5765TIP3    H238787   2.425   4.104   4.049 -0.4123 -0.0648 -0.1981
 5766TIP3   OH238788   3.725   2.259  17.026  0.2431 -0.2396 -0.6072
 5766TIP3    H138789   3.810   2.215  17.028 -0.0191 -0.7265  0.1839
 5766TIP3    H238790   3.699   2.266  17.118  0.0528  1.1579 -0.7343
 5767TIP3   OH238791   5.781   1.041  11.545 -0.0205  0.4238 -0.5179
 5767TIP3    H138792   5.783   1.043  11.641 -1.4911 -2.3732 -0.3142
 5767TIP3    H238793   5.859   0.992  11.521  0.0584  0.6488 -0.7202
 5768TIP3   OH238794   6.660   1.475   4.096  0.5292 -0.1010 -0.3194
 5768TIP3    H138795   6.574   1.457   4.058  0.8034 -1.5756 -0.3164
 5768TIP3    H238796   6.647   1.553   4.150 -0.5494  0.3168 -1.1417
 5769TIP3   OH238797   1.031   0.123   3.795  0.1150 -0.3133 -0.6605
 5769TIP3    H138798   1.028   0.162   3.883  0.8114  2.4894 -1.7436
 5769TIP3    H238799   1.092   0.050   3.803 -2.2124 -2.2183  1.8046
 5770TIP3   OH238800   3.802   5.665  13.386 -0.9332 -0.5387  0.5717
 5770TIP3    H138801   3.721   5.618  13.365 -0.0465 -1.3769 -1.2204
 5770TIP3    H238802   3.836   5.695  13.301 -0.1169  1.1132  1.4230
 5771TIP3   OH238803   5.077   1.976  16.454  0.0913 -0.5298  0.3598
 5771TIP3    H138804   5.084   2.070  16.473  1.3462 -0.5866  0.2565
 5771TIP3    H238805   5.158   1.955  16.409 -1.2571 -1.1597 -1.9297
 5772TIP3   OH238806   3.970   0.879   3.630  0.0551  0.2271 -0.2342
 5772TIP3    H138807   4.010   0.923   3.555  2.6020  0.6182  1.2179
 5772TIP3    H238808   3.966   0.946   3.698 -2.3915 -0.0569 -0.0315
 5773TIP3   OH238809   3.422   3.699  13.708  0.3068 -0.2596 -0.1902
 5773TIP3    H138810   3.390   3.692  13.618 -0.3254  1.0699 -0.1082
 5773TIP3    H238811   3.344   3.686  13.762  0.4960 -0.0997  0.1262
 5774TIP3   OH238812   4.901   6.603   3.468  0.0836  0.5479 -0.2810
 5774TIP3    H138813   4.895   6.683   3.520  1.6988 -0.0120  0.8284
 5774TIP3    H238814   4.845   6.540   3.514  1.3949  0.0972  0.7819
 5775TIP3   OH238815   4.006   4.696  11.126  0.2634  0.2462 -0.1628
 5775TIP3    H138816   4.076   4.630  11.120  0.8747  0.9207 -0.6740
 5775TIP3    H238817   4.037   4.768  11.072 -1.0648  0.3726 -0.7866
 5776TIP3   OH238818   0.042   2.716  11.684  0.1122  0.2259 -0.2854
 5776TIP3    H138819   0.090   2.636  11.663  0.0402  0.6221 -2.1463
 5776TIP3    H238820   0.109   2.776  11.718  0.2959 -0.3598  0.4075
 5777TIP3   OH238821   5.327   6.331   0.023 -0.0053 -0.4013  0.2862
 5777TIP3    H138822   5.272   6.402  -0.010 -0.2104 -1.2569 -1.3381
 5777TIP3    H238823   5.398   6.374   0.069 -1.5229  0.7660  1.6364
 5778TIP3   OH238824   0.975   6.363   0.445 -0.5707  0.0148  0.2415
 5778TIP3    H138825   1.051   6.355   0.388 -1.4685  1.4160 -1.2370
 5778TIP3    H238826   0.964   6.457   0.458 -1.8269 -0.1792  0.7289
 5779TIP3   OH238827   0.052   2.522  13.537 -0.1066 -0.7144 -0.4286
 5779TIP3    H138828   0.060   2.544  13.444  0.4734  1.6014  0.1162
 5779TIP3    H238829  -0.030   2.562  13.565 -0.6991 -2.0988 -0.0841
 5780TIP3   OH238830   1.564   4.545   4.674  0.1240  0.0889  0.0249
 5780TIP3    H138831   1.588   4.581   4.759 -2.2247  1.2258  0.2807
 5780TIP3    H238832   1.469   4.544   4.674  0.0718 -0.9697 -2.1657
 5781TIP3   OH238833   1.206   4.862   1.189 -0.1483  0.4447  0.2139
 5781TIP3    H138834   1.180   4.872   1.098  2.2834 -1.0231 -0.7347
 5781TIP3    H238835   1.216   4.952   1.221 -0.0570  0.9868 -1.2655
 5782TIP3   OH238836   1.776   1.731  11.133  0.3970 -0.2129  0.1438
 5782TIP3    H138837   1.750   1.683  11.055  0.5859 -0.2988  0.1353
 5782TIP3    H238838   1.866   1.759  11.116  0.8026 -1.1082  0.7502
 5783TIP3   OH238839   3.937   5.723  11.987 -0.0202  0.1316 -0.4219
 5783TIP3    H138840   3.846   5.727  12.015 -0.1376 -1.6556 -0.4533
 5783TIP3    H238841   3.941   5.778  11.909 -0.7909  1.1655  0.2397
 5784TIP3   OH238842   4.642   0.271  16.122 -1.0179 -0.4807 -0.1144
 5784TIP3    H138843   4.658   0.303  16.211  0.1577 -0.9901 -0.1245
 5784TIP3    H238844   4.632   0.176  16.132  1.7032 -0.9043 -0.8008
 5785TIP3   OH238845   5.916   3.534  11.544 -0.0243 -0.6270 -0.1589
 5785TIP3    H138846   5.992   3.576  11.503  0.8929 -1.3989  0.7149
 5785TIP3    H238847   5.953   3.467  11.600 -1.3106 -0.3431  1.0839
 5786TIP3   OH238848   0.071   1.294  15.080 -0.0573 -0.2747  0.0891
 5786TIP3    H138849   0.155   1.248  15.087  0.2341 -0.1607 -2.0278
 5786TIP3    H238850   0.094   1.386  15.075 -0.5065 -0.0178  1.9127
 5787TIP3   OH238851   0.901   1.391   2.238  0.6900  0.2894  0.4828
 5787TIP3    H138852   0.954   1.469   2.221 -0.1301  0.7553  0.0357
 5787TIP3    H238853   0.811   1.421   2.230  0.3661 -0.7584  0.0745
 5788TIP3   OH238854   5.973   2.506   0.456 -0.1608  0.3642  0.1767
 5788TIP3    H138855   5.950   2.568   0.386 -0.8024  1.1338  1.0492
 5788TIP3    H238856   5.989   2.561   0.532 -4.0681 -0.6063  1.9403
 5789TIP3   OH238857   6.330   5.112  11.342  0.0174  0.0287  0.0831
 5789TIP3    H138858   6.379   5.036  11.374  0.2716 -0.6823 -1.8490
 5789TIP3    H238859   6.327   5.172  11.416 -0.2578 -1.8901  1.6856
 5790TIP3   OH238860   5.146   5.492  12.636 -0.5874  0.4953 -0.3376
 5790TIP3    H138861   5.110   5.453  12.715 -0.1382 -1.7542 -1.1553
 5790TIP3    H238862   5.197   5.421  12.595  4.1858  3.1194  0.3035
 5791TIP3   OH238863   3.158   4.745   3.142 -0.8457 -0.6559  0.3314
 5791TIP3    H138864   3.249   4.728   3.120 -0.7565  0.0382  0.1427
 5791TIP3    H238865   3.111   4.736   3.059 -0.8633 -0.4335  0.3168
 5792TIP3   OH238866   6.213   3.213   5.279  0.6172 -0.1040 -0.3155
 5792TIP3    H138867   6.232   3.232   5.371  0.3189  2.8762 -0.7758
 5792TIP3    H238868   6.165   3.290   5.248  0.0219 -1.3694 -2.7877
 5793TIP3   OH238869   6.495   6.064   4.004  0.2588 -0.0051 -0.5049
 5793TIP3    H138870   6.522   6.008   3.931  1.2284  0.0889 -0.2287
 5793TIP3    H238871   6.575   6.107   4.032 -0.2810  0.6817  0.0072
 5794TIP3   OH238872   2.501   2.342   6.073 -0.0010  0.2475  0.6934
 5794TIP3    H138873   2.549   2.407   6.022  0.2984 -0.7452 -0.3386
 5794TIP3    H238874   2.423   2.388   6.103  0.5958  1.3047  0.6709
 5795TIP3   OH238875   0.499   3.963  14.735 -0.1664 -0.2765 -0.3055
 5795TIP3    H138876   0.478   3.922  14.651 -0.8853 -1.7735  0.5586
 5795TIP3    H238877   0.420   4.012  14.759 -0.4136 -0.8434  0.0540
 5796TIP3   OH238878   5.197   1.688   2.639  0.2228 -0.4740 -0.2222
 5796TIP3    H138879   5.177   1.692   2.546  0.1759  0.1175 -0.1908
 5796TIP3    H238880   5.126   1.737   2.681 -0.0996 -1.2660  0.1822
 5797TIP3   OH238881   1.835   4.888   3.178 -0.3340  0.1095 -0.5104
 5797TIP3    H138882   1.910   4.888   3.236 -0.8039 -1.6436  0.1914
 5797TIP3    H238883   1.770   4.943   3.222 -0.5563 -0.9105  0.4825
 5798TIP3   OH238884   1.071   3.047   5.086 -0.1417  0.3819  0.2085
 5798TIP3    H138885   1.010   2.973   5.085 -0.8074  0.9298 -0.6694
 5798TIP3    H238886   1.151   3.011   5.125 -0.6847 -0.6096  0.4408
 5799TIP3   OH238887   5.312   0.620  11.601 -0.3334 -0.0935  0.1467
 5799TIP3    H138888   5.391   0.602  11.550  0.0069 -1.3752  1.0745
 5799TIP3    H238889   5.247   0.647  11.536  0.6578  0.2704 -0.7142
 5800TIP3   OH238890   5.985   4.680  13.079 -0.4960 -0.5320 -0.2154
 5800TIP3    H138891   6.007   4.595  13.042 -0.5103 -1.5493  2.0054
 5800TIP3    H238892   6.069   4.715  13.109 -0.9111 -1.3496  2.0188
 5801TIP3   OH238893   3.262   1.402   4.044 -0.4453 -0.0158  0.1495
 5801TIP3    H138894   3.313   1.361   3.973  0.6301 -1.6280  1.7776
 5801TIP3    H238895   3.174   1.413   4.006 -1.2450 -5.0505 -0.1598
 5802TIP3   OH238896   1.114   2.019  13.807 -0.1229  0.7276 -0.5857
 5802TIP3    H138897   1.186   2.019  13.869 -1.8556 -0.0541  1.5416
 5802TIP3    H238898   1.151   1.982  13.727  1.6218 -0.4804  0.7114
 5803TIP3   OH238899   4.888   0.253  13.850  0.2840 -0.3532 -0.5701
 5803TIP3    H138900   4.850   0.177  13.807  0.8726 -0.5715 -0.7205
 5803TIP3    H238901   4.972   0.222  13.884  0.1299 -0.0047  0.1547
 5804TIP3   OH238902   5.682   6.229  15.876  0.4067  0.0384 -0.1738
 5804TIP3    H138903   5.741   6.262  15.944 -2.1162  1.3425  1.5683
 5804TIP3    H238904   5.642   6.151  15.915 -0.0519 -0.0194 -0.7406
 5805TIP3   OH238905   3.022   3.470  14.921  0.0490 -0.3428  0.3001
 5805TIP3    H138906   3.106   3.466  14.875 -0.3713  1.6552 -0.7399
 5805TIP3    H238907   2.960   3.430  14.860 -0.4164  1.8394 -0.7464
 5806TIP3   OH238908   2.883   5.022   6.713  0.7743 -0.6023 -0.4791
 5806TIP3    H138909   2.807   5.012   6.655 -0.3318 -1.5668  1.0552
 5806TIP3    H238910   2.895   5.117   6.720  0.1464 -0.4488 -1.2978
 5807TIP3   OH238911   1.168   3.105  16.630 -0.2289  0.0922  0.5145
 5807TIP3    H138912   1.081   3.071  16.650 -1.9784  4.0994  0.8070
 5807TIP3    H238913   1.174   3.104  16.534 -1.1050  0.7135  0.4385
 5808TIP3   OH238914   4.419   3.784  12.705 -0.3320 -0.1181  0.3474
 5808TIP3    H138915   4.407   3.781  12.799  1.6700  0.1647  0.6638
 5808TIP3    H238916   4.428   3.692  12.679  2.8327 -0.1475  1.0837
 5809TIP3   OH238917   3.906   2.589   0.603 -0.1445 -0.3254  0.0126
 5809TIP3    H138918   3.903   2.510   0.549 -0.5644 -1.1074  1.1330
 5809TIP3    H238919   3.977   2.642   0.566 -0.3462 -0.8773 -1.2140
 5810TIP3   OH238920   6.708   2.922  11.485  0.2129 -0.0023 -0.4893
 5810TIP3    H138921   6.742   2.948  11.399  0.4078 -0.0481 -0.4250
 5810TIP3    H238922   6.785   2.894  11.534 -0.0249 -0.9974 -0.6537
 5811TIP3   OH238923   3.186   2.142   1.714 -0.4283  0.7146 -0.3686
 5811TIP3    H138924   3.279   2.130   1.695  0.0226  2.8411  0.1435
 5811TIP3    H238925   3.175   2.108   1.803 -0.5371 -0.9810 -0.9909
 5812TIP3   OH238926   2.687   3.074   2.845 -0.2175  0.5517  0.5507
 5812TIP3    H138927   2.745   3.041   2.913 -1.0421  2.2467  2.1709
 5812TIP3    H238928   2.662   2.997   2.795  1.4359 -0.5556  1.3672
 5813TIP3   OH238929   5.010   4.872   4.878  0.2929 -0.1704  0.1566
 5813TIP3    H138930   4.993   4.786   4.840  1.0738  0.7147 -2.4283
 5813TIP3    H238931   5.099   4.893   4.849  0.5038  1.0872  1.6061
 5814TIP3   OH238932   3.175   5.610   2.883  0.3375  0.9081  0.4135
 5814TIP3    H138933   3.102   5.622   2.822  0.6046  1.3706  0.1835
 5814TIP3    H238934   3.231   5.686   2.870  0.8303  0.5916  0.6376
 5815TIP3   OH238935   5.929   5.459  11.382 -0.0617 -0.2567 -0.1360
 5815TIP3    H138936   5.968   5.432  11.299  1.6752 -3.4820  1.5250
 5815TIP3    H238937   5.902   5.377  11.424 -2.0391  1.3356  1.9927
 5816TIP3   OH238938   4.002   1.011  11.524  0.5051  0.1156 -0.3216
 5816TIP3    H138939   4.048   0.968  11.452 -0.6938 -2.2068  0.1872
 5816TIP3    H238940   3.919   1.039  11.485  0.4272  0.0954 -0.1712
 5817TIP3   OH238941   3.813   1.955  15.903  0.0383 -0.0761  0.0550
 5817TIP3    H138942   3.753   1.901  15.850  0.4186  0.0765 -0.5451
 5817TIP3    H238943   3.863   2.004  15.838  1.8007 -1.2188  0.4830
 5818TIP3   OH238944   4.456   0.118  14.650  0.3172  0.0623 -0.0239
 5818TIP3    H138945   4.523   0.170  14.606  0.4295 -0.4145 -0.4289
 5818TIP3    H238946   4.501   0.077  14.724  0.1207  0.8904  0.5713
 5819TIP3   OH238947   2.839   4.473  14.606 -0.5054  0.1143  0.1130
 5819TIP3    H138948   2.920   4.522  14.586 -0.5090  0.5334  1.0808
 5819TIP3    H238949   2.869   4.385  14.629 -0.4026  0.0033 -0.4299
 5820TIP3   OH238950   4.033   5.642   5.507  0.8153 -0.0303  0.2241
 5820TIP3    H138951   3.978   5.705   5.460  0.2584 -0.7176 -0.0686
 5820TIP3    H238952   4.033   5.674   5.597  0.0316  0.0544  0.2080
 5821TIP3   OH238953   3.601   1.732   3.554  0.2252 -0.2735  0.3580
 5821TIP3    H138954   3.599   1.682   3.635 -0.5197  0.8258  1.0474
 5821TIP3    H238955   3.614   1.666   3.486  0.1929 -1.2931  1.3026
 5822TIP3   OH238956   1.531   3.062   1.809 -0.1491 -0.2147 -0.1947
 5822TIP3    H138957   1.560   3.119   1.738  1.2552 -1.8405 -1.0161
 5822TIP3    H238958   1.590   3.082   1.882 -0.3863  0.1420 -0.0958
 5823TIP3   OH238959   4.501   2.616  14.557 -0.0718  0.9264 -0.2166
 5823TIP3    H138960   4.487   2.693  14.502 -1.1181  0.8819 -0.0256
 5823TIP3    H238961   4.417   2.600  14.599  0.6870  0.8996  1.3422
 5824TIP3   OH238962   1.564   0.423   0.577  0.3726  0.4914 -0.2389
 5824TIP3    H138963   1.630   0.481   0.615 -0.3121  0.2659  1.3964
 5824TIP3    H238964   1.556   0.351   0.639  0.1653 -0.6320 -1.5191
 5825TIP3   OH238965   4.053   3.877   0.793  0.2325  0.6116 -0.3660
 5825TIP3    H138966   3.982   3.910   0.848 -0.9903 -1.2288 -0.7343
 5825TIP3    H238967   4.083   3.798   0.838 -0.8372 -0.9754 -2.2544
 5826TIP3   OH238968   5.280   3.442   0.896  0.1496 -0.0004  0.1441
 5826TIP3    H138969   5.216   3.507   0.924 -0.5488 -0.5760 -0.1180
 5826TIP3    H238970   5.321   3.412   0.977  0.8253  1.0993  0.2412
 5827TIP3   OH238971   5.461   2.013  15.794  0.0358 -0.4583  0.1468
 5827TIP3    H138972   5.513   2.093  15.781  1.5757 -1.1872  1.4945
 5827TIP3    H238973   5.372   2.044  15.810  0.4175  0.9261 -0.2724
 5828TIP3   OH238974   1.317   3.151  12.468 -0.1295  0.2706 -0.1173
 5828TIP3    H138975   1.409   3.148  12.442 -0.2786 -0.1989 -0.6449
 5828TIP3    H238976   1.308   3.080  12.532 -0.7728 -1.9264 -2.4557
 5829TIP3   OH238977   5.077   3.137  12.766 -0.4002  0.1392  0.2061
 5829TIP3    H138978   5.172   3.124  12.756 -0.1333  1.0171  1.4200
 5829TIP3    H238979   5.050   3.181  12.685  0.3557  0.5253  0.1585
 5830TIP3   OH238980   4.483   3.491  14.053  0.2669  0.1364  0.5034
 5830TIP3    H138981   4.570   3.513  14.020  0.1779  1.4442  1.0730
 5830TIP3    H238982   4.423   3.526  13.987  0.1356  1.3462  1.2225
 5831TIP3   OH238983   1.267   2.244  15.295 -0.2872 -0.3030  0.3550
 5831TIP3    H138984   1.319   2.164  15.290 -1.1396 -0.8460 -0.1450
 5831TIP3    H238985   1.184   2.215  15.334 -2.2680 -0.5829 -3.5987
 5832TIP3   OH238986   5.047   2.483  11.405 -1.1525 -0.2166 -0.5743
 5832TIP3    H138987   5.013   2.544  11.340 -0.3567  0.3454 -0.4918
 5832TIP3    H238988   5.063   2.402  11.357  1.9627  0.9539 -1.8035
 5833TIP3   OH238989   1.559   0.219  13.354  0.1327 -0.4219  0.5758
 5833TIP3    H138990   1.475   0.246  13.318  0.6798  1.2712  0.4842
 5833TIP3    H238991   1.606   0.301  13.371  0.9856 -1.2481  2.5512
 5834TIP3   OH238992   5.351   5.275  12.450 -0.5587  0.0601 -0.1398
 5834TIP3    H138993   5.328   5.313  12.365 -1.0582 -1.4829 -0.7341
 5834TIP3    H238994   5.282   5.211  12.467 -0.3678  0.2185  1.3608
 5835TIP3   OH238995   0.557   5.109  12.340  0.2129 -0.0921  0.5137
 5835TIP3    H138996   0.463   5.096  12.335  0.1059  1.0747 -0.7708
 5835TIP3    H238997   0.585   5.125  12.250  1.8207 -1.5031  0.7038
 5836TIP3   OH238998   1.156   4.467   0.546 -0.2248  0.0296 -0.1142
 5836TIP3    H138999   1.187   4.424   0.466 -3.0814  0.0765 -1.3606
 5836TIP3    H239000   1.135   4.557   0.518 -0.8400  0.1769  0.7839
 5837TIP3   OH239001   4.012   0.499   5.937  0.1839 -0.6955  0.6332
 5837TIP3    H139002   4.087   0.544   5.897 -0.1147 -2.3796 -2.0428
 5837TIP3    H239003   3.950   0.569   5.957  0.3154  0.3081 -2.0814
 5838TIP3   OH239004   0.193   2.496   3.645 -0.1645 -0.3216  0.0261
 5838TIP3    H139005   0.138   2.494   3.723 -0.0678 -3.2047  0.1061
 5838TIP3    H239006   0.139   2.540   3.579 -0.0394  2.7195  1.7336
 5839TIP3   OH239007   3.430   2.449   2.195  0.4430 -0.1355 -0.5860
 5839TIP3    H139008   3.482   2.403   2.130 -1.0165 -1.4937 -0.8629
 5839TIP3    H239009   3.349   2.398   2.200 -0.0817  0.8092  1.1900
 5840TIP3   OH239010   0.822   4.840   5.136 -0.1745 -0.2961  0.2389
 5840TIP3    H139011   0.830   4.798   5.050 -2.2414 -1.4863  0.5737
 5840TIP3    H239012   0.832   4.769   5.199 -1.6997  0.0262  0.8765
 5841TIP3   OH239013   6.548   3.781   3.722  0.2877  0.1104  0.5474
 5841TIP3    H139014   6.528   3.729   3.800  0.1776  2.4831  2.2116
 5841TIP3    H239015   6.613   3.844   3.752 -0.7575  1.9600 -0.9226
 5842TIP3   OH239016   1.793   3.253  14.703  0.2374  0.4063  0.1831
 5842TIP3    H139017   1.829   3.191  14.639 -1.2369  0.8637 -1.1425
 5842TIP3    H239018   1.854   3.327  14.701 -0.3787  0.9066 -1.5602
 5843TIP3   OH239019   6.802   1.353   5.150 -0.5754  0.1494  0.3405
 5843TIP3    H139020   6.718   1.379   5.111 -0.6968  0.9469  1.0964
 5843TIP3    H239021   6.816   1.417   5.220  1.1353  0.5915 -0.3809
 5844TIP3   OH239022   4.298   1.265  15.839 -0.0528  0.0244  0.4467
 5844TIP3    H139023   4.337   1.205  15.903 -1.7543  1.4761  3.0208
 5844TIP3    H239024   4.359   1.338  15.834  0.7076 -0.6519 -0.6495
 5845TIP3   OH239025   2.882   4.308   0.319 -0.1392 -0.7891 -0.5718
 5845TIP3    H139026   2.936   4.264   0.385  0.2645  0.4891 -0.0103
 5845TIP3    H239027   2.920   4.281   0.236 -0.8235 -2.6332 -0.3169
 5846TIP3   OH239028   4.410   6.627   1.508  0.8261  0.0621 -0.2585
 5846TIP3    H139029   4.349   6.615   1.435  1.4028 -0.3835 -0.6787
 5846TIP3    H239030   4.450   6.713   1.492  2.1416 -0.7068 -1.4046
 5847TIP3   OH239031   4.160   1.879   4.157 -0.2374 -0.0106  0.4204
 5847TIP3    H139032   4.131   1.940   4.089  1.3210  1.1422  0.7426
 5847TIP3    H239033   4.087   1.817   4.165 -1.2865  0.9701 -0.9049
 5848TIP3   OH239034   0.173   0.516   1.614 -0.2940  0.1060 -0.4726
 5848TIP3    H139035   0.246   0.470   1.572 -0.6258  0.2243 -1.1985
 5848TIP3    H239036   0.098   0.457   1.604 -0.0923 -0.4925  1.2092
 5849TIP3   OH239037   5.426   0.300  12.050  0.2725 -0.0881  0.1386
 5849TIP3    H139038   5.504   0.245  12.046 -0.3244 -1.2505  2.5530
 5849TIP3    H239039   5.450   0.373  12.107  0.4292  1.1094 -1.4099
 5850TIP3   OH239040   6.105   1.692   1.495 -0.2227 -0.3067  0.2308
 5850TIP3    H139041   6.192   1.671   1.461 -0.4991 -1.7177  0.3165
 5850TIP3    H239042   6.121   1.742   1.575  0.4675  0.9177 -0.6394
 5851TIP3   OH239043   6.577   3.998   2.336 -0.7346 -0.2175  0.3447
 5851TIP3    H139044   6.664   3.961   2.326 -0.4346  0.3580  0.7492
 5851TIP3    H239045   6.523   3.951   2.272  0.2662  0.6757 -1.2306
 5852TIP3   OH239046   1.461   2.891   1.208 -0.3849  0.2981 -0.8187
 5852TIP3    H139047   1.513   2.964   1.240  1.1805 -0.7842 -0.7757
 5852TIP3    H239048   1.486   2.882   1.116 -1.6707  0.7210 -1.2260
 5853TIP3   OH239049   5.620   6.749   0.436 -1.0688  0.2266 -0.1953
 5853TIP3    H139050   5.556   6.712   0.376 -0.2691  0.5060 -1.2529
 5853TIP3    H239051   5.686   6.681   0.445 -1.8196 -0.3355  1.4421
 5854TIP3   OH239052   2.074   4.487   4.023 -0.1682  0.6235  0.8170
 5854TIP3    H139053   1.994   4.501   4.074 -0.7348  1.3197 -0.2189
 5854TIP3    H239054   2.051   4.417   3.962  0.7638 -0.7740  2.0085
 5855TIP3   OH239055   0.862   5.614  15.629 -0.0589 -0.4329 -0.5585
 5855TIP3    H139056   0.936   5.556  15.613  0.2819 -0.2062  0.1450
 5855TIP3    H239057   0.879   5.691  15.574 -0.4169 -0.9080 -1.3456
 5856TIP3   OH239058   6.817   4.211  12.243  0.2041 -0.5308  0.2733
 5856TIP3    H139059   6.759   4.219  12.319  1.7310 -1.1980  1.5542
 5856TIP3    H239060   6.758   4.215  12.168 -1.3499  0.2380  1.4736
 5857TIP3   OH239061   2.744   4.744  16.412  0.3290  0.1032 -0.1279
 5857TIP3    H139062   2.666   4.793  16.437 -0.6495 -1.5969  0.3260
 5857TIP3    H239063   2.781   4.794  16.339  1.6203  3.6208  2.6346
 5858TIP3   OH239064   3.748   3.337   2.307 -0.6740  0.5686 -0.1910
 5858TIP3    H139065   3.731   3.358   2.399 -1.0830  0.4603 -0.2368
 5858TIP3    H239066   3.742   3.241   2.303  0.8500  0.4426 -0.0436
 5859TIP3   OH239067   0.721   5.893   4.447  0.0824  0.1964  0.6280
 5859TIP3    H139068   0.707   5.829   4.376 -0.8159  1.8443 -0.7442
 5859TIP3    H239069   0.640   5.888   4.499 -1.0105  1.7710 -0.8140
 5860TIP3   OH239070   6.260   1.392  12.113 -0.1861  0.0452  0.2106
 5860TIP3    H139071   6.314   1.315  12.098  0.4304 -0.2879  3.5476
 5860TIP3    H239072   6.320   1.457  12.150 -1.3356  1.0370  0.4127
 5861TIP3   OH239073   2.473   5.862   3.714  0.0234  0.3113 -0.2287
 5861TIP3    H139074   2.468   5.918   3.637  0.7627  0.2885 -0.3089
 5861TIP3    H239075   2.504   5.778   3.680 -0.9959 -0.1214 -0.0981
 5862TIP3   OH239076   4.890   3.000  15.569  0.1028  0.2235  0.3010
 5862TIP3    H139077   4.982   2.998  15.592 -0.0000  0.6494  0.7701
 5862TIP3    H239078   4.847   2.948  15.636 -0.0059  0.0878  0.1266
 5863TIP3   OH239079   0.500   4.763   1.713 -0.1905  0.1916 -0.5026
 5863TIP3    H139080   0.584   4.717   1.711  0.1183  0.6372  1.0018
 5863TIP3    H239081   0.441   4.703   1.758 -0.9628 -0.5030 -2.3451
 5864TIP3   OH239082   0.465   4.253   1.344  0.1343  0.4177  0.5384
 5864TIP3    H139083   0.503   4.309   1.411  1.0825  2.7789 -1.7833
 5864TIP3    H239084   0.481   4.300   1.262  1.2986 -3.3845 -1.6782
 5865TIP3   OH239085   0.471   3.783  13.402 -0.2365  0.6351  0.4755
 5865TIP3    H139086   0.565   3.790  13.415  0.0103  0.6375 -1.1663
 5865TIP3    H239087   0.443   3.870  13.375 -0.4918  0.3393 -0.2455
 5866TIP3   OH239088   3.106   2.649   4.403 -0.1990 -0.5699 -0.6195
 5866TIP3    H139089   3.090   2.724   4.345 -0.6347  0.0387  0.2776
 5866TIP3    H239090   3.075   2.574   4.353 -0.2293 -0.0966 -1.3314
 5867TIP3   OH239091   6.644   3.720   1.124  0.1747  0.6804 -0.4438
 5867TIP3    H139092   6.735   3.750   1.132 -0.0236  1.3580 -0.6431
 5867TIP3    H239093   6.592   3.797   1.144 -0.3641  0.2467 -0.1574
 5868TIP3   OH239094   2.689   6.822  11.679  0.1903  0.2885  0.3879
 5868TIP3    H139095   2.756   6.758  11.705 -0.5819 -0.6490  0.1453
 5868TIP3    H239096   2.729   6.907  11.697  0.8774 -0.2713  1.6360
 5869TIP3   OH239097   4.042   3.349   6.647 -0.1359 -0.4493  0.4235
 5869TIP3    H139098   4.024   3.425   6.704  0.4490 -0.2657  0.3609
 5869TIP3    H239099   4.136   3.335   6.654 -0.3955 -1.9713  1.4406
 5870TIP3   OH239100   6.646   1.900   1.989  0.1675  0.2329 -0.1297
 5870TIP3    H139101   6.672   1.859   1.907  3.5805 -0.9521  1.3365
 5870TIP3    H239102   6.689   1.986   1.988 -0.6338  0.6420 -0.0005
 5871TIP3   OH239103   2.019   4.093   4.066 -0.5436  0.1064 -0.0713
 5871TIP3    H139104   1.946   4.125   4.118  0.1067  2.4564 -0.5116
 5871TIP3    H239105   2.091   4.085   4.128 -0.5584  0.0309 -0.0640
 5872TIP3   OH239106   3.591   0.918   1.852 -0.0154  0.3344 -0.2372
 5872TIP3    H139107   3.579   0.998   1.904 -1.9206 -0.4646  0.6366
 5872TIP3    H239108   3.554   0.940   1.766  1.7361  1.1559 -0.8267
 5873TIP3   OH239109   4.813   3.143   1.112 -0.8051 -0.4246 -0.3234
 5873TIP3    H139110   4.791   3.053   1.136  1.0646 -0.6912  0.5127
 5873TIP3    H239111   4.863   3.177   1.186  0.4263  0.5660 -1.5416
 5874TIP3   OH239112   2.957   3.625   3.259  0.0472  0.2695 -0.5958
 5874TIP3    H139113   2.877   3.641   3.310  0.8319  3.1736 -0.1089
 5874TIP3    H239114   2.996   3.548   3.301  0.2887  2.0653  2.8876
 5875TIP3   OH239115   2.469   3.971  16.134 -0.3631 -0.3551  0.5021
 5875TIP3    H139116   2.547   3.998  16.085 -1.6114  1.6585 -0.5201
 5875TIP3    H239117   2.483   4.007  16.222 -0.5096  0.8572  0.0590
 5876TIP3   OH239118   3.906   4.186  14.846  0.1019 -1.0571  0.2810
 5876TIP3    H139119   3.941   4.275  14.850 -1.1881 -0.4684 -0.4850
 5876TIP3    H239120   3.822   4.196  14.800 -0.7707 -2.4561  1.4748
 5877TIP3   OH239121   2.966   2.670  16.882 -0.0599  0.4454 -0.3024
 5877TIP3    H139122   2.978   2.590  16.933  0.6367  0.6602 -0.1214
 5877TIP3    H239123   2.877   2.663  16.847 -0.5725  0.3153  0.9807
 5878TIP3   OH239124   6.172   1.235   2.859  0.2663  0.0950 -0.4696
 5878TIP3    H139125   6.240   1.298   2.833 -0.0317  0.2047 -1.0098
 5878TIP3    H239126   6.203   1.151   2.825  0.9549 -0.1704  0.7708
 5879TIP3   OH239127   3.423   5.471  13.652 -0.6483  0.3376  0.2298
 5879TIP3    H139128   3.406   5.565  13.655  0.1306  0.4535  1.2969
 5879TIP3    H239129   3.449   5.448  13.741  1.2888 -0.4763 -0.5010
 5880TIP3   OH239130   4.644   0.171  12.669  0.7337  0.2839  0.3513
 5880TIP3    H139131   4.601   0.241  12.718  0.6588  0.6715 -0.2594
 5880TIP3    H239132   4.572   0.128  12.622  0.7991 -0.1108  0.6098
 5881TIP3   OH239133   0.643   5.140  12.917 -0.7447 -0.0841 -0.2025
 5881TIP3    H139134   0.606   5.099  12.995 -0.1089 -0.7084 -0.2216
 5881TIP3    H239135   0.601   5.226  12.913 -0.3038  0.2268  1.2050
 5882TIP3   OH239136   5.866   5.197   3.746 -0.0876  0.2207  0.0445
 5882TIP3    H139137   5.864   5.124   3.808  1.0668  0.2039  0.0823
 5882TIP3    H239138   5.838   5.273   3.797  3.1834  0.7051  1.3439
 5883TIP3   OH239139   1.422   4.005   1.035 -0.6174 -0.0005  0.3311
 5883TIP3    H139140   1.429   4.035   1.126 -0.5375 -1.3018  0.7677
 5883TIP3    H239141   1.496   3.945   1.024 -0.8826 -0.1823 -0.4694
 5884TIP3   OH239142   3.325   3.928  13.267 -0.5450  0.5104  0.0135
 5884TIP3    H139143   3.317   3.940  13.362  0.7051  0.0757  0.1866
 5884TIP3    H239144   3.373   4.004  13.237 -0.2129  0.2415 -0.1450
 5885TIP3   OH239145   2.375   1.261  16.301  0.5731 -0.0139  0.4161
 5885TIP3    H139146   2.310   1.316  16.345  0.6884  0.6607 -0.2392
 5885TIP3    H239147   2.459   1.298  16.327  0.6647 -0.1742  0.3521
 5886TIP3   OH239148   5.978   3.016   6.370  0.8478 -0.4066  0.1883
 5886TIP3    H139149   6.047   2.950   6.375  0.1747 -1.2209 -0.7201
 5886TIP3    H239150   5.953   3.032   6.461  1.5370 -0.8528  0.4623
 5887TIP3   OH239151   3.432   2.296   1.866  0.0866  0.0960 -0.1856
 5887TIP3    H139152   3.443   2.223   1.805 -0.8406 -1.1279  1.0433
 5887TIP3    H239153   3.518   2.309   1.904  0.0157 -1.1639  0.4414
 5888TIP3   OH239154   4.032   1.402   4.592 -0.0359  0.1019 -0.4514
 5888TIP3    H139155   4.045   1.374   4.502  0.6502  2.9899 -1.3428
 5888TIP3    H239156   3.959   1.463   4.588  0.4065  0.7543  0.8337
 5889TIP3   OH239157   1.852   5.918  11.895 -0.1758 -0.1381  0.0804
 5889TIP3    H139158   1.900   5.879  11.968  0.1046  3.1086  1.8110
 5889TIP3    H239159   1.921   5.941  11.832 -0.1125 -0.5421 -0.0005
 5890TIP3   OH239160   0.976   1.463   5.529 -0.4016 -0.3832 -0.1946
 5890TIP3    H139161   0.955   1.556   5.513  0.6597 -0.0484  0.2700
 5890TIP3    H239162   0.936   1.444   5.614 -0.5659 -0.3322 -0.2601
 5891TIP3   OH239163   2.707   0.156   4.189 -0.3421 -0.4539 -0.4608
 5891TIP3    H139164   2.639   0.107   4.235 -0.5866 -2.5641 -2.8525
 5891TIP3    H239165   2.771   0.090   4.163  1.4610  1.1424 -0.3119
 5892TIP3   OH239166   3.658   2.661   6.474 -0.0220 -0.3116 -0.2607
 5892TIP3    H139167   3.661   2.728   6.406  1.0917  0.4904  0.5341
 5892TIP3    H239168   3.658   2.578   6.426  0.1470  0.2419 -1.2421
 5893TIP3   OH239169   4.815   0.739  12.526  0.8414 -0.0635  0.2574
 5893TIP3    H139170   4.790   0.827  12.556  0.9853  0.3380 -0.7592
 5893TIP3    H239171   4.895   0.719  12.574  0.9104  0.4438  0.3588
 5894TIP3   OH239172   2.192   2.090   4.220  0.0588  0.3462  0.0790
 5894TIP3    H139173   2.210   2.014   4.164 -1.5594 -0.5299  0.6908
 5894TIP3    H239174   2.097   2.088   4.235 -0.1569  2.8544 -0.3856
 5895TIP3   OH239175   4.366   1.634  10.784  0.1070 -0.0652 -0.8213
 5895TIP3    H139176   4.327   1.555  10.821 -2.4315  1.6297  0.4283
 5895TIP3    H239177   4.369   1.618  10.690 -0.4186 -1.6180 -0.5994
 5896TIP3   OH239178   4.514   4.714   2.243 -0.1318 -0.6691  0.2121
 5896TIP3    H139179   4.467   4.661   2.179 -0.7311  1.3198 -1.0615
 5896TIP3    H239180   4.606   4.702   2.221 -0.2096 -1.7399  0.4209
 5897TIP3   OH239181   5.167   1.294  11.267 -0.2511 -0.1485 -0.1903
 5897TIP3    H139182   5.238   1.231  11.250  1.4833  1.1447  1.6973
 5897TIP3    H239183   5.096   1.241  11.302  1.3195 -1.1055  1.7690
 5898TIP3   OH239184   6.261   2.931  15.851  0.1604 -0.0454  0.1123
 5898TIP3    H139185   6.249   2.949  15.945  1.7570  0.2521  0.2806
 5898TIP3    H239186   6.196   2.986  15.808  0.3776  0.9327  0.9824
 5899TIP3   OH239187   6.349   6.192   2.171  0.9165 -0.0839 -0.4950
 5899TIP3    H139188   6.401   6.262   2.210 -0.5456  0.6738  0.1847
 5899TIP3    H239189   6.347   6.123   2.237  3.2177 -1.2897 -1.5605
 5900TIP3   OH239190   2.859   5.799   0.031  0.1033  0.5291  0.2296
 5900TIP3    H139191   2.882   5.885   0.067  2.0657  0.0624  0.1958
 5900TIP3    H239192   2.910   5.792  -0.050 -0.7718 -0.2921 -0.2816
 5901TIP3   OH239193   2.052   2.840   2.510 -0.3832 -0.0590 -0.2378
 5901TIP3    H139194   2.122   2.777   2.525 -0.1146  0.1021 -0.8127
 5901TIP3    H239195   1.984   2.815   2.573 -0.0520 -0.5730 -0.0768
 5902TIP3   OH239196   0.426   3.839  10.444  0.1017 -0.7742 -0.1252
 5902TIP3    H139197   0.341   3.817  10.482 -0.5204  0.1486 -0.9518
 5902TIP3    H239198   0.419   3.812  10.353  0.3907  0.1126 -0.4135
 5903TIP3   OH239199   3.338   5.920   3.627  1.0129 -0.2557 -0.3654
 5903TIP3    H139200   3.339   5.978   3.703 -1.6664  1.2486 -1.3335
 5903TIP3    H239201   3.304   5.837   3.661 -0.2985  0.4418  0.0973
 5904TIP3   OH239202   2.760   5.592   0.329  0.2078 -0.2207  0.4010
 5904TIP3    H139203   2.790   5.583   0.419  1.0189  0.2872  0.1964
 5904TIP3    H239204   2.682   5.647   0.334 -0.5293 -1.2834  0.9123
 5905TIP3   OH239205   4.578   1.737  11.649  0.2355 -0.3852  1.2964
 5905TIP3    H139206   4.606   1.751  11.558 -0.6034  0.4511  1.1475
 5905TIP3    H239207   4.583   1.643  11.661  0.4895 -0.4965  0.4219
 5906TIP3   OH239208   2.885   0.243  11.639 -0.0662  0.1948  0.2364
 5906TIP3    H139209   2.905   0.170  11.580 -0.0597 -0.5618  1.1631
 5906TIP3    H239210   2.853   0.313  11.580 -0.7843 -0.7997 -0.5893
 5907TIP3   OH239211   6.032   1.010  11.742  0.0891 -0.6148 -0.3190
 5907TIP3    H139212   6.019   0.990  11.834  3.5401 -1.3662  0.1346
 5907TIP3    H239213   6.049   0.925  11.701 -0.5651 -0.2008 -1.5007
 5908TIP3   OH239214   4.866   1.061   0.510  0.0147 -0.0157 -0.2719
 5908TIP3    H139215   4.884   1.120   0.583  0.0665  0.6267 -0.7921
 5908TIP3    H239216   4.877   0.973   0.547 -0.0696  0.2957  0.5137
 5909TIP3   OH239217   6.411   3.494   5.549  0.0663  0.5050 -0.3372
 5909TIP3    H139218   6.428   3.450   5.633  0.0489  0.8830 -0.1323
 5909TIP3    H239219   6.359   3.570   5.573 -0.7278  0.1114 -0.8054
 5910TIP3   OH239220   2.502   0.329  12.421  0.1424  0.0033 -0.4897
 5910TIP3    H139221   2.523   0.240  12.393 -2.0637 -0.6419 -0.3451
 5910TIP3    H239222   2.449   0.317  12.500 -0.7662  1.3799 -0.8478
 5911TIP3   OH239223   1.833   1.295   4.147 -0.1886  0.2027  0.2204
 5911TIP3    H139224   1.862   1.205   4.159 -1.5409 -0.5879 -1.8365
 5911TIP3    H239225   1.875   1.324   4.066 -2.5409  0.0634 -1.1624
 5912TIP3   OH239226   1.581   6.404  14.986  0.0591 -0.5988  0.3041
 5912TIP3    H139227   1.549   6.398  14.896  1.1666  0.0213 -0.1445
 5912TIP3    H239228   1.611   6.315  15.007  2.5568 -0.1584 -1.0258
 5913TIP3   OH239229   6.455   5.178  14.395  0.4478  0.0231 -0.1263
 5913TIP3    H139230   6.502   5.238  14.337 -2.0005  0.9943 -1.2389
 5913TIP3    H239231   6.387   5.140  14.340  1.0842 -2.8571  0.9019
 5914TIP3   OH239232   1.425   3.682  15.166 -0.6291 -0.1470  0.3206
 5914TIP3    H139233   1.414   3.769  15.127 -0.3096 -0.8079 -1.3066
 5914TIP3    H239234   1.515   3.682  15.199 -1.4291  1.0215  2.7233
 5915TIP3   OH239235   4.640   0.752  14.814  0.3237 -0.6394  0.6360
 5915TIP3    H139236   4.656   0.829  14.869  0.9652 -1.0385  1.0256
 5915TIP3    H239237   4.563   0.711  14.853 -1.3209  0.9111 -0.8207
 5916TIP3   OH239238   1.404   0.564   1.910  0.3315 -0.0019  0.2458
 5916TIP3    H139239   1.492   0.600   1.902  0.1415  0.6406  0.8623
 5916TIP3    H239240   1.413   0.488   1.967  0.7446 -1.0042 -1.0975
 5917TIP3   OH239241   2.617   0.128   2.958  0.1060  0.0815  0.2055
 5917TIP3    H139242   2.647   0.046   2.919 -0.7805 -1.6896  2.9634
 5917TIP3    H239243   2.688   0.190   2.941  0.8912 -1.2535 -1.7746
 5918TIP3   OH239244   3.609   3.424  11.558 -0.1222 -0.0351  0.2770
 5918TIP3    H139245   3.617   3.394  11.649 -1.5223 -1.0483  0.1026
 5918TIP3    H239246   3.535   3.374  11.523  1.8491 -1.4871 -2.1552
 5919TIP3   OH239247   1.770   0.459  11.917 -0.0282 -0.3334 -0.3178
 5919TIP3    H139248   1.722   0.541  11.927  1.6239  0.8344 -1.4643
 5919TIP3    H239249   1.856   0.476  11.955  0.8575 -0.9943 -1.8983
 5920TIP3   OH239250   1.017   4.806  10.406  0.2567  0.2141 -0.5484
 5920TIP3    H139251   1.096   4.798  10.352  0.0794  0.0566 -0.7904
 5920TIP3    H239252   0.994   4.899  10.401  1.5544  0.6625  1.1613
 5921TIP3   OH239253   4.620   1.039   4.117  0.3152  0.0699 -0.6504
 5921TIP3    H139254   4.563   1.004   4.049  0.1204  0.3263 -0.6207
 5921TIP3    H239255   4.708   1.011   4.091  0.0716 -1.2665 -0.1105
 5922TIP3   OH239256   2.559   3.163   5.122 -0.5096  0.3082 -0.6215
 5922TIP3    H139257   2.581   3.144   5.031 -1.3832  0.2869 -0.8456
 5922TIP3    H239258   2.543   3.257   5.124  0.2173  0.4251 -0.3298
 5923TIP3   OH239259   0.387   3.278  12.388  0.3174 -0.3480  0.1531
 5923TIP3    H139260   0.422   3.274  12.299 -1.6399  1.1120 -0.7787
 5923TIP3    H239261   0.427   3.356  12.426  0.2521 -0.3002  0.1240
 5924TIP3   OH239262   1.487   5.432   0.737  0.2952 -0.2819  0.2777
 5924TIP3    H139263   1.405   5.389   0.757 -0.2090 -0.0324 -1.1489
 5924TIP3    H239264   1.526   5.451   0.822 -1.2232 -0.2001  0.9790
 5925TIP3   OH239265   4.195   0.926  10.885  0.2558  0.4644  0.5471
 5925TIP3    H139266   4.133   0.857  10.907  2.0200 -1.4803 -0.2131
 5925TIP3    H239267   4.141   1.003  10.870 -1.8883 -0.9447  0.5934
 5926TIP3   OH239268   2.111   2.130   1.228  0.3777 -0.0694 -0.6300
 5926TIP3    H139269   2.205   2.132   1.212  0.2834  0.3413 -1.1646
 5926TIP3    H239270   2.098   2.182   1.307  0.5988 -0.1214 -0.5606
 5927TIP3   OH239271   2.648   1.688   6.091  0.5692 -0.7450 -0.0560
 5927TIP3    H139272   2.662   1.757   6.156 -1.1244 -2.6518  2.5828
 5927TIP3    H239273   2.668   1.729   6.007  0.2830  2.7273  1.3973
 5928TIP3   OH239274   3.572   0.339   1.648  0.2077  1.0016  0.0649
 5928TIP3    H139275   3.554   0.254   1.608  2.1010  0.3114  0.5900
 5928TIP3    H239276   3.485   0.376   1.667 -0.6813 -0.0424 -1.7090
 5929TIP3   OH239277   0.263   3.743   2.808 -0.5389 -0.5551  0.3308
 5929TIP3    H139278   0.167   3.744   2.798 -0.4936 -0.5416 -0.1455
 5929TIP3    H239279   0.292   3.820   2.759 -0.2242 -1.0429 -0.2636
 5930TIP3   OH239280   0.580   1.471   1.022  0.0391 -0.4831  0.0990
 5930TIP3    H139281   0.504   1.428   1.061 -1.5872  0.1521 -2.1985
 5930TIP3    H239282   0.633   1.399   0.988 -0.7419 -0.8516 -0.3676
 5931TIP3   OH239283   0.841   2.218   4.403  0.9032  0.4252  0.0574
 5931TIP3    H139284   0.792   2.199   4.483 -2.2177  2.4523 -1.1789
 5931TIP3    H239285   0.879   2.304   4.418  0.2552  0.8402 -0.6432
 5932TIP3   OH239286   3.703   3.196  14.086 -0.1600 -0.4670  0.1338
 5932TIP3    H139287   3.641   3.244  14.031 -1.0893 -0.4510  1.1775
 5932TIP3    H239288   3.669   3.107  14.089 -0.1277 -0.4625  0.7066
 5933TIP3   OH239289   0.811   0.473   1.941  0.1676 -0.1701  0.3452
 5933TIP3    H139290   0.753   0.432   2.006 -3.2594  0.3064 -2.1189
 5933TIP3    H239291   0.871   0.403   1.915  0.4208 -0.8803  2.6078
 5934TIP3   OH239292   0.538   0.266  10.358 -0.9074  0.0837  0.0984
 5934TIP3    H139293   0.503   0.282  10.271 -2.1281  0.9063  0.7158
 5934TIP3    H239294   0.463   0.233  10.408 -1.1569  2.8127  1.7167
 5935TIP3   OH239295   5.406   1.978  12.362  0.4136 -0.4622 -0.2319
 5935TIP3    H139296   5.397   2.060  12.411  0.5805  0.0486 -1.0367
 5935TIP3    H239297   5.369   1.997  12.276  1.0234 -1.0388 -0.6349
 5936TIP3   OH239298   5.067   1.063   4.153  0.2291  0.3979 -0.4984
 5936TIP3    H139299   5.151   1.072   4.109 -0.1591 -0.2006 -1.3879
 5936TIP3    H239300   5.062   1.140   4.210  0.9858  0.9104 -1.0974
 5937TIP3   OH239301   3.680   1.696   1.375  0.6420 -0.7940  0.3731
 5937TIP3    H139302   3.605   1.669   1.429 -0.9646  0.9295 -0.8593
 5937TIP3    H239303   3.677   1.638   1.299 -0.1853 -0.0042 -0.2204
 5938TIP3   OH239304   4.089   1.988   3.640 -0.7233  0.1958  0.2353
 5938TIP3    H139305   4.067   1.896   3.658 -0.1207 -0.2358 -1.1252
 5938TIP3    H239306   4.119   2.022   3.724 -3.2432 -0.1422  1.3769
 5939TIP3   OH239307   0.782   3.598  13.073 -0.3366 -0.0063 -0.2175
 5939TIP3    H139308   0.688   3.578  13.077 -0.4535  0.6176  0.5832
 5939TIP3    H239309   0.809   3.573  12.985 -0.8870 -1.7744  0.0834
 5940TIP3   OH239310   0.420   1.579   1.888 -0.2291  0.1192  1.1995
 5940TIP3    H139311   0.404   1.574   1.794 -0.0010  0.5052  1.1394
 5940TIP3    H239312   0.338   1.613   1.924  0.0537  1.0439  1.0106
 5941TIP3   OH239313   0.979   1.277   0.834  0.5114  0.1609 -0.2803
 5941TIP3    H139314   0.923   1.339   0.786 -0.7852 -1.6480 -1.2102
 5941TIP3    H239315   0.938   1.271   0.920 -0.9550 -1.3317 -1.0311
 5942TIP3   OH239316   2.110   1.586   4.798 -0.5847 -0.2674 -0.7379
 5942TIP3    H139317   2.192   1.598   4.846 -1.4436 -0.5251  0.8607
 5942TIP3    H239318   2.114   1.496   4.765 -0.1515 -0.2155 -0.8339
 5943TIP3   OH239319   3.353   4.170   5.808 -0.1191  0.8412  0.0365
 5943TIP3    H139320   3.332   4.141   5.720  0.3333 -1.6956  0.6911
 5943TIP3    H239321   3.448   4.185   5.807  0.4575 -2.1554  0.7608
 5944TIP3   OH239322   1.947   2.856  11.294  0.5390 -0.0624  0.1680
 5944TIP3    H139323   1.972   2.935  11.342 -0.6080  0.1740  0.4163
 5944TIP3    H239324   1.893   2.888  11.222 -0.2010 -0.6320  0.4531
 5945TIP3   OH239325   3.341   2.253   4.040 -0.0012  0.3242  0.0358
 5945TIP3    H139326   3.257   2.208   4.039  1.0959 -2.0962  3.0859
 5945TIP3    H239327   3.320   2.342   4.071 -1.5189  0.0555 -0.1517
 5946TIP3   OH239328   5.910   0.112   0.354 -0.4856 -0.6633  0.1608
 5946TIP3    H139329   5.984   0.062   0.388  0.2494 -0.0941 -0.5834
 5946TIP3    H239330   5.869   0.150   0.432  0.1277 -0.8166  0.5615
 5947TIP3   OH239331   0.406   0.659   3.608  0.1470  0.0108  0.0329
 5947TIP3    H139332   0.395   0.566   3.624 -0.2996 -0.0607 -0.6620
 5947TIP3    H239333   0.467   0.664   3.534 -1.4372  0.1955 -1.3086
 5948TIP3   OH239334   3.045   2.874  12.426 -0.0853  0.2342 -0.0250
 5948TIP3    H139335   2.985   2.943  12.456  0.7891  0.8058  0.4391
 5948TIP3    H239336   2.992   2.822  12.365 -1.4048  0.0164  1.2521
 5949TIP3   OH239337   5.013   3.796   0.381  0.1081 -0.3160  0.0416
 5949TIP3    H139338   4.943   3.734   0.361 -1.0022  0.9724 -0.1894
 5949TIP3    H239339   5.032   3.839   0.298 -0.9527  1.4475  0.6526
 5950TIP3   OH239340   4.825   0.926  10.717 -0.3373 -0.0949  0.1258
 5950TIP3    H139341   4.755   0.922  10.653 -1.0654 -1.4060  0.9459
 5950TIP3    H239342   4.809   0.851  10.774  0.8663  0.4451  1.2289
 5951TIP3   OH239343   6.061   2.466   1.689  0.1868 -0.6950 -0.2044
 5951TIP3    H139344   6.023   2.488   1.774  2.8179  0.7113  0.7107
 5951TIP3    H239345   6.079   2.551   1.648 -2.2751 -1.2993 -2.8866
 5952TIP3   OH239346   6.615   0.649   4.398  0.2029 -0.3301 -0.4707
 5952TIP3    H139347   6.566   0.660   4.479 -0.0693 -2.1584 -0.3347
 5952TIP3    H239348   6.572   0.706   4.335 -0.6715 -0.2115  0.2230
 5953TIP3   OH239349   1.287   5.055  12.463 -0.3425  0.1383 -0.0363
 5953TIP3    H139350   1.208   5.030  12.416 -1.1761  0.0133  1.3934
 5953TIP3    H239351   1.287   5.151  12.462 -0.7424  0.1402  0.3511
 5954TIP3   OH239352   3.691   0.687   5.196  0.0820  0.0138 -0.0393
 5954TIP3    H139353   3.701   0.781   5.212 -0.7035 -0.0161  0.6889
 5954TIP3    H239354   3.605   0.679   5.155 -0.5764 -0.5322  1.3821
 5955TIP3   OH239355   4.891   2.188  13.399 -0.0303 -0.2978  0.6051
 5955TIP3    H139356   4.893   2.098  13.431 -1.2394 -0.5454  0.0746
 5955TIP3    H239357   4.807   2.195  13.353  0.8005  0.5860 -0.8600
 5956TIP3   OH239358   2.426   3.879   5.257 -0.0463  0.2090 -0.4232
 5956TIP3    H139359   2.488   3.861   5.328 -2.1117 -1.5269  1.0912
 5956TIP3    H239360   2.417   3.974   5.257  1.5815  0.4016  0.1938
 5957TIP3   OH239361   0.728   0.238   1.509 -0.3820  0.1812 -0.2175
 5957TIP3    H139362   0.681   0.320   1.528  1.4082  2.3637 -3.9465
 5957TIP3    H239363   0.819   0.265   1.497  0.8777 -2.9592  1.2230
 5958TIP3   OH239364   5.286   2.733   2.958  0.3419 -0.4551  0.0791
 5958TIP3    H139365   5.243   2.660   2.913  0.5259 -1.6130  1.6722
 5958TIP3    H239366   5.372   2.740   2.917 -0.8213  1.1065 -2.3355
 5959TIP3   OH239367   4.059   6.854  16.901  0.6644  0.0839 -0.1970
 5959TIP3    H139368   4.037   6.843  16.994 -0.7782  1.5181 -0.3372
 5959TIP3    H239369   3.999   6.921  16.869  1.9954  0.5564 -1.8781
 5960TIP3   OH239370   4.544   3.127  14.628  0.1690  0.1434 -0.0282
 5960TIP3    H139371   4.629   3.097  14.595  0.1508  0.0246  0.0323
 5960TIP3    H239372   4.553   3.222  14.634  0.0166  0.2183 -0.8252
 5961TIP3   OH239373   5.965   3.864  16.023  0.1919  0.2821 -0.3385
 5961TIP3    H139374   6.035   3.923  16.052  1.2854 -0.7706 -0.7185
 5961TIP3    H239375   5.920   3.912  15.954  2.0996  0.1130 -1.7936
 5962TIP3   OH239376   6.303   3.675  10.540  0.4863 -0.5869 -0.0654
 5962TIP3    H139377   6.229   3.632  10.584 -0.3578  0.4523 -0.4482
 5962TIP3    H239378   6.323   3.750  10.596 -0.0113  0.2328 -0.9616
 5963TIP3   OH239379   0.672   0.323   2.110 -0.1267  0.8385 -0.3223
 5963TIP3    H139380   0.725   0.263   2.162  1.9629  1.6421 -1.4275
 5963TIP3    H239381   0.649   0.274   2.032 -0.1515  0.8324 -0.3113
 5964TIP3   OH239382   1.937   2.605   2.380  0.1981  0.0634  0.3428
 5964TIP3    H139383   1.918   2.636   2.292 -0.9773 -1.0361  0.1714
 5964TIP3    H239384   1.902   2.673   2.438  0.1416  0.3596 -0.0431
 5965TIP3   OH239385   6.310   2.018   3.850 -0.5031  0.3434 -0.0869
 5965TIP3    H139386   6.311   2.113   3.841 -0.1200  0.2982 -0.5749
 5965TIP3    H239387   6.284   1.986   3.763  2.4442 -0.0966 -0.9090
 5966TIP3   OH239388   1.980   6.731   2.021  0.1422  0.0548  0.0265
 5966TIP3    H139389   1.919   6.765   1.957 -0.9409  0.5737  1.2787
 5966TIP3    H239390   1.966   6.637   2.021 -1.4858  0.2615  1.0612
 5967TIP3   OH239391   2.474   1.986   5.948 -0.0571  0.0382 -1.0540
 5967TIP3    H139392   2.413   2.057   5.926  0.2473  1.2333  1.5434
 5967TIP3    H239393   2.473   1.983   6.044  2.8912 -0.8476 -0.9557
 5968TIP3   OH239394   6.522   6.809  15.280  0.2590  0.0332 -0.5568
 5968TIP3    H139395   6.531   6.868  15.205  1.2119 -1.8253 -1.9950
 5968TIP3    H239396   6.605   6.818  15.328  1.2705 -1.5504 -1.9161
 5969TIP3   OH239397   3.703   2.288  11.581  0.1415 -0.3173 -0.1400
 5969TIP3    H139398   3.686   2.317  11.670  2.2031 -1.8687  0.8326
 5969TIP3    H239399   3.722   2.368  11.532  2.3229  0.3531  1.6545
 5970TIP3   OH239400   4.209   3.599   3.155 -1.0949  0.3379  0.5571
 5970TIP3    H139401   4.144   3.605   3.085  0.3162  0.1774 -0.8253
 5970TIP3    H239402   4.169   3.542   3.220 -1.3451 -1.9504 -1.4633
 5971TIP3   OH239403   3.195   0.031   1.386  0.5960 -0.3521 -0.6285
 5971TIP3    H139404   3.263  -0.034   1.408  1.4682  1.8659  4.9679
 5971TIP3    H239405   3.120   0.004   1.438  0.4602  2.0791  0.5808
 5972TIP3   OH239406   3.661   0.508   3.017 -0.0344  0.2201  0.4677
 5972TIP3    H139407   3.618   0.552   3.091  0.8488  0.4007  0.8788
 5972TIP3    H239408   3.641   0.564   2.941 -0.8949  0.0627  0.5652
 5973TIP3   OH239409   5.426   3.012  12.368  0.2429  0.2758  0.1685
 5973TIP3    H139410   5.378   3.046  12.292  0.9517 -0.0588 -0.4393
 5973TIP3    H239411   5.457   2.926  12.341 -0.3956 -0.3153  1.2271
 5974TIP3   OH239412   2.102   6.257   4.002  0.2589 -0.2021  0.3276
 5974TIP3    H139413   2.148   6.278   4.083  0.0725  0.0941  0.3592
 5974TIP3    H239414   2.170   6.226   3.942  0.6245  1.0187  0.0995
 5975TIP3   OH239415   2.805   0.103   0.270 -0.1508  0.0666 -0.6057
 5975TIP3    H139416   2.889   0.058   0.264  0.1421  0.0914  2.1065
 5975TIP3    H239417   2.749   0.060   0.205  1.2601 -1.5543 -0.7924
 5976TIP3   OH239418   0.447   0.494  14.741  0.2366 -0.5653  0.2891
 5976TIP3    H139419   0.406   0.488  14.827  0.5974  1.3483  0.6235
 5976TIP3    H239420   0.458   0.402  14.714 -1.9911 -1.1661  1.2288
 5977TIP3   OH239421   1.759   4.717  11.821 -0.5790 -0.4475  0.2255
 5977TIP3    H139422   1.759   4.753  11.910  1.9164  2.0921 -0.6380
 5977TIP3    H239423   1.844   4.674  11.813 -0.1134  0.6521 -1.3166
 5978TIP3   OH239424   0.169   3.336   1.901  0.5626 -0.6845 -0.0825
 5978TIP3    H139425   0.157   3.425   1.932  0.2640 -1.4352  2.1674
 5978TIP3    H239426   0.260   3.314   1.924  0.7033 -0.8986 -0.8147
 5979TIP3   OH239427   4.544   3.663  13.377  0.3783  0.1707  0.2222
 5979TIP3    H139428   4.523   3.570  13.384 -1.9667  0.5622 -0.7453
 5979TIP3    H239429   4.560   3.690  13.468  0.9639 -1.1183  0.5273
 5980TIP3   OH239430   0.892   3.892   4.912  0.1255  0.0271 -0.2790
 5980TIP3    H139431   0.881   3.816   4.855 -0.5985  1.1969 -1.7816
 5980TIP3    H239432   0.950   3.950   4.864 -0.8158  1.2256 -0.0386
 5981TIP3   OH239433   3.216   3.217  14.406 -0.4330 -0.1413  0.0840
 5981TIP3    H139434   3.278   3.288  14.390 -1.0532  0.0993 -1.4714
 5981TIP3    H239435   3.263   3.138  14.379 -0.5525 -0.0388 -0.4328
 5982TIP3   OH239436   1.307   3.868  14.280 -0.3689 -0.3888  0.2096
 5982TIP3    H139437   1.240   3.932  14.256  0.8889  0.3877 -1.3997
 5982TIP3    H239438   1.296   3.855  14.374 -2.0125  0.5895  0.1716
 5983TIP3   OH239439   0.513   4.361   0.850  0.3339  0.2781 -0.2067
 5983TIP3    H139440   0.470   4.424   0.908 -1.9054 -1.4608  0.1392
 5983TIP3    H239441   0.507   4.278   0.896  1.0310 -0.6462 -1.7263
 5984TIP3   OH239442   1.867   4.859   5.364  0.3069 -0.1988  0.3434
 5984TIP3    H139443   1.902   4.771   5.350  0.9465 -0.0739  1.0949
 5984TIP3    H239444   1.847   4.863   5.457 -0.5790  0.1554  0.1488
 5985TIP3   OH239445   2.433   0.669   1.700 -0.3508  0.4031  0.0665
 5985TIP3    H139446   2.453   0.590   1.749 -0.0743 -0.1925 -0.9841
 5985TIP3    H239447   2.483   0.660   1.619  1.5537  2.7081  0.8490
 5986TIP3   OH239448   4.103   4.044  11.769 -0.6140  0.1259 -0.3255
 5986TIP3    H139449   4.093   3.973  11.833  0.9807 -0.2875 -0.4946
 5986TIP3    H239450   4.107   4.124  11.822  1.0990 -0.2451  0.1618
 5987TIP3   OH239451   2.868   3.211  14.091  0.2028  0.2034 -0.5028
 5987TIP3    H139452   2.881   3.297  14.130 -2.2555  0.1423  0.6669
 5987TIP3    H239453   2.913   3.151  14.150  3.6127  0.7113 -2.3464
 5988TIP3   OH239454   5.129   5.334   0.539  0.0859 -0.8883 -0.5456
 5988TIP3    H139455   5.097   5.294   0.620  0.4694  0.6615  0.4233
 5988TIP3    H239456   5.223   5.347   0.554 -0.3818  2.5732  0.2765
 5989TIP3   OH239457   0.815   4.930   2.108  0.0255  0.1862 -0.7877
 5989TIP3    H139458   0.851   4.858   2.057 -0.1883  0.4172 -1.2660
 5989TIP3    H239459   0.891   4.982   2.133  0.2342 -0.4487 -0.0429
 5990TIP3   OH239460   2.805   1.263   3.381 -0.1883  0.0259 -0.1008
 5990TIP3    H139461   2.765   1.214   3.308 -1.7192 -0.9937  1.3267
 5990TIP3    H239462   2.897   1.236   3.380 -0.2182 -0.1255 -1.5035
 5991TIP3   OH239463   4.164   0.846  11.285 -0.1376 -0.3237 -0.1126
 5991TIP3    H139464   4.255   0.845  11.316 -0.3712  3.1638  1.0946
 5991TIP3    H239465   4.161   0.777  11.218  3.8305  0.4802 -1.3897
 5992TIP3   OH239466   5.386   3.162   0.539  0.5997 -0.6341  0.0111
 5992TIP3    H139467   5.439   3.230   0.497 -1.2999 -0.9497 -3.2192
 5992TIP3    H239468   5.328   3.210   0.598 -0.1076  0.5157 -1.5622
 5993TIP3   OH239469   1.864   6.349  14.754 -0.2576 -0.2397  0.4554
 5993TIP3    H139470   1.919   6.341  14.677 -0.7928 -2.0123  0.2135
 5993TIP3    H239471   1.833   6.440  14.753  0.4165 -0.0097 -0.9259
 5994TIP3   OH239472   5.006   1.594  14.851 -0.2179 -0.1474 -0.2023
 5994TIP3    H139473   4.993   1.557  14.763 -0.8286 -0.1501 -0.1145
 5994TIP3    H239474   5.096   1.571  14.873  1.2793  2.9862 -2.3300
 5995TIP3   OH239475   4.056   0.249  12.364  0.0102 -0.0725 -0.3986
 5995TIP3    H139476   4.146   0.251  12.395  0.2592  2.2306 -1.0939
 5995TIP3    H239477   4.055   0.180  12.298  0.7103 -1.5282  1.0485
 5996TIP3   OH239478   2.883   4.974   5.028  0.4611  0.3617  0.2833
 5996TIP3    H139479   2.892   4.889   4.985  0.4748  0.4163  0.1778
 5996TIP3    H239480   2.819   5.021   4.974  0.1011  0.2460  0.6073
 5997TIP3   OH239481   3.588   1.099  14.221 -0.0731 -0.2591 -0.1587
 5997TIP3    H139482   3.504   1.093  14.267  0.6173  1.3202  1.4494
 5997TIP3    H239483   3.615   1.008  14.209 -2.7413 -0.9114 -2.2802
 5998TIP3   OH239484   4.876   4.295  14.068 -0.1902 -0.2400  0.2515
 5998TIP3    H139485   4.892   4.310  13.975  0.0474 -0.6781  0.2216
 5998TIP3    H239486   4.933   4.357  14.113  0.3796 -0.6641  0.1188
 5999TIP3   OH239487   4.113   3.843   4.213 -0.5407 -0.5144  0.5887
 5999TIP3    H139488   4.108   3.884   4.299  0.3170 -0.1431  0.4752
 5999TIP3    H239489   4.127   3.750   4.230 -1.3516 -0.6005  0.8426
 6000TIP3   OH239490   6.169   1.610   3.045  0.0419  0.4214 -0.1627
 6000TIP3    H139491   6.192   1.674   2.977 -2.3578  1.5052 -0.0703
 6000TIP3    H239492   6.171   1.660   3.127  2.1990 -0.6991  0.5332
 6001TIP3   OH239493   0.677   0.235  15.835 -0.3311 -0.7905  0.1362
 6001TIP3    H139494   0.626   0.316  15.838  0.2665 -0.4419  1.2062
 6001TIP3    H239495   0.766   0.265  15.816 -0.3154 -1.3118 -0.6660
 6002TIP3   OH239496   3.712   5.836  12.084 -0.1043 -0.0709  0.2845
 6002TIP3    H139497   3.658   5.811  12.159 -1.4907 -2.6744 -1.4210
 6002TIP3    H239498   3.651   5.879  12.024 -0.2278 -2.3563 -1.3355
 6003TIP3   OH239499   6.592   4.189  11.252 -0.1196 -0.4880 -0.0492
 6003TIP3    H139500   6.675   4.151  11.280 -0.0715 -0.6947 -0.4649
 6003TIP3    H239501   6.583   4.270  11.303  0.9613  0.2145 -0.9187
 6004TIP3   OH239502   0.906   6.376  16.631 -0.1187  0.1553  0.4427
 6004TIP3    H139503   0.893   6.295  16.681  1.6781 -0.0078  0.7421
 6004TIP3    H239504   0.881   6.446  16.691  1.4309 -0.0660  1.3990
 6005TIP3   OH239505   1.184   4.206  11.132 -0.5517  0.2050 -0.0277
 6005TIP3    H139506   1.162   4.140  11.066  2.5329  0.7922 -1.8573
 6005TIP3    H239507   1.263   4.172  11.174 -1.9737  0.2575  2.8914
 6006TIP3   OH239508   6.301   2.177   5.045 -0.2032 -0.3080  0.2832
 6006TIP3    H139509   6.289   2.263   5.006 -2.7386  1.0794  3.6016
 6006TIP3    H239510   6.259   2.117   4.982 -2.0193  1.4506 -0.3096
 6007TIP3   OH239511   1.241   1.052   1.838  0.1020  0.6918  0.3111
 6007TIP3    H139512   1.145   1.047   1.846  0.1815  0.9557  1.8488
 6007TIP3    H239513   1.267   0.964   1.812 -0.4451  0.0475  1.7919
 6008TIP3   OH239514   2.513   6.794  13.657 -0.3934 -0.1369  0.3750
 6008TIP3    H139515   2.500   6.711  13.610 -0.6015 -0.7205  1.4258
 6008TIP3    H239516   2.446   6.852  13.621  0.2845 -0.1483 -0.9621
 6009TIP3   OH239517   6.097   2.822   3.926 -0.8699  0.0942  0.0681
 6009TIP3    H139518   6.019   2.821   3.982  0.0985 -1.9604  1.5461
 6009TIP3    H239519   6.169   2.805   3.987  0.5992  0.6988 -1.4398
 6010TIP3   OH239520   0.119   3.638  11.596  0.2957  0.2823 -0.2085
 6010TIP3    H139521   0.167   3.567  11.555  1.7013  2.0020 -1.7078
 6010TIP3    H239522   0.060   3.670  11.528 -0.3784  0.5233  0.4725
 6011TIP3   OH239523   5.197   6.626  14.045  0.2054  0.4261 -0.0874
 6011TIP3    H139524   5.202   6.557  14.111 -0.8275  1.8862  1.6016
 6011TIP3    H239525   5.287   6.636  14.014  0.4785 -1.2253  0.0625
 6012TIP3   OH239526   2.367   4.530  14.190 -0.0675 -0.1834  0.3006
 6012TIP3    H139527   2.436   4.485  14.140 -0.5325  0.4608 -0.9681
 6012TIP3    H239528   2.395   4.621  14.193  0.2684 -0.3031  1.8245
 6013TIP3   OH239529   1.035   2.630  13.652 -0.0293 -0.0825 -0.3491
 6013TIP3    H139530   0.948   2.621  13.690 -0.9765  1.3035 -2.0562
 6013TIP3    H239531   1.028   2.591  13.565  1.1277 -0.1535 -0.4337
 6014TIP3   OH239532   2.548   6.178   1.529 -0.9284 -0.1491  0.0371
 6014TIP3    H139533   2.616   6.244   1.520 -0.5316 -0.4181  0.9879
 6014TIP3    H239534   2.489   6.194   1.455  1.3244 -1.3019 -2.1605
 6015TIP3   OH239535   2.571   5.489  11.784 -0.0749  0.2757 -0.3996
 6015TIP3    H139536   2.510   5.415  11.793  1.6652 -1.4922 -2.0447
 6015TIP3    H239537   2.515   5.566  11.784 -1.8790 -0.7832  3.3209
 6016TIP3   OH239538   0.655   2.841   3.008  0.1524 -0.2108  0.3524
 6016TIP3    H139539   0.603   2.826   2.929  1.8656 -0.0208 -0.8760
 6016TIP3    H239540   0.612   2.789   3.075 -0.4362 -1.6861 -1.1036
 6017TIP3   OH239541   3.011   6.190  11.876 -0.3014 -0.3605 -0.4422
 6017TIP3    H139542   3.027   6.143  11.958 -0.9563 -0.7537 -0.5326
 6017TIP3    H239543   3.098   6.220  11.849 -0.2723  1.2052  1.2339
 6018TIP3   OH239544   0.290   0.508   6.376 -0.0808 -0.2815 -0.5593
 6018TIP3    H139545   0.261   0.475   6.291 -1.5971  0.4962 -0.3906
 6018TIP3    H239546   0.318   0.598   6.359 -0.9578  0.0793 -0.1600
 6019TIP3   OH239547   6.680   6.386   5.859 -0.7976  1.2043 -0.0226
 6019TIP3    H139548   6.684   6.439   5.939  0.8946  1.6529 -0.3624
 6019TIP3    H239549   6.703   6.447   5.789  0.8973  0.1323 -0.4524
 6020TIP3   OH239550   2.299   0.313  16.040 -0.6472 -0.2596  0.1939
 6020TIP3    H139551   2.334   0.398  16.067 -1.3346 -0.1860  0.8895
 6020TIP3    H239552   2.218   0.303  16.091 -0.4714 -1.4172  0.2685
 6021TIP3   OH239553   3.792   4.182  11.711  0.8072 -0.0311  0.1929
 6021TIP3    H139554   3.814   4.253  11.651  1.8730  0.6938  1.3854
 6021TIP3    H239555   3.757   4.113  11.655  0.0267  1.3014 -1.0366
 6022TIP3   OH239556   1.538   5.512  10.843  0.8644 -0.2707  0.6346
 6022TIP3    H139557   1.478   5.570  10.796  1.0515 -2.5761 -2.7555
 6022TIP3    H239558   1.623   5.556  10.838  0.6205  0.1378 -0.0497
 6023TIP3   OH239559   2.184   5.108   2.065  0.1813  0.0159  0.8439
 6023TIP3    H139560   2.273   5.138   2.080 -0.0792  0.5976  1.2172
 6023TIP3    H239561   2.190   5.058   1.983  0.7727  0.3694  0.6622
 6024TIP3   OH239562   2.694   2.164  13.874 -0.1199 -0.2804  0.8799
 6024TIP3    H139563   2.637   2.217  13.930 -1.5423  0.0285 -0.7652
 6024TIP3    H239564   2.634   2.123  13.812  1.5682  2.8676 -3.2945
 6025TIP3   OH239565   2.613   4.531  11.671  0.4347  0.0641 -0.5139
 6025TIP3    H139566   2.704   4.543  11.698  0.1242 -0.9397  1.1746
 6025TIP3    H239567   2.617   4.468  11.599  1.1142  0.5669 -0.9229
 6026TIP3   OH239568   0.864   4.694  12.244 -0.6860  0.2355 -0.1503
 6026TIP3    H139569   0.854   4.639  12.322 -0.3031 -0.5878 -0.6710
 6026TIP3    H239570   0.774   4.703  12.211 -0.6924 -0.5141 -0.3519
 6027TIP3   OH239571   4.784   5.560  14.123 -0.0732 -0.0305 -0.2347
 6027TIP3    H139572   4.717   5.493  14.110 -0.1073  0.0558 -0.5118
 6027TIP3    H239573   4.734   5.637  14.151 -0.4862  0.9442 -3.2470
 6028TIP3   OH239574   3.000   0.734  16.354  0.9638  0.1771 -0.4595
 6028TIP3    H139575   2.953   0.735  16.271 -0.3459 -0.3259  0.2383
 6028TIP3    H239576   3.016   0.641  16.372  1.7958  0.3157 -0.4430
 6029TIP3   OH239577   1.478   3.735  17.087  0.4970  0.0177 -0.2561
 6029TIP3    H139578   1.556   3.767  17.041 -0.6414  1.8650 -1.0504
 6029TIP3    H239579   1.465   3.647  17.053 -1.1697  1.7534 -4.9232
 6030TIP3   OH239580   0.131   0.606   5.034  0.4319 -0.1579 -0.0262
 6030TIP3    H139581   0.171   0.529   4.995  0.0445  0.2314 -1.2172
 6030TIP3    H239582   0.205   0.654   5.072  0.6244 -1.3322  1.1869
 6031TIP3   OH239583   0.686   1.160   5.443  0.2470 -0.4550  0.6795
 6031TIP3    H139584   0.693   1.184   5.536 -1.5746  0.9135  0.5304
 6031TIP3    H239585   0.645   1.074   5.443 -1.4803  0.3123  1.1906
 6032TIP3   OH239586   1.241   2.443   0.445 -0.0551  0.3027 -0.0128
 6032TIP3    H139587   1.313   2.505   0.433 -0.9765  1.2619 -0.8964
 6032TIP3    H239588   1.268   2.388   0.519  1.4910  0.7347 -0.2228
 6033TIP3   OH239589   4.341   4.252   4.399 -0.4325  0.0069  0.0901
 6033TIP3    H139590   4.259   4.225   4.358  0.0872 -1.6004  0.0407
 6033TIP3    H239591   4.393   4.289   4.328 -0.4623 -0.5641 -0.2352
 6034TIP3   OH239592   5.130   0.572  10.837 -0.1662 -0.0610  0.6022
 6034TIP3    H139593   5.176   0.489  10.825 -0.2732 -0.0830  0.3376
 6034TIP3    H239594   5.048   0.548  10.881  0.5523  0.1049  2.1137
 6035TIP3   OH239595   1.076   1.131  11.228  0.1532  0.2341 -0.0877
 6035TIP3    H139596   1.078   1.169  11.140  0.3384 -1.5138 -0.8705
 6035TIP3    H239597   1.145   1.065  11.228 -0.5416 -0.5384  1.0119
 6036TIP3   OH239598   5.620   0.705  16.099  0.2705 -0.6015 -0.3565
 6036TIP3    H139599   5.606   0.779  16.040  1.7671  0.0115  0.0216
 6036TIP3    H239600   5.694   0.658  16.060  0.4434 -0.9186  0.3526
 6037TIP3   OH239601   4.146   1.168  14.313 -0.6517 -0.1817 -0.6469
 6037TIP3    H139602   4.062   1.129  14.293 -0.8430 -0.2214  0.2171
 6037TIP3    H239603   4.166   1.222  14.236 -0.5398 -1.6808 -1.7078
 6038TIP3   OH239604   5.001   1.827   3.217  0.1361  0.7954 -0.0084
 6038TIP3    H139605   5.010   1.920   3.196 -0.9024  0.5270 -1.9199
 6038TIP3    H239606   5.081   1.788   3.182  0.3374  0.9012  0.3313
 6039TIP3   OH239607   5.461   3.125  17.068  0.0308  0.1348 -0.0928
 6039TIP3    H139608   5.550   3.090  17.075  0.0159  0.4353  2.6659
 6039TIP3    H239609   5.434   3.140  17.159 -4.0020 -2.7849 -0.5549
 6040TIP3   OH239610   6.607   1.352  13.075  0.1657  0.4719 -0.5523
 6040TIP3    H139611   6.618   1.273  13.129  0.3834  0.8519 -0.0420
 6040TIP3    H239612   6.535   1.400  13.116 -1.2192 -0.3335 -1.9114
 6041TIP3   OH239613   0.252   0.882  10.426 -0.0157  0.2048  0.0663
 6041TIP3    H139614   0.317   0.819  10.395 -0.1018 -0.1876  0.6607
 6041TIP3    H239615   0.264   0.959  10.370  1.3760  0.3721  0.5639
 6042TIP3   OH239616   4.052   4.332  15.511 -0.0054 -0.1309  0.5465
 6042TIP3    H139617   3.991   4.353  15.440 -0.5982 -2.0352  0.4316
 6042TIP3    H239618   4.101   4.257  15.478  0.4174 -0.4034  1.7729
 6043TIP3   OH239619   1.288   1.046  13.764  0.0602 -0.3149  0.2415
 6043TIP3    H139620   1.304   0.952  13.771  0.9887 -0.1730  0.1857
 6043TIP3    H239621   1.375   1.085  13.762 -0.3183  0.5789  0.6156
 6044TIP3   OH239622   6.370   3.987  14.052 -0.0979  0.3046 -0.2192
 6044TIP3    H139623   6.323   3.921  14.103  2.1238 -0.3545  1.1356
 6044TIP3    H239624   6.332   3.982  13.965 -2.4562 -0.1743  0.7773
 6045TIP3   OH239625   5.124   3.743   3.174  0.5690  0.0190 -0.0316
 6045TIP3    H139626   5.124   3.838   3.167 -0.2740 -0.0295 -1.0362
 6045TIP3    H239627   5.212   3.720   3.202 -0.5083  1.4136  5.7266
 6046TIP3   OH239628   6.198   0.798  15.162  0.0755  0.1001  0.0871
 6046TIP3    H139629   6.238   0.830  15.243  1.7844 -0.8989 -0.3141
 6046TIP3    H239630   6.216   0.704  15.162 -1.2425 -0.1684 -0.7324
 6047TIP3   OH239631   0.463   5.506  12.504 -0.3276  0.3492  0.5431
 6047TIP3    H139632   0.503   5.563  12.571  0.3661 -0.0304  0.4672
 6047TIP3    H239633   0.488   5.418  12.531 -1.0069  0.1118  0.4010
 6048TIP3   OH239634   6.237   1.367   1.181 -0.0509  0.1413  0.2605
 6048TIP3    H139635   6.312   1.310   1.165 -0.9222 -0.3672 -2.3679
 6048TIP3    H239636   6.175   1.312   1.229 -0.3306 -0.7556 -1.0722
 6049TIP3   OH239637   0.706   2.050  15.534 -0.0068 -0.3234 -0.0087
 6049TIP3    H139638   0.795   2.045  15.570 -0.3807 -0.0968  0.9918
 6049TIP3    H239639   0.649   2.053  15.612 -0.8297  0.6011 -0.6193
 6050TIP3   OH239640   5.441   0.957   0.682 -0.1906 -0.3798  0.2229
 6050TIP3    H139641   5.487   0.883   0.642 -0.8856 -0.9373  0.4315
 6050TIP3    H239642   5.509   1.021   0.702  0.2955 -0.5491 -0.8643
 6051TIP3   OH239643   1.071   2.848  12.353  0.1291  0.1503 -0.3594
 6051TIP3    H139644   1.003   2.810  12.297 -1.5632  1.5412  0.6612
 6051TIP3    H239645   1.103   2.923  12.304  0.8822 -0.4282 -0.7814
 6052TIP3   OH239646   1.528   4.096   4.860 -0.3818  0.0937 -0.2070
 6052TIP3    H139647   1.581   4.039   4.916 -0.7908 -0.7340 -0.6487
 6052TIP3    H239648   1.589   4.165   4.831  0.7110 -1.3297 -1.4359
 6053TIP3   OH239649   5.370   0.657   1.660  0.0702 -0.6000 -0.3623
 6053TIP3    H139650   5.316   0.646   1.738  1.1262  2.0073  0.8470
 6053TIP3    H239651   5.454   0.617   1.683  0.5939  0.7383  0.1422
 6054TIP3   OH239652   1.682   1.599   2.327 -0.2551 -0.3269 -0.2981
 6054TIP3    H139653   1.776   1.582   2.327 -0.0471  0.7517 -0.2588
 6054TIP3    H239654   1.667   1.650   2.247 -0.5256  0.8987  0.5060
 6055TIP3   OH239655   5.885   4.702   4.559 -0.3852 -0.1840  0.2467
 6055TIP3    H139656   5.801   4.747   4.551 -0.3267  0.3723  2.2844
 6055TIP3    H239657   5.890   4.675   4.650  1.3319 -0.8746 -0.0076
 6056TIP3   OH239658   0.915   0.371   3.186  0.5463  0.1171 -0.5810
 6056TIP3    H139659   0.993   0.389   3.240  0.6445  0.0349 -0.6958
 6056TIP3    H239660   0.931   0.284   3.149  0.4910  0.1853 -0.7657
 6057TIP3   OH239661   6.143   3.571  14.996 -0.2951 -0.3590  0.0397
 6057TIP3    H139662   6.165   3.594  15.086 -2.0846 -1.4909  0.8296
 6057TIP3    H239663   6.175   3.481  14.986  0.6304  0.0428 -0.7480
 6058TIP3   OH239664   3.467   1.394   4.592  0.7921 -0.0884  0.5324
 6058TIP3    H139665   3.393   1.336   4.575  0.6587  0.0751  0.5411
 6058TIP3    H239666   3.471   1.451   4.515  2.3953 -1.6080 -0.5855
 6059TIP3   OH239667   6.706   0.199  13.124  0.2454  0.2696  0.4645
 6059TIP3    H139668   6.788   0.237  13.092  0.8097 -1.4531 -0.2378
 6059TIP3    H239669   6.694   0.120  13.072 -0.3441 -1.0814  2.5378
 6060TIP3   OH239670   4.799   3.728  15.492 -0.2188  0.0249 -0.2613
 6060TIP3    H139671   4.834   3.815  15.510 -0.5472  0.0304  0.3622
 6060TIP3    H239672   4.875   3.675  15.467 -0.1326  0.7230 -1.5954
 6061TIP3   OH239673   3.272   3.571  12.761 -0.1333  0.3935 -0.1468
 6061TIP3    H139674   3.254   3.497  12.704  0.6510  0.5345 -0.5870
 6061TIP3    H239675   3.195   3.577  12.818 -0.6220 -0.1609 -0.7436
 6062TIP3   OH239676   6.543   6.560   5.630  0.3868 -0.2686 -0.6400
 6062TIP3    H139677   6.588   6.642   5.648 -0.1814 -0.0892  0.0073
 6062TIP3    H239678   6.554   6.546   5.536 -0.5160  1.1693 -0.9821
 6063TIP3   OH239679   0.520   3.951   0.728  0.1030 -0.1338 -0.3078
 6063TIP3    H139680   0.450   4.000   0.685 -0.6739 -0.5047  0.5221
 6063TIP3    H239681   0.511   3.862   0.695  1.2022  0.1386 -1.4261
 6064TIP3   OH239682   6.850   3.809  14.202  0.2413 -0.2796 -0.0385
 6064TIP3    H139683   6.767   3.769  14.228  0.4191 -1.5206 -1.3111
 6064TIP3    H239684   6.846   3.898  14.239 -2.2272  0.1626 -1.1944
 6065TIP3   OH239685   0.050   6.376  13.853 -0.5606  0.0543  0.0207
 6065TIP3    H139686   0.061   6.297  13.801 -1.5453 -0.5274  0.6675
 6065TIP3    H239687   0.139   6.409  13.865 -0.2616 -0.1972 -1.4020
 6066TIP3   OH239688   1.745   3.199  14.297  0.7689 -0.1465 -0.3802
 6066TIP3    H139689   1.818   3.152  14.338  0.2308 -0.7689 -0.1194
 6066TIP3    H239690   1.730   3.154  14.214 -0.1248 -0.8275  0.1297
 6067TIP3   OH239691   3.201   2.833   3.510  0.0288  0.1130  0.3450
 6067TIP3    H139692   3.215   2.750   3.464  1.3385 -0.0196  0.9234
 6067TIP3    H239693   3.240   2.819   3.597 -0.2487  1.1433  0.6475
 6068TIP3   OH239694   0.499   6.188   5.777 -0.3587  0.2051  0.0472
 6068TIP3    H139695   0.472   6.097   5.779  0.2334  0.0349  0.2831
 6068TIP3    H239696   0.566   6.196   5.844  0.3846  0.5544 -0.7174
 6069TIP3   OH239697   6.217   3.926  16.971  0.2497  0.0619 -0.0311
 6069TIP3    H139698   6.216   3.867  17.047 -0.0543 -1.8750 -1.4347
 6069TIP3    H239699   6.153   3.887  16.911 -0.0316  1.9386 -0.9963
 6070TIP3   OH239700   6.400   4.918   3.181  0.1027  0.0075  0.1856
 6070TIP3    H139701   6.478   4.863   3.171 -1.0531 -1.3234 -2.2552
 6070TIP3    H239702   6.368   4.932   3.092 -2.1781  0.9441  1.0673
 6071TIP3   OH239703   0.383   3.786  16.566 -0.2948  0.1827  0.6589
 6071TIP3    H139704   0.428   3.853  16.618  0.1181 -0.6779  1.4365
 6071TIP3    H239705   0.438   3.775  16.489  0.5073 -0.3843  1.2851
 6072TIP3   OH239706   6.138   2.082  15.311  0.1092 -0.1610  0.5260
 6072TIP3    H139707   6.079   2.111  15.241  0.9159  0.4831  0.0945
 6072TIP3    H239708   6.193   2.158  15.329  0.8533 -0.7700  0.8656
 6073TIP3   OH239709   3.051   2.250   2.287 -0.1256 -0.1552 -0.7143
 6073TIP3    H139710   2.992   2.317   2.321  1.0282 -0.7654  2.9446
 6073TIP3    H239711   3.044   2.178   2.350  3.8482 -0.5752 -0.5000
 6074TIP3   OH239712   4.876   1.809  15.334 -0.0790  0.2485 -0.3336
 6074TIP3    H139713   4.930   1.787  15.258  0.0484  0.6661 -0.3630
 6074TIP3    H239714   4.913   1.890  15.368  1.6350 -1.2916  1.8309
 6075TIP3   OH239715   5.360   3.856   5.770  0.1657  0.5192  0.8756
 6075TIP3    H139716   5.447   3.897   5.774 -0.0827  0.9804  2.1882
 6075TIP3    H239717   5.335   3.863   5.678  0.4078  2.8237  0.9054
 6076TIP3   OH239718   3.693   2.449  12.993 -0.0724  0.8995  0.6823
 6076TIP3    H139719   3.687   2.521  12.930  0.1737  0.1660 -0.2005
 6076TIP3    H239720   3.786   2.426  12.995 -0.5135 -1.7965 -1.8923
 6077TIP3   OH239721   1.871   3.144   4.914  0.2130 -0.5028  0.3823
 6077TIP3    H139722   1.798   3.082   4.912  0.5523 -0.9009 -0.5319
 6077TIP3    H239723   1.941   3.099   4.867  1.1515 -0.2421  1.4895
 6078TIP3   OH239724   5.972   5.979   3.946  0.0571  0.5667  0.4985
 6078TIP3    H139725   6.051   6.016   3.987 -0.0926 -0.0055  1.3137
 6078TIP3    H239726   5.956   6.037   3.871  1.2136  0.7305  0.3467
 6079TIP3   OH239727   3.957   1.885  14.565 -0.6704  0.2160  0.1962
 6079TIP3    H139728   3.870   1.904  14.599 -0.2002  0.6378  1.2208
 6079TIP3    H239729   3.978   1.960  14.510 -0.5482  0.6310  0.7929
 6080TIP3   OH239730   4.255   6.843   3.937  0.1547  0.3851 -0.1880
 6080TIP3    H139731   4.236   6.932   3.907 -0.1756  0.6512  0.7693
 6080TIP3    H239732   4.252   6.849   4.032 -0.7765 -0.8575 -0.1218
 6081TIP3   OH239733   0.249   5.294   2.342  0.0381 -0.0015 -0.1906
 6081TIP3    H139734   0.247   5.294   2.246 -1.2993 -2.8956 -0.2518
 6081TIP3    H239735   0.315   5.229   2.366 -1.2740 -1.0259  0.7867
 6082TIP3   OH239736   2.634   2.327  17.047 -0.5048  0.3548  0.0103
 6082TIP3    H139737   2.551   2.286  17.021 -0.6123  1.6956 -1.9658
 6082TIP3    H239738   2.612   2.419  17.059  0.7754  0.8218 -1.0341
 6083TIP3   OH239739   4.400   6.426  17.028 -0.6201  0.1534  0.0968
 6083TIP3    H139740   4.324   6.454  17.080  0.1039  1.3170  0.5545
 6083TIP3    H239741   4.414   6.334  17.054 -1.5928  0.0610  0.3332
 6084TIP3   OH239742   2.329   4.759   5.901 -0.1412 -0.0652  0.0332
 6084TIP3    H139743   2.239   4.782   5.922 -0.4839 -1.4169  0.1570
 6084TIP3    H239744   2.375   4.762   5.985 -0.5960 -1.5426  0.3576
 6085TIP3   OH239745   5.871   0.233   0.610 -0.1572 -0.0439 -0.1259
 6085TIP3    H139746   5.893   0.195   0.695 -0.2002  0.4425  0.1060
 6085TIP3    H239747   5.817   0.308   0.631 -0.2303  0.0350 -0.5907
 6086TIP3   OH239748   5.786   3.820   6.364  0.5838 -0.5910  0.3381
 6086TIP3    H139749   5.725   3.870   6.418 -0.7594  0.3114 -1.8560
 6086TIP3    H239750   5.868   3.868   6.371 -0.3079  1.1853 -0.5677
 6087TIP3   OH239751   2.936   0.612  13.493 -0.4613  0.4359 -0.2676
 6087TIP3    H139752   2.949   0.596  13.400 -1.3475 -1.0723 -0.1759
 6087TIP3    H239753   2.947   0.707  13.503 -1.8237  0.8645 -2.1699
 6088TIP3   OH239754   6.333   1.536  11.604  0.1001 -0.2554 -0.0352
 6088TIP3    H139755   6.357   1.466  11.543 -2.0028 -0.9134 -0.1741
 6088TIP3    H239756   6.332   1.615  11.551  3.4924  0.1925  0.3206
 6089TIP3   OH239757   1.153   0.599   4.513 -0.0045  0.1074 -0.2234
 6089TIP3    H139758   1.121   0.615   4.424 -1.9412 -0.1030  0.3788
 6089TIP3    H239759   1.101   0.524   4.543 -1.4904  1.9126  2.0667
 6090TIP3   OH239760   4.033   0.911   1.074 -0.2945  0.5406  0.2066
 6090TIP3    H139761   4.007   0.994   1.116  1.1921  0.6402  1.0098
 6090TIP3    H239762   3.951   0.865   1.060 -1.0371  1.5014  1.1717
 6091TIP3   OH239763   3.429   0.553  13.115  0.0195  0.6572  0.3484
 6091TIP3    H139764   3.432   0.472  13.064  0.5517 -0.0708  1.4878
 6091TIP3    H239765   3.336   0.566  13.135  0.0294 -0.3332  1.1318
 6092TIP3   OH239766   4.491   3.865  14.365  0.8174 -0.5622 -0.3571
 6092TIP3    H139767   4.437   3.885  14.289  0.9023  2.5297  0.2843
 6092TIP3    H239768   4.581   3.865  14.331  0.7485 -0.9889 -0.5516
 6093TIP3   OH239769   5.921   0.304   3.669 -0.0484  0.2561  0.1122
 6093TIP3    H139770   5.878   0.372   3.616 -0.0635  0.3414  0.2335
 6093TIP3    H239771   6.010   0.337   3.682  0.1002  0.0134 -0.2576
 6094TIP3   OH239772   5.116   4.122  14.960  0.4348  0.0492 -0.3499
 6094TIP3    H139773   5.084   4.057  14.897  0.1096  0.2164 -0.3656
 6094TIP3    H239774   5.199   4.152  14.923  0.6040 -0.3786 -0.3241
 6095TIP3   OH239775   2.290   6.537  14.823  0.3614 -0.3702  0.2973
 6095TIP3    H139776   2.367   6.490  14.792  0.8467  0.2718  0.5085
 6095TIP3    H239777   2.223   6.519  14.757  0.1672 -2.3158  0.9633
 6096TIP3   OH239778   1.758   3.241  15.148 -0.2702 -0.1065 -0.4778
 6096TIP3    H139779   1.785   3.158  15.109  0.6862  0.4206 -0.9732
 6096TIP3    H239780   1.769   3.305  15.078  1.0020  0.7827  0.4988
 6097TIP3   OH239781   3.645   0.431   2.263 -0.3512  1.0264 -0.1212
 6097TIP3    H139782   3.638   0.452   2.170 -2.0132  1.0261 -0.0183
 6097TIP3    H239783   3.698   0.502   2.300  0.7354  0.7665 -1.1209
 6098TIP3   OH239784   5.890   4.735  12.642  0.1302 -0.1979  0.2045
 6098TIP3    H139785   5.873   4.786  12.721 -0.4839  1.8383 -1.1537
 6098TIP3    H239786   5.841   4.654  12.655 -0.8974  0.5761  1.4419
 6099TIP3   OH239787   0.296   1.312  13.445  0.7931  0.0389  0.3341
 6099TIP3    H139788   0.211   1.356  13.452  0.8692  0.3930 -0.7548
 6099TIP3    H239789   0.275   1.224  13.412  0.9388  0.6731 -1.5896
 6100TIP3   OH239790   6.755   6.041   3.096  0.6461 -0.2068  0.2599
 6100TIP3    H139791   6.753   5.948   3.075  1.7311 -0.5325  1.4762
 6100TIP3    H239792   6.762   6.044   3.191 -1.1219  1.1601  0.3928
 6101TIP3   OH239793   4.115   0.288   4.559  0.2545  0.0149  0.3775
 6101TIP3    H139794   4.023   0.307   4.539  0.6512  0.0759 -1.5565
 6101TIP3    H239795   4.136   0.211   4.506  1.7790  1.0116 -0.5327
 6102TIP3   OH239796   2.586   6.051   1.841  0.1955  0.1041 -0.2684
 6102TIP3    H139797   2.504   6.100   1.833 -1.6182 -2.3610  1.4111
 6102TIP3    H239798   2.597   6.008   1.756 -0.6902 -0.1182 -0.2806
 6103TIP3   OH239799   1.965   0.633   5.233  1.0963 -0.8445  0.0533
 6103TIP3    H139800   2.002   0.558   5.186  1.1118 -1.2344  0.6792
 6103TIP3    H239801   2.037   0.666   5.287  1.1591 -0.2278 -0.3913
 6104TIP3   OH239802   5.035   4.201   0.729  0.1961  0.1646  0.7661
 6104TIP3    H139803   4.964   4.180   0.668  1.3506 -0.0493 -0.5522
 6104TIP3    H239804   5.061   4.116   0.766  0.9999 -0.0441 -0.2037
 6105TIP3   OH239805   5.788   3.608  12.279 -0.1163  0.3220 -0.0327
 6105TIP3    H139806   5.851   3.646  12.340  0.2563 -0.1886 -0.0864
 6105TIP3    H239807   5.837   3.538  12.235 -0.7979 -0.2966  0.1559
 6106TIP3   OH239808   0.685   3.230  16.710  0.6586 -0.0228 -0.2050
 6106TIP3    H139809   0.704   3.317  16.746 -0.0035 -0.4734  1.3232
 6106TIP3    H239810   0.712   3.169  16.778 -0.6843 -0.9225 -0.4302
 6107TIP3   OH239811   4.527   1.825  15.847  0.3385  0.2357  0.5579
 6107TIP3    H139812   4.444   1.865  15.824  0.6594  0.9109  0.5489
 6107TIP3    H239813   4.513   1.790  15.935  0.3858  1.3822  1.0468
 6108TIP3   OH239814   2.113   4.237   2.053  0.3508  0.3674 -0.6119
 6108TIP3    H139815   2.181   4.287   2.097 -0.4427 -1.1928  2.7470
 6108TIP3    H239816   2.159   4.161   2.016  1.1655  2.1425 -3.5292
 6109TIP3   OH239817   1.365   3.273  13.005  0.4187  0.0775 -0.3899
 6109TIP3    H139818   1.402   3.284  13.093  0.1338  1.0029 -0.3800
 6109TIP3    H239819   1.430   3.221  12.959  0.2550 -1.0253  0.5678
 6110TIP3   OH239820   5.010   1.451  16.209 -0.2173  0.4856 -0.3107
 6110TIP3    H139821   5.030   1.384  16.274 -0.3595 -0.8926 -1.6448
 6110TIP3    H239822   5.024   1.408  16.125 -1.3526  1.8074 -1.2169
 6111TIP3   OH239823   0.895   0.063  15.591 -0.6427  0.3048 -0.0399
 6111TIP3    H139824   0.809   0.028  15.611 -0.3800 -0.8884 -0.9006
 6111TIP3    H239825   0.916   0.028  15.504  0.2507  1.4500 -0.3187
 6112TIP3   OH239826   1.157   6.733  13.948 -0.2483  0.0634 -0.5666
 6112TIP3    H139827   1.062   6.739  13.953 -0.1931  0.1913  1.0307
 6112TIP3    H239828   1.174   6.682  13.869 -1.6575 -0.4643 -0.5639
 6113TIP3   OH239829   5.638   6.000  15.003  0.1568 -0.0925 -0.4400
 6113TIP3    H139830   5.715   6.050  15.029  0.6037  0.3803 -2.4383
 6113TIP3    H239831   5.615   5.948  15.079  1.4211  1.0334  0.7543
 6114TIP3   OH239832   3.033   1.290  10.696 -0.3416  0.0816  0.7468
 6114TIP3    H139833   3.123   1.269  10.671  0.3049 -0.3941  3.1567
 6114TIP3    H239834   3.039   1.377  10.735 -1.2406  0.7082 -0.4632
 6115TIP3   OH239835   2.420   4.442   3.053 -0.6536  0.0378  0.4559
 6115TIP3    H139836   2.331   4.430   3.019 -0.0166 -0.6105 -1.1058
 6115TIP3    H239837   2.418   4.526   3.098 -0.9120  2.7669 -3.9806
 6116TIP3   OH239838   0.548   6.735  11.044  0.0927 -0.2647 -0.2849
 6116TIP3    H139839   0.638   6.768  11.046  0.7050 -1.8611  2.6023
 6116TIP3    H239840   0.550   6.665  10.979  1.1052 -0.7083  0.2124
 6117TIP3   OH239841   0.539   4.322  11.888 -0.3398 -0.4384  0.6880
 6117TIP3    H139842   0.614   4.289  11.839 -0.0137 -1.0537  1.5908
 6117TIP3    H239843   0.576   4.378  11.955 -0.7702  0.1464  0.4517
 6118TIP3   OH239844   1.160   1.142   4.710  0.2672 -0.1927 -0.1393
 6118TIP3    H139845   1.152   1.236   4.722 -2.5446  0.0105 -2.5608
 6118TIP3    H239846   1.071   1.108   4.719  1.2845 -2.8059  1.4456
 6119TIP3   OH239847   1.972   1.431  14.519 -0.3185  0.0864  0.0739
 6119TIP3    H139848   2.037   1.495  14.488  1.2585 -1.1389  0.7006
 6119TIP3    H239849   1.957   1.455  14.610  0.9545 -0.9078  0.5786
 6120TIP3   OH239850   6.355   6.011  14.004  0.0126  0.1588  0.0433
 6120TIP3    H139851   6.334   5.917  14.003 -3.2813  0.7513  0.8958
 6120TIP3    H239852   6.332   6.039  14.092  3.8746  1.3206  0.8532
 6121TIP3   OH239853   6.578   2.375  16.761  0.0647  0.3794  0.0552
 6121TIP3    H139854   6.510   2.400  16.823  1.4944  2.2396  0.9876
 6121TIP3    H239855   6.660   2.397  16.805  1.2308 -0.4155 -1.5925
 6122TIP3   OH239856   0.850   1.060   3.305  0.2564 -0.3655  0.3606
 6122TIP3    H139857   0.828   0.984   3.250 -1.8659 -1.2652  2.2749
 6122TIP3    H239858   0.774   1.118   3.297  1.8305  1.6144 -1.0163
 6123TIP3   OH239859   0.214   6.300   3.240  0.4872  0.1875 -0.4394
 6123TIP3    H139860   0.215   6.240   3.165  0.9640 -0.2126 -0.1144
 6123TIP3    H239861   0.124   6.297   3.272  0.8210 -1.4815  0.4640
 6124TIP3   OH239862   0.182   5.617   0.348 -0.0304 -0.0384  0.3579
 6124TIP3    H139863   0.119   5.611   0.420 -0.3334 -0.1635  0.0838
 6124TIP3    H239864   0.267   5.627   0.391 -0.2764  0.5221  0.7285
 6125TIP3   OH239865   1.792   4.361   1.400  0.0694  0.6234  0.7044
 6125TIP3    H139866   1.814   4.353   1.307 -1.0811  2.1292  0.2747
 6125TIP3    H239867   1.697   4.373   1.401  0.1574  1.3133  2.0319
 6126TIP3   OH239868   4.046   2.094  11.835  0.2852 -0.6362  0.1021
 6126TIP3    H139869   4.102   2.024  11.870  0.2517 -0.8456 -0.2652
 6126TIP3    H239870   4.055   2.087  11.740  1.2792  0.6754  0.0768
 6127TIP3   OH239871   2.459   5.357   4.625  0.0968  0.0276  0.1521
 6127TIP3    H139872   2.459   5.450   4.650 -0.5345  0.5085 -1.5219
 6127TIP3    H239873   2.468   5.310   4.708 -3.0483  1.4902  1.4565
 6128TIP3   OH239874   0.088   6.829   0.388  0.8042  0.0974 -0.1645
 6128TIP3    H139875   0.067   6.735   0.384 -0.7828  0.4313 -0.3634
 6128TIP3    H239876   0.105   6.853   0.297  3.2873 -0.3990  0.1143
 6129TIP3   OH239877   4.954   2.619  12.941  0.3202 -0.3745  0.7638
 6129TIP3    H139878   4.931   2.601  12.850 -1.7118 -1.3986  1.4243
 6129TIP3    H239879   4.958   2.714  12.948  0.2597 -0.2886 -0.3262
 6130TIP3   OH239880   0.963   1.816   3.996 -0.1791  0.2598 -0.0282
 6130TIP3    H139881   0.958   1.791   4.088 -0.7671 -1.9066 -0.5723
 6130TIP3    H239882   1.040   1.769   3.963  0.6749  1.8848 -0.4244
 6131TIP3   OH239883   4.484   0.164  16.420 -0.3472  0.2142 -0.2769
 6131TIP3    H139884   4.530   0.241  16.386  0.1825  0.4829  1.0075
 6131TIP3    H239885   4.515   0.154  16.510 -2.1478 -0.1324  0.3519
 6132TIP3   OH239886   2.591   5.270  11.041 -0.1318  0.4327  0.1780
 6132TIP3    H139887   2.639   5.188  11.044 -1.4602 -0.3817 -0.1234
 6132TIP3    H239888   2.635   5.321  10.972  1.3166  0.4112  1.0506
 6133TIP3   OH239889   0.428   1.414   6.585  0.3733  0.4118  0.0981
 6133TIP3    H139890   0.385   1.342   6.540 -2.3501  2.2155 -0.4606
 6133TIP3    H239891   0.381   1.422   6.668 -0.0495  2.0771 -0.2611
 6134TIP3   OH239892   0.929   5.534   4.359 -0.0831 -0.2747  0.1353
 6134TIP3    H139893   0.841   5.570   4.357 -0.1712 -0.4985 -0.9555
 6134TIP3    H239894   0.962   5.555   4.446 -1.2347 -0.2548  0.5804
 6135TIP3   OH239895   2.480   2.620   1.407  0.5628 -0.6139  1.2540
 6135TIP3    H139896   2.523   2.541   1.375 -1.0460 -1.4863  1.1697
 6135TIP3    H239897   2.404   2.589   1.456 -0.2156  0.8775  1.0620
 6136TIP3   OH239898   0.090   0.345   4.196 -0.3156  0.7675  0.0981
 6136TIP3    H139899   0.051   0.416   4.145  0.8313  1.2196 -0.1609
 6136TIP3    H239900   0.128   0.389   4.272 -0.7746  0.2623  0.6296
 6137TIP3   OH239901   5.581   0.054   0.222  0.6745 -0.5750  0.2093
 6137TIP3    H139902   5.547  -0.008   0.158  0.2820 -0.2010  0.0558
 6137TIP3    H239903   5.618  -0.002   0.291  1.4993 -0.9840 -0.5378
 6138TIP3   OH239904   4.682   4.961  14.134 -0.7261  0.2844  0.6368
 6138TIP3    H139905   4.724   4.875  14.145 -1.3274  0.0929  1.4584
 6138TIP3    H239906   4.704   5.009  14.213  0.8772  1.4661 -0.4545
 6139TIP3   OH239907   3.462   4.660  16.881 -0.2501  0.0293  0.1337
 6139TIP3    H139908   3.517   4.638  16.957 -0.1220 -0.9410 -0.2312
 6139TIP3    H239909   3.524   4.662  16.808 -0.6394 -0.6642 -0.2142
 6140TIP3   OH239910   4.317   4.298   5.152 -0.3762 -0.0910  0.6284
 6140TIP3    H139911   4.310   4.393   5.162 -1.7771 -0.0360 -0.6063
 6140TIP3    H239912   4.245   4.274   5.095 -0.6909 -2.0606  1.7565
 6141TIP3   OH239913   3.185   4.547   4.871  0.1090  0.4424  0.1502
 6141TIP3    H139914   3.178   4.628   4.921  1.2540  0.2638  0.6330
 6141TIP3    H239915   3.171   4.573   4.780 -3.4266  0.5732  0.5889
 6142TIP3   OH239916   4.210   3.632   6.994 -0.1424 -0.2190  0.6835
 6142TIP3    H139917   4.218   3.702   7.058  0.3531  1.1620 -0.8055
 6142TIP3    H239918   4.297   3.625   6.955 -0.7453 -0.0561 -0.7705
 6143TIP3   OH239919   6.785   5.380   2.083  0.4171  0.5771  0.4970
 6143TIP3    H139920   6.812   5.432   2.007  1.0635  1.6399  1.4147
 6143TIP3    H239921   6.751   5.299   2.046 -0.7526  1.6993 -0.9925
 6144TIP3   OH239922   3.017   5.295  13.447 -0.2573 -0.2155 -0.1509
 6144TIP3    H139923   3.101   5.285  13.493  0.6816  1.6622 -1.3310
 6144TIP3    H239924   3.003   5.389  13.443 -1.7685 -0.4523 -1.1336
 6145TIP3   OH239925   1.512   3.396   1.475  0.7976 -0.9583 -0.5345
 6145TIP3    H139926   1.467   3.430   1.398  0.1808 -0.6135 -0.0253
 6145TIP3    H239927   1.557   3.472   1.513 -0.4535 -0.7073  0.5129
 6146TIP3   OH239928   1.644   4.198  11.832 -0.3767  0.2982 -0.2291
 6146TIP3    H139929   1.638   4.294  11.834 -1.7409  0.2447 -0.7376
 6146TIP3    H239930   1.650   4.177  11.739  0.3109 -0.1031 -0.0993
 6147TIP3   OH239931   5.010   2.987   1.587  0.9661 -0.9447 -0.0305
 6147TIP3    H139932   5.007   3.017   1.677 -0.4518 -0.1556 -0.3170
 6147TIP3    H239933   4.999   2.892   1.592  0.5325 -0.8597  0.5989
 6148TIP3   OH239934   0.459   2.911  14.109  0.0594  0.0101 -0.1556
 6148TIP3    H139935   0.529   2.943  14.053 -1.2501  0.5172 -1.5504
 6148TIP3    H239936   0.421   2.990  14.148  0.6111 -0.3006  1.0769
 6149TIP3   OH239937   2.600   1.468   2.397  0.3068  0.4310 -0.1592
 6149TIP3    H139938   2.568   1.480   2.486 -0.2903 -0.0664 -0.3016
 6149TIP3    H239939   2.594   1.555   2.357  1.1589  0.7808  0.4719
 6150TIP3   OH239940   2.876   3.969  12.423 -0.4074  0.0300 -0.3080
 6150TIP3    H139941   2.972   3.972  12.420 -0.4290  1.5260  0.0933
 6150TIP3    H239942   2.853   4.013  12.504 -1.4531 -0.4117 -0.3530
 6151TIP3   OH239943   1.736   3.992  13.276 -0.1540  0.2167 -0.2272
 6151TIP3    H139944   1.730   4.075  13.227 -3.7952 -0.8568 -1.9083
 6151TIP3    H239945   1.797   3.939  13.224 -0.4499  0.6737 -1.0678
 6152TIP3   OH239946   2.390   2.402   3.814  0.3223  0.1147 -0.5805
 6152TIP3    H139947   2.313   2.448   3.847  0.6785  1.0514 -1.0200
 6152TIP3    H239948   2.398   2.430   3.723  2.2050  1.4739 -0.0621
 6153TIP3   OH239949   4.012   5.352   3.820 -0.4185  0.2154  0.2875
 6153TIP3    H139950   3.935   5.402   3.795 -0.7517 -1.2271 -1.7923
 6153TIP3    H239951   4.084   5.394   3.775 -0.4568 -0.2163 -0.1813
 6154TIP3   OH239952   4.208   0.943   0.686 -0.5086  0.4143 -0.2158
 6154TIP3    H139953   4.276   0.879   0.706  0.1577  0.8412 -1.0624
 6154TIP3    H239954   4.126   0.895   0.696 -0.0801 -0.2107  0.4320
 6155TIP3   OH239955   4.797   4.172   2.204 -0.4287 -0.0669 -0.4689
 6155TIP3    H139956   4.818   4.079   2.200  1.3904  0.2379  0.8476
 6155TIP3    H239957   4.704   4.174   2.226  0.3647 -1.7321  4.1097
 6156TIP3   OH239958   6.524   2.799  16.369  0.7953 -0.9431  0.2014
 6156TIP3    H139959   6.572   2.839  16.296 -0.2685 -1.0270 -0.5670
 6156TIP3    H239960   6.511   2.708  16.342 -0.7449 -0.6443 -0.1039
 6157TIP3   OH239961   1.208   0.714   4.236 -0.5275  0.1977 -0.4294
 6157TIP3    H139962   1.250   0.775   4.295  1.1680 -0.3789 -0.9753
 6157TIP3    H239963   1.155   0.769   4.177  0.9071  1.1466 -0.8730
 6158TIP3   OH239964   1.011   4.008  16.546 -0.3237  0.5581  0.0248
 6158TIP3    H139965   1.055   4.061  16.479 -1.0966  2.0806  0.6738
 6158TIP3    H239966   0.932   3.975  16.504  0.1702 -0.1165 -0.3876
 6159TIP3   OH239967   6.303   6.445   4.506  0.3430  0.1031 -0.4076
 6159TIP3    H139968   6.385   6.402   4.533  0.1741 -0.5638 -0.9128
 6159TIP3    H239969   6.332   6.524   4.460  0.8348 -1.3342 -2.7068
 6160TIP3   OH239970   6.348   0.566  16.579 -0.1558  0.2936 -0.4702
 6160TIP3    H139971   6.333   0.493  16.638 -1.1452  1.2719  0.5126
 6160TIP3    H239972   6.370   0.525  16.495  0.4530 -1.1089  0.3463
 6161TIP3   OH239973   3.763   2.056  13.980  0.1428 -0.1698  0.0642
 6161TIP3    H139974   3.741   1.987  14.042  0.4963 -1.0258 -0.7313
 6161TIP3    H239975   3.819   2.013  13.915 -0.2218  0.6894 -0.8451
 6162TIP3   OH239976   4.173   1.698  15.883  0.2242 -0.0027  0.0205
 6162TIP3    H139977   4.120   1.740  15.951  0.5137 -0.6345  0.6478
 6162TIP3    H239978   4.229   1.769  15.850 -2.6050  1.3134 -2.3742
 6163TIP3   OH239979   6.044   6.267   2.921 -0.0295  0.2097 -0.0386
 6163TIP3    H139980   6.138   6.249   2.918 -0.2654 -0.9376 -2.0078
 6163TIP3    H239981   6.008   6.197   2.975  0.0270 -0.5484 -0.9655
 6164TIP3   OH239982   1.571   6.008  13.866 -0.2518 -0.4661 -0.2389
 6164TIP3    H139983   1.525   6.086  13.894 -1.0732 -1.1987  0.4932
 6164TIP3    H239984   1.506   5.957  13.818 -0.3969 -1.7618  1.2695
 6165TIP3   OH239985   5.570   5.111   3.586  0.2349 -0.1738 -0.2308
 6165TIP3    H139986   5.615   5.194   3.570 -2.3392  1.1165 -1.2791
 6165TIP3    H239987   5.600   5.053   3.516  2.0935 -0.2383  0.5390
 6166TIP3   OH239988   5.398   1.566   4.676  0.0498  0.8787  1.0311
 6166TIP3    H139989   5.353   1.638   4.631  2.1162  1.7537  0.1981
 6166TIP3    H239990   5.337   1.493   4.672 -0.7766  1.5865 -1.2531
 6167TIP3   OH239991   5.353   2.685  10.005  0.1425 -0.6957  0.0562
 6167TIP3    H139992   5.273   2.731  10.032  0.5316 -0.1100  0.2206
 6167TIP3    H239993   5.423   2.728  10.054  0.3083 -2.8201  1.8316
 6168TIP3   OH239994   2.588   5.273  13.237  0.0839  0.2231 -0.0766
 6168TIP3    H139995   2.566   5.356  13.195  2.2028  0.3480 -1.0666
 6168TIP3    H239996   2.513   5.216  13.217 -0.5537  1.3356 -0.9906
 6169TIP3   OH239997   4.854   4.890   5.135 -0.1827  0.3519  0.0826
 6169TIP3    H139998   4.905   4.881   5.055 -1.8332 -0.2700 -0.9663
 6169TIP3    H239999   4.895   4.830   5.197 -0.1043 -0.7650 -1.0001
 6170TIP3   OH240000   2.160   3.745   3.452 -0.7153  0.1019 -0.4688
 6170TIP3    H140001   2.094   3.676   3.448 -1.1311  0.0478  3.4736
 6170TIP3    H240002   2.118   3.821   3.413 -2.3775 -0.4835  0.0853
 6171TIP3   OH240003   0.806   3.277   4.767  0.4655  0.2717 -0.0291
 6171TIP3    H140004   0.802   3.233   4.683 -0.4420  0.3375 -0.0377
 6171TIP3    H240005   0.777   3.211   4.830  0.4403  0.4396  0.1359
 6172TIP3   OH240006   4.953   4.001   4.692 -0.6895 -0.1462 -0.5619
 6172TIP3    H140007   4.893   3.927   4.682 -0.4120 -0.2591 -1.5743
 6172TIP3    H240008   4.974   4.026   4.602 -0.4281  0.8825 -0.2273
 6173TIP3   OH240009   0.642   0.153  11.874 -0.4116 -0.9976 -0.3492
 6173TIP3    H140010   0.643   0.070  11.921 -2.3310 -1.7184 -1.4306
 6173TIP3    H240011   0.705   0.141  11.802  1.5478 -0.3615  1.1734
 6174TIP3   OH240012   1.558   2.763   6.688 -0.1230 -0.2987  0.0864
 6174TIP3    H140013   1.635   2.817   6.677 -0.5540  0.7295  1.8704
 6174TIP3    H240014   1.573   2.714   6.769 -0.3878 -1.7974 -0.7167
 6175TIP3   OH240015   4.937   6.159   1.634 -0.2361  0.4194 -0.5094
 6175TIP3    H140016   5.031   6.142   1.639 -0.3602 -0.0864  0.3441
 6175TIP3    H240017   4.929   6.226   1.566  0.7016  0.2178 -0.8451
 6176TIP3   OH240018   4.549   5.054  12.599 -0.0810 -0.3682 -0.2176
 6176TIP3    H140019   4.536   5.147  12.580 -0.2425  0.0204  1.5927
 6176TIP3    H240020   4.511   5.042  12.686 -1.0553 -2.3894 -0.8667
 6177TIP3   OH240021   3.992   2.419   6.403  0.1423 -0.3313 -0.1242
 6177TIP3    H140022   3.908   2.388   6.436  0.3839 -0.7512  0.1097
 6177TIP3    H240023   4.048   2.342   6.406  0.2660 -0.2917 -1.1888
 6178TIP3   OH240024   3.703   3.790   2.425  0.2217  0.4953 -0.2097
 6178TIP3    H140025   3.634   3.794   2.491  0.8253 -0.6401  0.5387
 6178TIP3    H240026   3.718   3.881   2.400 -0.8356  0.8420  0.3467
 6179TIP3   OH240027   5.316   6.103   1.429  0.3817 -1.2380 -0.1004
 6179TIP3    H140028   5.291   6.035   1.366  1.7434  0.1447 -2.2718
 6179TIP3    H240029   5.324   6.183   1.376  1.3171  0.0612  1.8904
 6180TIP3   OH240030   6.751   2.927  10.969 -0.5249 -0.0146 -0.2138
 6180TIP3    H140031   6.804   2.922  10.890  0.6424  1.5274  0.4243
 6180TIP3    H240032   6.739   2.835  10.995  1.6230 -0.4381 -0.5376
 6181TIP3   OH240033   0.206   0.350   3.134  0.1666 -0.4387  0.0993
 6181TIP3    H140034   0.176   0.277   3.080 -0.2839  0.8890 -1.5280
 6181TIP3    H240035   0.298   0.330   3.151  0.4557 -0.6937 -1.5601
 6182TIP3   OH240036   2.983   4.357  12.905 -0.1291 -0.0282  0.4186
 6182TIP3    H140037   3.014   4.365  12.814 -0.7411  1.4604  0.3070
 6182TIP3    H240038   2.890   4.336  12.896 -0.9673  3.1260  0.5809
 6183TIP3   OH240039   6.011   4.785   5.891  0.3976  0.3362 -0.4508
 6183TIP3    H140040   5.925   4.825   5.903 -0.1534 -0.2629 -2.1268
 6183TIP3    H240041   6.014   4.713   5.953 -0.2318  0.4911 -0.2419
 6184TIP3   OH240042   3.101   5.511   0.563 -0.3650 -0.1748  0.1871
 6184TIP3    H140043   3.043   5.435   0.555  0.3752 -0.6783 -0.4413
 6184TIP3    H240044   3.185   5.475   0.591  0.7695  0.0307 -2.5986
 6185TIP3   OH240045   5.204   2.801  12.823 -0.2142  0.3872  0.1075
 6185TIP3    H140046   5.122   2.839  12.854 -0.3428  0.7921 -0.6872
 6185TIP3    H240047   5.263   2.804  12.899 -1.3758 -1.3060  1.1249
 6186TIP3   OH240048   6.382   5.027  13.678  0.2182 -0.0968  0.2558
 6186TIP3    H140049   6.408   5.065  13.594 -0.0089  1.1911  0.7412
 6186TIP3    H240050   6.435   4.947  13.686  0.4101 -0.1147 -0.9947
 6187TIP3   OH240051   1.693   4.754  11.338  0.3955  0.5793  0.7848
 6187TIP3    H140052   1.774   4.761  11.388 -0.1541  1.2450  1.5892
 6187TIP3    H240053   1.698   4.667  11.297  2.0362  1.0489 -0.1206
 6188TIP3   OH240054   2.314   4.996  14.900 -0.0884 -0.4039 -1.0267
 6188TIP3    H140055   2.221   5.009  14.923 -0.5338 -0.4203 -2.6937
 6188TIP3    H240056   2.345   4.930  14.962 -1.4894 -1.1905 -1.1188
 6189TIP3   OH240057   2.395   3.480  11.872 -0.1831  0.5946 -0.3670
 6189TIP3    H140058   2.445   3.410  11.831 -0.8365  0.5962 -1.1938
 6189TIP3    H240059   2.445   3.503  11.950  1.1953  0.7554 -1.2833
 6190TIP3   OH240060   4.044   3.557  11.392 -0.1428  0.0650  0.1077
 6190TIP3    H140061   4.112   3.621  11.413  1.1150 -0.9572 -0.7358
 6190TIP3    H240062   4.027   3.570  11.299 -0.0752 -0.6281 -0.0057
 6191TIP3   OH240063   5.713   3.748  14.332 -0.2303  0.0016  0.2571
 6191TIP3    H140064   5.743   3.830  14.291  0.6747 -0.2036  0.4739
 6191TIP3    H240065   5.719   3.683  14.262  0.3207 -0.1398  0.4312
 6192TIP3   OH240066   0.515   1.515  11.834 -0.8987 -0.1644  0.0904
 6192TIP3    H140067   0.602   1.506  11.873 -1.5825 -2.7563  1.1826
 6192TIP3    H240068   0.458   1.460  11.887 -2.6576 -0.8693 -2.3175
 6193TIP3   OH240069   6.398   5.248   3.479  0.5592 -0.4773  0.1888
 6193TIP3    H140070   6.379   5.209   3.564 -1.8998  0.0240 -0.0551
 6193TIP3    H240071   6.411   5.341   3.497  1.4616 -0.5888  0.1641
 6194TIP3   OH240072   3.109   4.457   2.605  0.1021 -0.3123  0.1204
 6194TIP3    H140073   3.059   4.531   2.569  0.7713 -0.9302 -2.2947
 6194TIP3    H240074   3.048   4.383   2.603  0.3144 -0.4843 -0.4037
 6195TIP3   OH240075   3.618   5.230   5.320  0.0549  0.3486  0.1710
 6195TIP3    H140076   3.543   5.248   5.263 -1.5454 -0.6462  1.8713
 6195TIP3    H240077   3.638   5.137   5.304 -0.3371  0.0926  1.1244
 6196TIP3   OH240078   2.316   2.642  13.030  0.0608 -0.1167 -0.2441
 6196TIP3    H140079   2.251   2.678  13.091  0.7085  0.6441  0.0163
 6196TIP3    H240080   2.307   2.547  13.040 -2.2612 -0.1087 -1.5661
 6197TIP3   OH240081   2.180   2.817   4.384 -0.0057  0.4011 -0.0455
 6197TIP3    H140082   2.160   2.911   4.380 -1.8941  0.1694  1.9159
 6197TIP3    H240083   2.154   2.783   4.298  0.7620  1.6636 -0.8001
 6198TIP3   OH240084   3.273   6.080   2.462  0.7176  0.0313  0.2166
 6198TIP3    H140085   3.333   6.129   2.518  1.2243  0.7855 -0.9451
 6198TIP3    H240086   3.217   6.147   2.422 -0.6163 -0.6237  0.9278
 6199TIP3   OH240087   0.538   3.368  10.951 -0.5103  0.5789 -0.1339
 6199TIP3    H140088   0.455   3.409  10.977 -0.0661  0.4550  1.6658
 6199TIP3    H240089   0.593   3.440  10.921 -1.2221  0.6725 -1.2523
 6200TIP3   OH240090   2.253   5.737  11.243 -0.1638  0.3622 -0.1121
 6200TIP3    H140091   2.179   5.698  11.290 -1.9157  2.1431 -1.2446
 6200TIP3    H240092   2.280   5.668  11.181  0.1326 -0.8426  1.3026
 6201TIP3   OH240093   5.507   0.250  16.824  0.2500 -0.3067  0.3868
 6201TIP3    H140094   5.463   0.330  16.855  1.0656  0.6350 -0.7876
 6201TIP3    H240095   5.475   0.181  16.882 -0.6517  0.8323  1.2967
 6202TIP3   OH240096   6.101   1.280  10.724 -0.4627 -0.5130 -0.8358
 6202TIP3    H140097   6.045   1.245  10.654  0.2876 -0.1484 -1.6314
 6202TIP3    H240098   6.126   1.368  10.694  0.8089 -0.7935 -0.6473
 6203TIP3   OH240099   4.920   1.971  14.720 -0.5739 -0.1064 -0.5505
 6203TIP3    H140100   4.831   1.937  14.706 -0.9657  0.8730 -0.5420
 6203TIP3    H240101   4.929   1.976  14.815  0.6141 -3.0028 -0.4384
 6204TIP3   OH240102   1.436   6.159  15.155  0.3326 -0.0538  0.6205
 6204TIP3    H140103   1.410   6.225  15.218  1.3094 -0.0493  1.0429
 6204TIP3    H240104   1.402   6.077  15.191 -2.5526  0.3865 -0.8637
 6205TIP3   OH240105   4.291   1.924  15.764  0.1370 -0.2174 -0.2366
 6205TIP3    H140106   4.342   1.992  15.720 -1.7256  1.3264 -0.1829
 6205TIP3    H240107   4.200   1.947  15.746 -0.6412 -1.1090  2.1116
 6206TIP3   OH240108   1.206   5.573  11.423 -0.4231  0.0392  0.6727
 6206TIP3    H140109   1.267   5.641  11.393 -1.6876  1.0786  0.3619
 6206TIP3    H240110   1.160   5.547  11.343 -1.5650  0.5024  1.1679
 6207TIP3   OH240111   5.642   4.514   0.811 -0.2439  0.2267  0.0010
 6207TIP3    H140112   5.661   4.439   0.755 -0.5455  0.5530 -0.5467
 6207TIP3    H240113   5.547   4.511   0.825 -0.4251  1.1484 -0.9646
 6208TIP3   OH240114   4.452   1.866   1.015  0.4196  0.2761  0.5603
 6208TIP3    H140115   4.488   1.906   1.094 -0.7915  1.0734  0.7363
 6208TIP3    H240116   4.380   1.811   1.046 -0.0215  0.5419  0.0311
 6209TIP3   OH240117   5.281   1.286   0.851 -0.1422 -0.1317 -0.1451
 6209TIP3    H140118   5.371   1.252   0.857 -0.5486 -1.1050  0.6016
 6209TIP3    H240119   5.250   1.288   0.941 -1.0170 -0.2161 -0.4341
 6210TIP3   OH240120   0.231   1.699   2.517  0.2800 -0.0165 -0.5940
 6210TIP3    H140121   0.164   1.631   2.526  1.5417 -1.2744 -0.3257
 6210TIP3    H240122   0.260   1.693   2.426  1.1538 -0.6193 -0.2951
 6211TIP3   OH240123   0.792   0.794  10.750 -0.2365 -0.0139  0.0489
 6211TIP3    H140124   0.854   0.725  10.727 -1.0584 -0.4777 -0.8183
 6211TIP3    H240125   0.779   0.843  10.670 -1.4891 -0.3375  0.0273
 6212TIP3   OH240126   4.924   5.014   0.040  0.0735 -0.0015  0.3985
 6212TIP3    H140127   4.976   5.088   0.009 -0.0388 -0.1992 -0.2635
 6212TIP3    H240128   4.894   4.970  -0.039  0.2763 -0.8576  0.7835
 6213TIP3   OH240129   1.123   3.694   3.162 -0.1849  0.3790 -0.3491
 6213TIP3    H140130   1.094   3.754   3.094 -1.5409  0.4663  0.2788
 6213TIP3    H240131   1.103   3.607   3.128  1.1079  0.2899 -0.9459
 6214TIP3   OH240132   4.592   3.722   2.480  0.7105 -0.3756 -0.5364
 6214TIP3    H140133   4.498   3.731   2.491  0.4557 -1.4056 -1.6667
 6214TIP3    H240134   4.629   3.755   2.562 -0.6956 -1.3343  0.5325
 6215TIP3   OH240135   0.353   0.384   3.643 -0.2433 -0.2416 -0.0818
 6215TIP3    H140136   0.333   0.371   3.736  0.7717  0.8202  0.3221
 6215TIP3    H240137   0.408   0.309   3.620  1.2709  0.5342  0.7930
 6216TIP3   OH240138   2.438   2.637   1.749 -0.6434 -0.6248  0.0226
 6216TIP3    H140139   2.501   2.708   1.762 -0.4175 -1.0135  1.0942
 6216TIP3    H240140   2.413   2.644   1.656  1.3883 -0.8134 -0.5791
 6217TIP3   OH240141   5.244   0.502  16.535  0.7683 -0.5901 -0.0147
 6217TIP3    H140142   5.232   0.420  16.584  0.1845 -1.5735 -1.6997
 6217TIP3    H240143   5.239   0.475  16.443 -3.7520  1.8265 -0.7532
 6218TIP3   OH240144   4.907   1.217  12.581 -0.0023 -0.3347 -0.8963
 6218TIP3    H140145   4.950   1.302  12.567  1.4393 -0.1532  3.3458
 6218TIP3    H240146   4.819   1.239  12.613  0.4580 -0.3526  0.4478
 6219TIP3   OH240147   6.307   2.554   5.263  0.3262  0.6479 -0.2960
 6219TIP3    H140148   6.396   2.524   5.281 -0.0328 -0.5793 -0.5243
 6219TIP3    H240149   6.281   2.601   5.342  1.1413  0.9623 -0.2003
 6220TIP3   OH240150   5.816   0.585   5.699 -0.0401  0.4084 -0.1062
 6220TIP3    H140151   5.879   0.546   5.638 -0.6796 -0.1412 -0.4288
 6220TIP3    H240152   5.799   0.517   5.764  0.5187  0.9391  0.6097
 6221TIP3   OH240153   6.211   5.604   5.793 -0.2007 -0.3785 -0.1280
 6221TIP3    H140154   6.288   5.644   5.832 -1.0166 -0.6511  1.8435
 6221TIP3    H240155   6.235   5.512   5.781  0.0029 -0.3211 -0.1663
 6222TIP3   OH240156   6.295   3.973   6.290 -0.2679  0.5581 -0.1021
 6222TIP3    H140157   6.315   3.917   6.365  0.2138  0.1641 -0.5137
 6222TIP3    H240158   6.322   3.921   6.214  0.9769  1.6710 -0.4612
 6223TIP3   OH240159   5.409   1.240  10.496  0.4601 -0.0135  0.6696
 6223TIP3    H140160   5.412   1.190  10.414  1.8064 -0.0133  0.7124
 6223TIP3    H240161   5.498   1.238  10.529  0.1987  1.0947  1.4844
 6224TIP3   OH240162   0.609   0.318  12.857 -0.0355  0.1066  0.2218
 6224TIP3    H140163   0.699   0.309  12.825 -0.2838 -1.0858 -0.1811
 6224TIP3    H240164   0.559   0.256  12.805 -0.5262 -1.6503  2.6144
 6225TIP3   OH240165   4.531   5.970   2.198  0.5054  0.3446  0.2390
 6225TIP3    H140166   4.580   5.910   2.141 -1.3588  0.4133 -1.5138
 6225TIP3    H240167   4.553   6.057   2.166 -1.0623  0.3599 -0.8641
 6226TIP3   OH240168   1.487   2.611   0.478 -0.1347  0.4449  0.9097
 6226TIP3    H140169   1.465   2.616   0.571 -0.6967 -0.1209  0.8181
 6226TIP3    H240170   1.439   2.683   0.437 -0.3682  0.3331  0.9806
 6227TIP3   OH240171   4.155   3.118  11.625  0.0149  0.1413 -0.1721
 6227TIP3    H140172   4.073   3.156  11.594  0.0028 -0.6744 -1.1889
 6227TIP3    H240173   4.130   3.065  11.700 -0.8444 -2.0948 -1.9206
 6228TIP3   OH240174   1.063   1.240   2.628 -0.0211 -0.1187  0.0980
 6228TIP3    H140175   0.972   1.248   2.657  1.0547 -2.9076  5.7086
 6228TIP3    H240176   1.105   1.320   2.659 -0.0284 -0.1578  0.2083
 6229TIP3   OH240177   3.000   2.367  16.685 -0.3877 -0.1889  0.3012
 6229TIP3    H140178   2.975   2.432  16.620  1.5895 -0.4308 -0.7859
 6229TIP3    H240179   2.991   2.412  16.769 -0.9789  0.8073 -0.2754
 6230TIP3   OH240180   1.180   2.163   4.356  0.3689  0.2871 -0.7215
 6230TIP3    H140181   1.156   2.194   4.443  2.5481  1.1962 -0.3762
 6230TIP3    H240182   1.156   2.071   4.355 -0.2631  0.4252  0.6021
 6231TIP3   OH240183   3.663   0.960   5.293 -0.0401  0.1170  0.0106
 6231TIP3    H140184   3.643   0.941   5.385  0.6517  1.2004  0.3985
 6231TIP3    H240185   3.578   0.982   5.254 -0.3384 -0.3703  0.3753
 6232TIP3   OH240186   1.405   6.823  15.194 -0.0554  0.5996  0.1623
 6232TIP3    H140187   1.440   6.902  15.153  1.7764  0.5122  1.4229
 6232TIP3    H240188   1.466   6.754  15.170 -0.4404  0.0051  0.8241
 6233TIP3   OH240189   2.169   2.602  14.261  0.2766 -0.0970 -0.4032
 6233TIP3    H140190   2.093   2.554  14.229  0.0011 -1.3452  1.9716
 6233TIP3    H240191   2.132   2.678  14.306  0.6372  1.2423 -2.2468
 6234TIP3   OH240192   1.544   0.563  13.189 -0.0789 -0.2031 -0.1549
 6234TIP3    H140193   1.464   0.603  13.221  0.0127  0.7918 -1.1134
 6234TIP3    H240194   1.609   0.581  13.258  0.1719  2.0954 -0.9148
 6235TIP3   OH240195   5.467   2.736   5.636 -0.9632 -0.0540 -0.2549
 6235TIP3    H140196   5.402   2.745   5.567 -0.8326  0.5027 -0.3137
 6235TIP3    H240197   5.459   2.646   5.666 -0.0217 -0.7694 -1.9957
 6236TIP3   OH240198   1.168   0.451   5.558 -0.4883 -0.3005 -0.0547
 6236TIP3    H140199   1.144   0.462   5.650 -1.8252  1.3980 -0.5538
 6236TIP3    H240200   1.086   0.461   5.511  0.3033 -0.3757 -1.4928
 6237TIP3   OH240201   0.407   1.657  10.865 -0.3435  0.2499  0.4340
 6237TIP3    H140202   0.401   1.749  10.890  0.1718  0.3190  0.3169
 6237TIP3    H240203   0.488   1.652  10.814  0.0255 -0.4210  1.0850
 6238TIP3   OH240204   6.188   6.789   4.931 -0.2128 -0.1631 -0.4367
 6238TIP3    H140205   6.220   6.734   5.002  1.2043  1.4757  0.2658
 6238TIP3    H240206   6.197   6.735   4.852  0.4035 -1.1862  0.3145
 6239TIP3   OH240207   6.260   0.519  15.287 -0.0407  0.2670  0.4515
 6239TIP3    H140208   6.289   0.433  15.317  0.8084  1.1265  2.2435
 6239TIP3    H240209   6.212   0.556  15.361 -1.1092  1.0203 -0.5880
 6240TIP3   OH240210   3.015   4.120   2.182  0.0718 -0.1450 -0.0853
 6240TIP3    H140211   3.015   4.027   2.158  0.7333  0.1601 -1.3736
 6240TIP3    H240212   3.004   4.121   2.277  2.1758 -1.6161  0.2414
 6241TIP3   OH240213   0.389   3.300  13.762 -0.0332 -0.8685 -0.5879
 6241TIP3    H140214   0.480   3.282  13.736 -0.7309 -0.3804 -3.8178
 6241TIP3    H240215   0.393   3.386  13.804  1.3132 -2.1038  2.0540
 6242TIP3   OH240216   3.813   6.214  16.927 -0.3961  0.7262 -0.1372
 6242TIP3    H140217   3.742   6.159  16.962 -0.1345 -0.8040 -1.8829
 6242TIP3    H240218   3.768   6.293  16.898 -1.3310  0.0385 -0.6512
 6243TIP3   OH240219   3.734   0.773   5.852  0.0355  0.2216 -0.2484
 6243TIP3    H140220   3.806   0.736   5.802  0.3528 -1.1798  1.1440
 6243TIP3    H240221   3.773   0.802   5.934 -0.7459  0.7661 -0.0542
 6244TIP3   OH240222   3.309   0.319   6.308  0.3299 -0.3115 -0.0438
 6244TIP3    H140223   3.271   0.406   6.290  1.5387  0.1385 -0.4976
 6244TIP3    H240224   3.303   0.273   6.224 -1.8743 -1.3203  0.6037
 6245TIP3   OH240225   1.908   0.574  16.233 -0.2998 -0.3220 -0.3212
 6245TIP3    H140226   1.918   0.500  16.173  0.4646  0.0252 -0.6311
 6245TIP3    H240227   1.865   0.642  16.182 -1.1707 -0.6025  0.0162
 6246TIP3   OH240228   2.869   1.853  11.327  0.3132  0.1260  0.0011
 6246TIP3    H140229   2.829   1.794  11.390  0.9521 -0.1837  0.1250
 6246TIP3    H240230   2.963   1.839  11.337  0.5182  1.5584  0.4360
 6247TIP3   OH240231   3.343   5.984  11.543  0.8092 -0.4068  0.3226
 6247TIP3    H140232   3.424   5.957  11.499  1.4311  1.2897  0.3718
 6247TIP3    H240233   3.278   5.921  11.513  1.8136 -0.9208 -0.8875
 6248TIP3   OH240234   5.110   5.952  12.681  0.7857  0.1118 -0.1930
 6248TIP3    H140235   5.170   5.878  12.669 -1.2872 -1.7030 -0.0113
 6248TIP3    H240236   5.081   5.944  12.772 -0.0353  0.6871 -0.3924
 6249TIP3   OH240237   5.313   0.896   1.550 -0.0888 -0.6424 -0.1072
 6249TIP3    H140238   5.309   0.801   1.566 -0.7387 -1.0501 -2.3830
 6249TIP3    H240239   5.404   0.914   1.530  0.1600 -0.6472  0.9644
 6250TIP3   OH240240   2.610   2.192   3.465  0.0254 -0.3968  0.2364
 6250TIP3    H140241   2.691   2.156   3.429 -0.8205 -4.2578  1.6983
 6250TIP3    H240242   2.541   2.133   3.432 -2.1586  2.2026 -0.2095
 6251TIP3   OH240243   6.026   0.944  12.965 -0.1493 -0.1979 -0.0010
 6251TIP3    H140244   6.015   0.883  12.892 -1.3220 -0.4153  0.3309
 6251TIP3    H240245   6.053   0.888  13.039 -0.7611 -0.2507  0.1854
 6252TIP3   OH240246   2.857   1.040  14.800 -0.0550  1.0218  0.2366
 6252TIP3    H140247   2.940   1.044  14.848 -0.2125 -0.7599  0.7170
 6252TIP3    H240248   2.882   1.049  14.708  0.7273  0.1934  0.3510
 6253TIP3   OH240249   4.894   1.586   3.198 -0.2664  0.4317  0.8193
 6253TIP3    H140250   4.922   1.579   3.107  1.6675 -0.1136  1.4126
 6253TIP3    H240251   4.914   1.676   3.223 -0.3650  0.4500  0.8312
 6254TIP3   OH240252   2.923   1.555  10.952  0.2602  0.2147  0.3423
 6254TIP3    H140253   2.949   1.608  10.877 -2.1485  0.4907 -0.3919
 6254TIP3    H240254   2.831   1.578  10.967  0.3282 -0.7172  2.6427
 6255TIP3   OH240255   1.369   6.393   2.083  0.6732  0.4384  0.0072
 6255TIP3    H140256   1.294   6.344   2.048  0.6324  1.1985 -1.0430
 6255TIP3    H240257   1.347   6.409   2.174 -0.2263  0.2247 -0.1584
 6256TIP3   OH240258   6.604   2.642   3.071 -0.2170  0.3907  0.0280
 6256TIP3    H140259   6.550   2.564   3.085  0.8517 -0.5826 -1.0557
 6256TIP3    H240260   6.561   2.688   2.999  0.6087 -0.6304 -1.1562
 6257TIP3   OH240261   0.100   1.009  14.423 -0.3038  0.2304  0.0241
 6257TIP3    H140262   0.190   1.007  14.454 -0.0325  1.5986 -0.6114
 6257TIP3    H240263   0.095   0.937  14.360 -0.0436 -0.6812  1.0166
 6258TIP3   OH240264   3.926   1.941  13.559 -0.1393 -0.3066  0.1617
 6258TIP3    H140265   3.948   1.853  13.529  0.9464  0.2395 -0.7624
 6258TIP3    H240266   3.833   1.938  13.581  0.0138 -1.8076  0.6693
 6259TIP3   OH240267   1.885   3.628   0.996  0.1745  0.5282  0.5765
 6259TIP3    H140268   1.954   3.625   0.930 -0.6010 -0.3502 -0.2363
 6259TIP3    H240269   1.897   3.548   1.047 -0.7550 -0.1009 -0.1478
 6260TIP3   OH240270   1.537   5.267   4.472 -0.3183  0.4755  0.2111
 6260TIP3    H140271   1.462   5.209   4.486  0.2007 -0.3375 -0.2870
 6260TIP3    H240272   1.513   5.349   4.515 -1.4253  0.1732  0.1918
 6261TIP3   OH240273   3.533   0.502  12.504  0.0224  0.0066  0.1790
 6261TIP3    H140274   3.452   0.505  12.556 -0.3380  1.1784 -0.4025
 6261TIP3    H240275   3.512   0.444  12.431 -0.5954  0.9383 -0.4100
 6262TIP3   OH240276   4.046   5.625  16.030 -0.4265  0.8482  0.0735
 6262TIP3    H140277   4.041   5.595  16.120 -0.3081  0.9428  0.1107
 6262TIP3    H240278   3.955   5.627  16.000 -0.3426 -0.7944 -0.3415
 6263TIP3   OH240279   3.225   1.055  12.282  0.2638 -0.2641 -0.0817
 6263TIP3    H140280   3.174   1.135  12.269 -2.3672 -2.1124 -2.6933
 6263TIP3    H240281   3.229   1.016  12.195 -0.1869 -3.8170  1.3402
 6264TIP3   OH240282   1.823   5.169   3.384  0.3784 -0.1848  0.9376
 6264TIP3    H140283   1.736   5.193   3.352 -0.3033 -3.8262 -0.4871
 6264TIP3    H240284   1.883   5.207   3.320 -0.3613  0.1917  0.4535
 6265TIP3   OH240285   4.347   4.110   6.280 -0.8203 -0.1126 -0.0397
 6265TIP3    H140286   4.427   4.062   6.261 -0.7251  0.7241 -2.0740
 6265TIP3    H240287   4.345   4.118   6.375  0.5782 -1.6731  0.1624
 6266TIP3   OH240288   5.124   1.546   1.656 -0.2353 -0.8756  0.2760
 6266TIP3    H140289   5.127   1.456   1.624 -0.1364 -0.8563  0.2309
 6266TIP3    H240290   5.080   1.540   1.741 -2.1178 -0.7095 -0.6299
 6267TIP3   OH240291   6.479   0.401   5.313  0.2353 -0.2414  0.3911
 6267TIP3    H140292   6.466   0.479   5.258 -1.5216  0.1148  1.2639
 6267TIP3    H240293   6.573   0.401   5.331  0.6986  0.1927 -1.7530
 6268TIP3   OH240294   5.128   5.168   5.762  0.0644  0.2187  0.1995
 6268TIP3    H140295   5.147   5.236   5.698 -1.0783 -1.2078 -1.7685
 6268TIP3    H240296   5.068   5.109   5.717  0.2283 -1.5570  2.1630
 6269TIP3   OH240297   1.907   4.831  16.853  0.3994 -0.4240 -0.3027
 6269TIP3    H140298   1.945   4.900  16.800  0.8375 -0.9034 -0.6222
 6269TIP3    H240299   1.978   4.802  16.910  0.3088 -0.8224 -0.3886
 6270TIP3   OH240300   6.328   0.969   4.350  0.1112 -0.1540 -0.1977
 6270TIP3    H140301   6.422   0.958   4.339  0.6966  2.5254  1.1895
 6270TIP3    H240302   6.311   1.059   4.323 -2.3640 -0.9879 -1.7799
 6271TIP3   OH240303   1.139   0.944   2.929 -0.2644 -0.3885  0.0502
 6271TIP3    H140304   1.216   0.969   2.979 -0.4986 -1.2282  0.8676
 6271TIP3    H240305   1.161   0.964   2.838  1.8507 -2.7471 -0.0681
 6272TIP3   OH240306   0.616   4.252  16.092  0.1693 -0.4332  0.3298
 6272TIP3    H140307   0.679   4.249  16.164  1.3186 -0.5988 -0.6556
 6272TIP3    H240308   0.600   4.161  16.069  0.2720 -0.3733  0.0031
 6273TIP3   OH240309   6.494   1.246   5.300 -0.5778  0.0528  0.0657
 6273TIP3    H140310   6.545   1.212   5.374  0.4470 -1.8851 -1.4261
 6273TIP3    H240311   6.532   1.332   5.282  1.3849 -0.8027 -0.1748
 6274TIP3   OH240312   4.606   4.929   5.718  0.2653  0.2033  0.1159
 6274TIP3    H140313   4.569   5.009   5.755  0.5729  0.4980 -0.2036
 6274TIP3    H240314   4.568   4.858   5.771  0.8810  0.6272  1.1513
 6275TIP3   OH240315   5.609   4.673  11.735  0.0641  0.0570 -0.0262
 6275TIP3    H140316   5.666   4.672  11.812  0.0109 -0.4817  0.0150
 6275TIP3    H240317   5.558   4.753  11.743  3.4977  2.7077 -2.0780
 6276TIP3   OH240318   3.055   3.769   1.690 -0.0136 -0.4979  0.1213
 6276TIP3    H140319   2.967   3.738   1.669 -0.7683  0.8773  1.0715
 6276TIP3    H240320   3.084   3.713   1.762 -0.1552 -0.8780 -0.1170
 6277TIP3   OH240321   5.836   6.580   2.721  0.2791  0.1879 -0.5079
 6277TIP3    H140322   5.777   6.535   2.661 -0.1583  1.4241 -1.0505
 6277TIP3    H240323   5.816   6.673   2.709  1.1579  0.5414  0.5456
 6278TIP3   OH240324   6.012   4.723  11.246  0.1265  0.1632  0.8134
 6278TIP3    H140325   6.100   4.717  11.283 -0.2641  1.0802  1.9701
 6278TIP3    H240326   5.980   4.633  11.245  1.2535 -0.2476 -0.1073
 6279TIP3   OH240327   5.564   3.239   1.271  0.0528  0.0410 -0.1362
 6279TIP3    H140328   5.524   3.305   1.214  1.3523  0.3639 -0.7344
 6279TIP3    H240329   5.644   3.281   1.304 -0.1656 -0.5065  1.1393
 6280TIP3   OH240330   3.448   0.069  16.809  0.0422  0.1788 -0.2004
 6280TIP3    H140331   3.520   0.131  16.798 -0.7600  1.2865  0.5058
 6280TIP3    H240332   3.369   0.123  16.803 -0.7291 -0.9493 -0.6110
 6281TIP3   OH240333   5.070   1.990  15.501  0.6996  0.5373 -0.3010
 6281TIP3    H140334   5.015   2.061  15.468  0.8253  1.0276  0.5198
 6281TIP3    H240335   5.148   2.034  15.535  1.8529 -0.1799 -1.8859
 6282TIP3   OH240336   3.804   4.732   0.262 -0.3870  0.0695  0.4623
 6282TIP3    H140337   3.897   4.756   0.271 -0.5218  1.1761 -0.7588
 6282TIP3    H240338   3.758   4.816   0.257 -1.1202 -0.4006 -1.8318
 6283TIP3   OH240339   5.700   6.026   2.158 -0.0256  0.2525 -0.4109
 6283TIP3    H140340   5.716   6.064   2.244 -1.5937 -1.9720  0.9549
 6283TIP3    H240341   5.760   5.952   2.153 -1.0042 -0.5516 -0.5463
 6284TIP3   OH240342   5.082   6.492   1.060  0.5916  0.3150 -0.2071
 6284TIP3    H140343   5.082   6.588   1.063  0.8324  0.3184 -0.3252
 6284TIP3    H240344   5.067   6.471   0.968  0.4062  0.2380 -0.1597
 6285TIP3   OH240345   2.754   2.630  15.938  0.1712  0.0921  0.4201
 6285TIP3    H140346   2.806   2.552  15.956 -1.6079 -1.0035  1.1558
 6285TIP3    H240347   2.682   2.599  15.882  0.5747  1.6578 -1.0452
 6286TIP3   OH240348   3.867   4.888   5.975 -0.3637 -0.8620  0.0738
 6286TIP3    H140349   3.771   4.895   5.978 -0.4162 -1.1700 -0.6409
 6286TIP3    H240350   3.896   4.915   6.062 -1.0763 -0.4005  0.1716
 6287TIP3   OH240351   1.720   6.690   0.215  0.2583  1.0379 -0.0481
 6287TIP3    H140352   1.773   6.767   0.194  0.6385  0.5434 -0.9324
 6287TIP3    H240353   1.713   6.692   0.311  1.1132  1.6160  0.0186
 6288TIP3   OH240354   4.720   5.335  11.909 -0.0992  0.4542  0.4025
 6288TIP3    H140355   4.705   5.397  11.837 -0.7381  0.4167  0.4911
 6288TIP3    H240356   4.813   5.342  11.928  0.7938 -1.7116 -2.4194
 6289TIP3   OH240357   1.676   4.583  15.497 -0.6168 -0.2403 -0.2343
 6289TIP3    H140358   1.597   4.604  15.546 -1.2056  1.8433 -1.9529
 6289TIP3    H240359   1.649   4.583  15.406  1.1812 -0.3064 -0.8028
 6290TIP3   OH240360   4.913   3.251  14.416  0.0400  0.1425  0.2263
 6290TIP3    H140361   4.933   3.282  14.504  0.7722  0.9102 -0.2071
 6290TIP3    H240362   4.986   3.280  14.362  0.1016 -1.2057 -0.4511
 6291TIP3   OH240363   3.829   2.295  15.026 -0.0106  0.3946 -0.2935
 6291TIP3    H140364   3.920   2.276  15.004 -0.1024  0.1909 -0.5113
 6291TIP3    H240365   3.790   2.323  14.943 -0.3471 -0.3196 -0.3899
 6292TIP3   OH240366   1.354   6.315  11.900  0.3600 -0.2770 -0.0411
 6292TIP3    H140367   1.442   6.351  11.910 -0.1929  0.6790  1.7769
 6292TIP3    H240368   1.304   6.386  11.859  0.6407 -1.2139 -2.1431
 6293TIP3   OH240369   1.969   3.436  14.560  0.0663  0.6862  0.1848
 6293TIP3    H140370   2.063   3.438  14.576  0.0465  1.4691  0.2401
 6293TIP3    H240371   1.944   3.528  14.551 -0.8830  0.5620  1.3213
 6294TIP3   OH240372   0.002   1.402  11.160  0.4183 -0.1880 -0.1748
 6294TIP3    H140373  -0.084   1.443  11.172  0.1390 -0.7952 -0.0791
 6294TIP3    H240374   0.064   1.466  11.197 -0.1972 -0.7930  2.0861
 6295TIP3   OH240375   5.880   5.470  11.821  0.0811 -1.1544 -0.3312
 6295TIP3    H140376   5.949   5.471  11.755 -1.5841 -0.4658 -2.1453
 6295TIP3    H240377   5.856   5.562  11.832  2.0590 -0.8643  3.2897
 6296TIP3   OH240378   3.979   4.054   5.987 -0.4038 -0.1462 -0.0763
 6296TIP3    H140379   3.958   3.962   6.007  0.1935 -0.0953  0.8797
 6296TIP3    H240380   3.942   4.069   5.900 -0.8268 -1.1888 -0.0935
 6297TIP3   OH240381   0.027   2.579   0.118 -0.2886 -0.4307  0.2557
 6297TIP3    H140382  -0.014   2.621   0.194 -0.8792 -1.2138  0.3940
 6297TIP3    H240383   0.032   2.486   0.143  0.2768 -0.5614 -0.3376
 6298TIP3   OH240384   4.451   6.625   3.029  0.1184  0.2967 -0.4319
 6298TIP3    H140385   4.370   6.577   3.046 -0.0029  0.1369 -1.3932
 6298TIP3    H240386   4.442   6.707   3.077 -0.2523 -0.0760  0.1346
 6299TIP3   OH240387   6.562   0.254  12.365 -0.3803 -0.4346  0.3140
 6299TIP3    H140388   6.484   0.240  12.419 -2.7685  0.9824 -2.4405
 6299TIP3    H240389   6.586   0.345  12.381  0.2581 -0.6391  0.5582
 6300TIP3   OH240390   0.374   3.810  17.047  0.3151 -0.2008 -0.4407
 6300TIP3    H140391   0.293   3.762  17.062 -0.1712  0.1552 -1.7999
 6300TIP3    H240392   0.346   3.898  17.021  1.1511  0.1480 -0.1982
 6301TIP3   OH240393   0.736   4.857  16.757 -0.4985  0.2125 -0.1651
 6301TIP3    H140394   0.782   4.897  16.831  0.1018 -0.7102 -0.0118
 6301TIP3    H240395   0.774   4.769  16.751 -1.2471 -0.0678 -0.9488
 6302TIP3   OH240396   6.197   1.653   0.724 -0.2832 -0.3804 -0.3249
 6302TIP3    H140397   6.222   1.562   0.708  1.3914 -0.1025  0.4885
 6302TIP3    H240398   6.216   1.667   0.817 -0.9809  0.6561 -0.3249
 6303TIP3   OH240399   2.539   2.680  15.548 -0.0429  0.3042 -0.0759
 6303TIP3    H140400   2.494   2.652  15.468  0.9656 -1.0687 -0.1937
 6303TIP3    H240401   2.540   2.602  15.603  0.9220  0.7207  0.5167
 6304TIP3   OH240402   1.646   2.548   1.033 -0.7773 -0.2222  0.2465
 6304TIP3    H140403   1.609   2.503   0.957 -0.6797  0.9001 -0.4999
 6304TIP3    H240404   1.588   2.524   1.106 -1.4514 -0.5432 -0.3823
 6305TIP3   OH240405   1.168   0.832   1.160 -0.2659  0.1506 -0.1131
 6305TIP3    H140406   1.134   0.909   1.206  1.3678  0.3319  0.8824
 6305TIP3    H240407   1.121   0.758   1.199  0.6543  0.3611  1.4790
 6306TIP3   OH240408   0.649   5.233   2.720 -0.5171 -0.3819  0.1544
 6306TIP3    H140409   0.570   5.186   2.746 -0.4893 -0.7843 -0.4623
 6306TIP3    H240410   0.650   5.227   2.624 -0.6530  1.0997  0.0411
 6307TIP3   OH240411   2.054   4.350   5.652 -0.0461 -0.4282  0.1635
 6307TIP3    H140412   2.118   4.282   5.674  0.2770 -1.3256 -3.0576
 6307TIP3    H240413   2.011   4.319   5.573  0.4201  3.2907 -1.7822
 6308TIP3   OH240414   6.083   0.829   5.631 -0.4975  0.1657  0.3112
 6308TIP3    H140415   6.164   0.780   5.614 -1.2519 -1.1055  0.2466
 6308TIP3    H240416   6.045   0.786   5.707 -1.9999 -0.4536 -0.7284
 6309TIP3   OH240417   0.231   1.752   1.100  0.0755 -0.5032  0.0316
 6309TIP3    H140418   0.141   1.751   1.131  0.4158  0.1478  1.0911
 6309TIP3    H240419   0.255   1.660   1.093 -1.3417 -0.7618 -2.3685
 6310TIP3   OH240420   2.270   5.047  11.252 -0.0231  0.0504 -0.2924
 6310TIP3    H140421   2.290   5.141  11.253  1.4297 -0.2206  0.8131
 6310TIP3    H240422   2.353   5.006  11.226 -1.0943 -0.8750 -2.4560
 6311TIP3   OH240423   3.765   5.936  12.494  0.1932  0.2296  0.0195
 6311TIP3    H140424   3.681   5.923  12.539  0.6058  0.7620  0.9894
 6311TIP3    H240425   3.744   5.990  12.418 -0.1278  1.7776  1.1558
 6312TIP3   OH240426   6.648   3.111   2.491 -0.4397 -0.6623 -0.2096
 6312TIP3    H140427   6.687   3.097   2.578  0.2606 -1.1728 -0.6010
 6312TIP3    H240428   6.642   3.206   2.483  0.6841 -0.5703 -0.1189
 6313TIP3   OH240429   0.354   3.910   5.543 -0.0564 -0.5523 -0.7122
 6313TIP3    H140430   0.402   3.969   5.603  0.9583 -0.2941 -1.7427
 6313TIP3    H240431   0.285   3.872   5.598  0.0677  0.6098  0.3154
 6314TIP3   OH240432   2.245   0.201  16.931  0.1201  0.1935  0.3572
 6314TIP3    H140433   2.330   0.185  16.890 -0.3195  0.0225 -0.5232
 6314TIP3    H240434   2.249   0.292  16.959  1.2819 -0.3379  2.0571
 6315TIP3   OH240435   3.558   6.764   4.075  0.2464 -0.5349 -0.3520
 6315TIP3    H140436   3.534   6.850   4.039 -1.7433 -1.2768 -0.9257
 6315TIP3    H240437   3.571   6.781   4.169 -0.2086  0.3777 -0.4380
 6316TIP3   OH240438   5.753   5.096   1.525  0.1101  1.0565  0.5226
 6316TIP3    H140439   5.784   5.078   1.614 -0.1050 -0.9147  0.2433
 6316TIP3    H240440   5.691   5.026   1.506 -0.3737  1.8280 -0.9438
 6317TIP3   OH240441   6.066   3.751  12.147  0.1546 -0.0138  0.4206
 6317TIP3    H140442   6.085   3.687  12.079 -1.5882 -0.2865  0.1646
 6317TIP3    H240443   6.045   3.831  12.099 -1.9872 -0.4493  0.5609
 6318TIP3   OH240444   1.117   5.064  12.833 -0.3569 -0.3758  0.3676
 6318TIP3    H140445   1.123   5.032  12.743 -1.4679 -0.4674  0.3206
 6318TIP3    H240446   1.205   5.050  12.868  0.1621 -0.1029 -0.7745
 6319TIP3   OH240447   1.887   6.443  16.044  0.3979 -0.1062  0.1083
 6319TIP3    H140448   1.892   6.533  16.075 -0.3477  0.5220 -1.4975
 6319TIP3    H240449   1.803   6.411  16.076  0.8600 -0.3986  1.0583
 6320TIP3   OH240450   4.215   0.019  14.548 -0.1046  0.0573  0.1858
 6320TIP3    H140451   4.171   0.088  14.597 -0.8635 -0.6376  0.5035
 6320TIP3    H240452   4.309   0.036  14.562 -0.2806  1.0379  0.2117
 6321TIP3   OH240453   3.431   0.828  10.362  0.2614  0.2208 -0.2198
 6321TIP3    H140454   3.409   0.751  10.309  2.4914  0.3562 -1.5146
 6321TIP3    H240455   3.452   0.793  10.448  1.7827 -0.7658 -0.9404
 6322TIP3   OH240456   0.277   5.820   3.166 -0.4288  0.1050  0.5352
 6322TIP3    H140457   0.289   5.726   3.180  0.4470  0.4524  2.3173
 6322TIP3    H240458   0.362   5.858   3.188 -0.1521  1.1837 -2.0187
 6323TIP3   OH240459   1.921   2.663  14.861 -0.0171  0.5153  0.0774
 6323TIP3    H140460   2.012   2.667  14.833  0.2317  2.1934  0.9802
 6323TIP3    H240461   1.872   2.642  14.782  1.2044 -1.3035 -0.2374
 6324TIP3   OH240462   6.428   2.023   4.234  0.3249 -0.1565 -0.1419
 6324TIP3    H140463   6.454   1.974   4.156 -0.1958  0.3534 -0.6411
 6324TIP3    H240464   6.511   2.040   4.279  0.5685 -1.0141 -0.2361
 6325TIP3   OH240465   0.435   0.076  15.195  0.1009 -0.1342  0.1881
 6325TIP3    H140466   0.381   0.155  15.193 -0.3213 -0.4277 -0.1565
 6325TIP3    H240467   0.372   0.004  15.190  0.5871 -0.4942 -3.1258
 6326TIP3   OH240468   2.593   3.367  15.505 -0.2680 -0.2124  0.4374
 6326TIP3    H140469   2.560   3.441  15.556 -0.7797 -0.2790  0.2062
 6326TIP3    H240470   2.524   3.348  15.442 -0.0659 -0.7783  0.3769
 6327TIP3   OH240471   5.157   2.501  14.272  0.2416  0.3106  0.1111
 6327TIP3    H140472   5.076   2.506  14.222 -1.4485 -1.2267  2.4893
 6327TIP3    H240473   5.147   2.568  14.340  0.1361 -1.0144  1.4491
 6328TIP3   OH240474   2.653   6.573   4.873 -0.0126 -0.7066  0.5010
 6328TIP3    H140475   2.573   6.594   4.923 -0.5891 -0.2442 -0.5855
 6328TIP3    H240476   2.621   6.553   4.785  0.8398 -2.9447  0.6448
 6329TIP3   OH240477   5.066   1.168  15.402 -0.4914 -0.0223 -0.1033
 6329TIP3    H140478   5.093   1.237  15.463  0.0088  0.2449 -0.6134
 6329TIP3    H240479   4.970   1.172  15.402 -0.6233 -1.4415  2.2481
 6330TIP3   OH240480   2.656   6.046  11.693 -0.3615 -0.0462  0.4208
 6330TIP3    H140481   2.652   6.124  11.749  1.0884 -0.0137  0.5196
 6330TIP3    H240482   2.740   6.054  11.647 -0.4045 -1.3149  0.0891
 6331TIP3   OH240483   1.782   0.744   5.395  0.2874 -0.2849 -0.0619
 6331TIP3    H140484   1.810   0.739   5.303  0.1874  0.9986 -0.1814
 6331TIP3    H240485   1.837   0.812   5.433 -0.2543 -0.2160  0.6141
 6332TIP3   OH240486   3.381   4.894   4.577  0.3827  0.2994 -0.3997
 6332TIP3    H140487   3.304   4.869   4.527  0.2024  1.8327 -0.9182
 6332TIP3    H240488   3.356   4.878   4.669 -0.3267  0.2453 -0.5980
 6333TIP3   OH240489   3.590   4.184  10.765 -0.3670 -0.2037 -0.5204
 6333TIP3    H140490   3.514   4.139  10.728  0.0647  0.0629 -1.7830
 6333TIP3    H240491   3.662   4.122  10.752 -0.3136 -0.3506  0.4359
 6334TIP3   OH240492   1.668   0.839   2.291  0.0331 -0.4260  0.0306
 6334TIP3    H140493   1.593   0.889   2.260  2.0252  1.4518 -2.1674
 6334TIP3    H240494   1.666   0.758   2.240  0.0180  0.0498 -0.7386
 6335TIP3   OH240495   5.197   0.187   2.766 -0.6977  0.4967 -0.6972
 6335TIP3    H140496   5.241   0.102   2.768  0.1337  0.9204  1.7006
 6335TIP3    H240497   5.259   0.245   2.721  0.6989  0.7626  1.4310
 6336TIP3   OH240498   6.611   0.689  14.282  0.4418 -0.7243 -0.2278
 6336TIP3    H140499   6.520   0.706  14.303  0.3395  0.5627 -1.5463
 6336TIP3    H240500   6.626   0.599  14.309 -2.1826 -2.1356 -2.9687
 6337TIP3   OH240501   0.457   3.162   3.721  0.0310 -0.1001 -0.0354
 6337TIP3    H140502   0.455   3.155   3.626 -2.3299  0.9796 -0.1289
 6337TIP3    H240503   0.405   3.087   3.752 -0.5859  0.4493  0.2956
 6338TIP3   OH240504   5.335   2.820  14.352  0.0222 -0.2961 -0.3501
 6338TIP3    H140505   5.261   2.803  14.410  0.0429 -2.1450 -0.8248
 6338TIP3    H240506   5.381   2.737  14.346  0.6277  0.1244 -2.1987
 6339TIP3   OH240507   3.502   1.712   6.004  0.3802  0.0971  0.0233
 6339TIP3    H140508   3.441   1.675   5.940 -1.1324 -0.9121  1.9290
 6339TIP3    H240509   3.553   1.776   5.955 -2.6861  1.5351 -1.5593
 6340TIP3   OH240510   5.412   0.703  16.668 -0.2203 -0.1463  0.0955
 6340TIP3    H140511   5.351   0.638  16.634 -0.0575 -0.1368 -0.2246
 6340TIP3    H240512   5.497   0.678  16.631 -0.4329  1.2042 -1.4307
 6341TIP3   OH240513   6.249   3.824  16.644 -0.0956 -0.4356 -0.0399
 6341TIP3    H140514   6.225   3.832  16.552 -1.2464  1.0139  0.3566
 6341TIP3    H240515   6.334   3.867  16.651 -0.4327  0.2679 -0.2581
 6342TIP3   OH240516   3.940   5.442   4.174  0.0944  0.0951  0.3988
 6342TIP3    H140517   4.006   5.377   4.196  1.0743  1.0166  0.2543
 6342TIP3    H240518   3.960   5.468   4.084 -1.3660 -0.6540 -0.1773
 6343TIP3   OH240519   1.787   0.527   1.453  0.1927 -0.2692 -0.1165
 6343TIP3    H140520   1.877   0.504   1.430  0.4383 -0.6281  1.1101
 6343TIP3    H240521   1.776   0.617   1.423  0.7699 -0.4214 -0.7993
 6344TIP3   OH240522   1.641   4.846   0.762 -0.0178  0.8193  0.5692
 6344TIP3    H140523   1.698   4.902   0.710  0.6916  0.2316  0.6970
 6344TIP3    H240524   1.663   4.757   0.735 -0.5344  0.5651  0.9631
 6345TIP3   OH240525   3.357   5.057  15.632  0.1312 -0.0359  0.0113
 6345TIP3    H140526   3.291   5.063  15.701  0.4102  0.4024  0.2468
 6345TIP3    H240527   3.335   4.977  15.584  1.0194 -1.4077  1.7535
 6346TIP3   OH240528   6.798   3.189  12.270 -0.3299  0.1909  0.3275
 6346TIP3    H140529   6.815   3.106  12.226 -1.4538  0.0223  0.1864
 6346TIP3    H240530   6.710   3.214  12.242 -0.7138  0.5342  1.7601
 6347TIP3   OH240531   6.801   0.632  14.589 -0.7695  0.0958 -0.2234
 6347TIP3    H140532   6.895   0.616  14.600 -0.0995  0.9317 -3.4293
 6347TIP3    H240533   6.794   0.727  14.581 -1.8291  0.0167 -0.3558
 6348TIP3   OH240534   3.330   3.418  14.893  0.0477  0.4303  0.0556
 6348TIP3    H140535   3.417   3.452  14.869  0.0361 -1.0657 -2.5247
 6348TIP3    H240536   3.345   3.325  14.909 -1.0760  0.1547 -0.4436
 6349TIP3   OH240537   3.146   4.831   1.195 -0.1510  0.0559  0.2064
 6349TIP3    H140538   3.237   4.816   1.220 -0.2854 -2.9552 -0.6932
 6349TIP3    H240539   3.148   4.913   1.144  2.2838 -0.5582 -0.8308
 6350TIP3   OH240540   1.452   6.472  17.044  0.2066 -0.1932 -0.2126
 6350TIP3    H140541   1.360   6.449  17.055 -0.3164  0.5735 -2.4773
 6350TIP3    H240542   1.485   6.483  17.134 -1.8260 -0.7057  0.6501
 6351TIP3   OH240543   0.126   6.676   5.813 -0.2555  0.1350 -0.4297
 6351TIP3    H140544   0.179   6.754   5.794 -1.9857  1.0960 -1.5141
 6351TIP3    H240545   0.178   6.628   5.878  1.8576  1.1025 -1.2975
 6352TIP3   OH240546   3.260   4.479  10.594  0.0396 -0.4046 -0.1096
 6352TIP3    H140547   3.296   4.469  10.683  0.2251 -0.4018 -0.1833
 6352TIP3    H240548   3.239   4.573  10.588  1.1127 -0.1731 -0.4718
 6353TIP3   OH240549   1.546   3.760  12.668 -0.1061 -0.0094  0.3854
 6353TIP3    H140550   1.593   3.764  12.752 -1.0215 -1.9357  1.0424
 6353TIP3    H240551   1.488   3.836  12.670  0.0122  0.0708  1.4328
 6354TIP3   OH240552   6.243   3.867   0.873  0.3519  0.1309 -0.0712
 6354TIP3    H140553   6.321   3.814   0.890  0.7791  1.5891  3.3753
 6354TIP3    H240554   6.172   3.821   0.917  0.1610  0.9214  0.4759
 6355TIP3   OH240555   5.395   2.221   5.405  0.2958 -0.4585 -0.3777
 6355TIP3    H140556   5.459   2.289   5.425  0.7671 -1.0861  0.2895
 6355TIP3    H240557   5.310   2.264   5.414  0.5718 -0.1076  0.6446
 6356TIP3   OH240558   4.316   0.323  11.740  0.2281 -0.3181 -0.0544
 6356TIP3    H140559   4.310   0.415  11.768 -0.3039 -0.5971  0.7948
 6356TIP3    H240560   4.227   0.300  11.714 -0.3399 -1.4308  2.5655
 6357TIP3   OH240561   3.743   5.594  16.189  0.0230  0.1341 -0.1605
 6357TIP3    H140562   3.718   5.667  16.134 -0.1501 -0.9084 -1.5157
 6357TIP3    H240563   3.725   5.624  16.278  1.9027  2.4769 -0.4802
 6358TIP3   OH240564   6.472   2.969  13.415 -0.1083  0.7060 -0.2543
 6358TIP3    H140565   6.407   2.905  13.388  0.0160  0.6701 -0.4756
 6358TIP3    H240566   6.443   3.051  13.375 -1.1804  1.1676  1.3827
 6359TIP3   OH240567   2.010   2.191   0.543 -0.4898 -0.0113  0.6468
 6359TIP3    H140568   1.990   2.223   0.455 -0.7152  0.2038  0.7723
 6359TIP3    H240569   1.957   2.246   0.601 -0.4574 -0.2481  0.9070
 6360TIP3   OH240570   6.662   3.435   6.083 -0.0756  0.4744 -0.2971
 6360TIP3    H140571   6.656   3.361   6.144  1.3221  0.0190 -0.6828
 6360TIP3    H240572   6.614   3.506   6.126  0.4755  0.0208  1.1104
 6361TIP3   OH240573   1.842   3.653  16.388 -0.6809 -0.6722  0.4742
 6361TIP3    H140574   1.880   3.594  16.322 -0.2382  0.8201 -0.6706
 6361TIP3    H240575   1.896   3.639  16.466 -1.7421 -3.0889  0.8587
 6362TIP3   OH240576   0.496   0.930  16.649  0.8461  0.0898 -0.5758
 6362TIP3    H140577   0.467   0.899  16.735 -1.4135 -2.9137 -2.2420
 6362TIP3    H240578   0.577   0.881  16.632  0.9578  0.2231 -0.4331
 6363TIP3   OH240579   2.205   2.411   5.120 -0.6722  0.0186  0.3227
 6363TIP3    H140580   2.136   2.346   5.133 -0.7456 -0.2170 -1.1053
 6363TIP3    H240581   2.261   2.373   5.053  1.1985 -0.0362  1.8441
 6364TIP3   OH240582   3.500   6.124   4.346 -0.0316  0.3881 -0.3310
 6364TIP3    H140583   3.512   6.214   4.376  0.4996 -0.2509  1.4922
 6364TIP3    H240584   3.407   6.118   4.325 -0.8717  0.4584  2.8884
 6365TIP3   OH240585   3.784   4.641  11.988  0.0477  0.6963 -0.3207
 6365TIP3    H140586   3.790   4.724  12.034 -2.1400  0.9819 -0.4461
 6365TIP3    H240587   3.739   4.583  12.050 -0.5933  0.3326 -1.1106
 6366TIP3   OH240588   3.763   3.767  12.878 -0.2406 -0.4176  0.3757
 6366TIP3    H140589   3.683   3.819  12.874 -0.7289 -1.0550  1.4605
 6366TIP3    H240590   3.788   3.754  12.786 -1.3298 -0.1442  0.0240
 6367TIP3   OH240591   3.179   4.725  11.361  0.5529  0.3093  0.1979
 6367TIP3    H140592   3.256   4.733  11.417  1.6074  0.9998 -1.3138
 6367TIP3    H240593   3.105   4.730  11.422  1.6668 -0.5766  1.7014
 6368TIP3   OH240594   5.509   2.678   2.117  0.3475 -0.2927 -0.1178
 6368TIP3    H140595   5.420   2.653   2.091  0.4049  1.8234 -2.7694
 6368TIP3    H240596   5.496   2.746   2.183 -0.0878  0.6406 -1.1277
 6369TIP3   OH240597   6.803   2.659  10.947 -0.3847  0.2152 -0.8896
 6369TIP3    H140598   6.771   2.636  10.859  0.6063 -1.6211 -0.7982
 6369TIP3    H240599   6.896   2.637  10.945 -0.2174  0.7550  0.4395
 6370TIP3   OH240600   3.456   0.692  11.848 -0.2307  0.4512 -0.1417
 6370TIP3    H140601   3.543   0.654  11.859 -0.3388  0.2811  0.1324
 6370TIP3    H240602   3.422   0.700  11.937 -1.1542 -1.0199 -0.3238
 6371TIP3   OH240603   6.564   2.951  12.934 -0.4294  0.6605 -0.1338
 6371TIP3    H140604   6.627   2.946  12.861 -0.9093  0.6520 -0.5510
 6371TIP3    H240605   6.552   2.861  12.962 -2.5933  0.2358 -2.0847
 6372TIP3   OH240606   4.671   5.324   0.098 -0.0697 -0.2436 -1.0825
 6372TIP3    H140607   4.646   5.413   0.123  2.8201 -0.0086  1.5391
 6372TIP3    H240608   4.600   5.269   0.131 -0.7908  0.8846 -0.6725
 6373TIP3   OH240609   4.078   2.825   2.401  0.4532 -0.1850  0.8304
 6373TIP3    H140610   4.165   2.864   2.390  0.1663  0.1590 -0.3436
 6373TIP3    H240611   4.094   2.746   2.452  1.6311 -0.7135 -0.2867
 6374TIP3   OH240612   0.192   0.095  12.507 -0.1450 -0.2597 -0.8321
 6374TIP3    H140613   0.151   0.070  12.424 -0.1712 -1.7196 -0.4184
 6374TIP3    H240614   0.146   0.175  12.534  0.5513  0.8124 -2.6919
 6375TIP3   OH240615   3.978   2.289   4.803  0.1951  0.2891 -0.0105
 6375TIP3    H140616   3.947   2.380   4.801 -0.2484  0.1358 -0.3339
 6375TIP3    H240617   3.915   2.242   4.749  1.5128  0.1189 -1.4450
 6376TIP3   OH240618   1.871   6.704   4.762 -0.4567  0.4576  0.5512
 6376TIP3    H140619   1.926   6.647   4.708 -1.7635 -0.1833 -0.1615
 6376TIP3    H240620   1.841   6.772   4.701 -1.1712  0.2696  0.6751
 6377TIP3   OH240621   6.105   3.647   4.022 -0.4879 -0.1587  0.0815
 6377TIP3    H140622   6.043   3.577   4.042 -1.1754  0.1785 -0.7912
 6377TIP3    H240623   6.051   3.726   4.017 -0.0161  0.1127 -0.8614
 6378TIP3   OH240624   1.516   0.667  11.148 -0.1770 -0.7171 -0.1082
 6378TIP3    H140625   1.585   0.679  11.083  0.1240  0.7173  0.4358
 6378TIP3    H240626   1.464   0.594  11.115  0.5499 -0.6591 -1.4409
 6379TIP3   OH240627   6.469   0.248   5.558 -0.2732 -0.0908  0.1403
 6379TIP3    H140628   6.487   0.276   5.468 -0.0465 -0.3368  0.1086
 6379TIP3    H240629   6.374   0.244   5.563 -0.2729 -0.5576 -0.2358
 6380TIP3   OH240630   3.011   1.042   4.752 -0.0008  0.2232 -0.6742
 6380TIP3    H140631   2.957   1.120   4.737  2.3375  1.9586 -0.6515
 6380TIP3    H240632   3.034   1.012   4.664  0.7306  0.7758 -0.6733
 6381TIP3   OH240633   6.117   5.128   0.866 -0.2937  0.1521  0.4004
 6381TIP3    H140634   6.052   5.104   0.800  0.3007  0.8685 -0.4690
 6381TIP3    H240635   6.067   5.134   0.947 -1.0764 -0.5550 -0.0138
 6382TIP3   OH240636   2.186   4.518  13.267 -0.0212 -0.4297 -0.1780
 6382TIP3    H140637   2.237   4.581  13.317 -1.6488  1.2546 -0.5323
 6382TIP3    H240638   2.113   4.494  13.324  1.1523 -2.9372  0.3978
 6383TIP3   OH240639   0.070   0.670  16.498 -0.1244 -0.8724  0.7819
 6383TIP3    H140640   0.127   0.602  16.461  0.1761 -1.0812  1.6054
 6383TIP3    H240641  -0.008   0.667  16.443  0.7604 -0.3800 -0.5466
 6384TIP3   OH240642   4.396   0.688   0.934  0.3398 -0.3750  0.6463
 6384TIP3    H140643   4.387   0.706   0.840  1.6942  0.3722  0.6353
 6384TIP3    H240644   4.336   0.616   0.950 -0.6485  0.1283 -0.5954
 6385TIP3   OH240645   3.375   2.704  11.152 -0.0817  0.3292  0.0728
 6385TIP3    H140646   3.349   2.772  11.214 -1.1985  1.3246 -1.4195
 6385TIP3    H240647   3.294   2.654  11.137  0.2874 -0.1839 -0.2321
 6386TIP3   OH240648   6.206   4.006   4.876 -0.2687  0.0559  0.6485
 6386TIP3    H140649   6.158   4.088   4.867  0.0119  0.1037 -0.6014
 6386TIP3    H240650   6.139   3.941   4.898 -0.9566  0.0978 -1.2108
 6387TIP3   OH240651   1.146   0.273   2.029 -0.1063 -0.2260 -0.6672
 6387TIP3    H140652   1.239   0.293   2.036 -0.1186 -0.2321 -0.4542
 6387TIP3    H240653   1.114   0.280   2.119 -0.9609  2.9835 -1.1027
 6388TIP3   OH240654   4.723   2.928   2.867  0.5171  0.1417  0.8292
 6388TIP3    H140655   4.774   2.876   2.929 -0.7603 -0.1335  1.6936
 6388TIP3    H240656   4.633   2.898   2.880 -0.1320  1.9436  0.7081
 6389TIP3   OH240657   0.099   5.557   0.916  0.0680  0.0864  0.3170
 6389TIP3    H140658   0.164   5.615   0.876 -0.4440  0.4919  0.0727
 6389TIP3    H240659   0.065   5.607   0.990 -0.0199 -0.1026  0.4051
 6390TIP3   OH240660   3.412   3.541  11.357  0.1871  0.3071 -0.0554
 6390TIP3    H140661   3.496   3.581  11.334  0.0495  1.0416  0.6631
 6390TIP3    H240662   3.397   3.568  11.447 -1.8019  1.9310 -0.7945
 6391TIP3   OH240663   0.427   4.864   0.064 -0.1959  0.1612 -0.0040
 6391TIP3    H140664   0.491   4.880  -0.006  1.2247  1.4413  1.5157
 6391TIP3    H240665   0.477   4.819   0.132 -0.5930  2.0873  1.6409
 6392TIP3   OH240666   2.906   1.069   0.114  0.4192  0.0537  0.6694
 6392TIP3    H140667   2.996   1.097   0.099  0.7732 -1.6117 -0.6371
 6392TIP3    H240668   2.878   1.032   0.030 -0.6342 -1.6738  1.7156
 6393TIP3   OH240669   6.117   6.842   5.641  0.5250  0.1590  0.3231
 6393TIP3    H140670   6.062   6.909   5.682 -0.9380 -0.8101  0.0124
 6393TIP3    H240671   6.105   6.765   5.696  1.6484 -0.0802  0.2725
 6394TIP3   OH240672   1.584   2.413  14.852  0.4444 -0.1542 -0.5774
 6394TIP3    H140673   1.579   2.401  14.947 -2.0126 -1.6504 -0.8178
 6394TIP3    H240674   1.653   2.353  14.825  0.1203 -0.8795  0.1340
 6395TIP3   OH240675   6.310   3.506   3.877 -0.1321 -0.0318  0.2389
 6395TIP3    H140676   6.289   3.423   3.833  0.3784 -0.0548  0.0285
 6395TIP3    H240677   6.227   3.533   3.916 -0.7934  0.3272 -1.3075
 6396TIP3   OH240678   6.233   1.619  16.402  0.3628  0.3163 -0.6659
 6396TIP3    H140679   6.269   1.699  16.438 -0.8942  0.6180  0.0018
 6396TIP3    H240680   6.194   1.645  16.318  0.9762  0.1608 -1.0003
 6397TIP3   OH240681   0.475   2.916   1.836 -0.2085 -0.4345 -0.0262
 6397TIP3    H140682   0.558   2.907   1.789 -0.4652  0.0236 -0.5666
 6397TIP3    H240683   0.432   2.831   1.824 -1.1061  0.2678 -2.2430
 6398TIP3   OH240684   0.432   1.875   2.334 -0.2740 -0.3630  0.0993
 6398TIP3    H140685   0.424   1.928   2.254  1.4158  0.4444  0.4186
 6398TIP3    H240686   0.393   1.791   2.311 -2.4306  0.7469 -0.6476
 6399TIP3   OH240687   6.574   6.461  12.017  0.3621 -0.2663 -0.8043
 6399TIP3    H140688   6.573   6.528  11.948  1.3421 -0.5130 -1.0712
 6399TIP3    H240689   6.597   6.380  11.972  4.1443  0.0874  0.1941
 6400TIP3   OH240690   5.413   1.249   5.621  0.3540  0.0228  0.3414
 6400TIP3    H140691   5.456   1.320   5.573  2.0031 -0.4697  1.0045
 6400TIP3    H240692   5.478   1.178   5.622 -1.0500 -1.3187  0.1562
 6401TIP3   OH240693   3.647   4.960   1.612 -0.2167  0.2748 -0.6064
 6401TIP3    H140694   3.614   4.954   1.522 -0.9661 -0.0783 -0.3131
 6401TIP3    H240695   3.574   4.931   1.667  0.4381 -0.1009  0.0849
 6402TIP3   OH240696   2.910   0.531  16.850 -0.1903 -0.3928  0.3234
 6402TIP3    H140697   2.909   0.473  16.774 -1.4796  0.2088 -0.1505
 6402TIP3    H240698   2.840   0.594  16.834  1.5163  1.7066  0.5305
 6403TIP3   OH240699   4.667   0.780  16.846  0.5478 -0.2516 -0.5047
 6403TIP3    H140700   4.725   0.788  16.770  1.1789 -0.8319 -0.0889
 6403TIP3    H240701   4.716   0.728  16.909 -0.4626 -0.8413 -0.1770
 6404TIP3   OH240702   5.334   4.349   6.614 -0.1868  0.1616  0.1159
 6404TIP3    H140703   5.269   4.374   6.679  0.6168  0.6922  0.7351
 6404TIP3    H240704   5.408   4.316   6.664  0.8208  1.4448 -0.4397
 6405TIP3   OH240705   3.812   0.643  16.944 -0.2513 -0.1356  0.1331
 6405TIP3    H140706   3.816   0.625  16.850 -2.1188  0.4165 -0.0791
 6405TIP3    H240707   3.885   0.704  16.959 -1.0142  1.2084 -1.3142
 6406TIP3   OH240708   0.801   1.882  16.978  0.2214 -0.1856  0.3593
 6406TIP3    H140709   0.722   1.848  17.020  0.9284 -0.3570  1.6161
 6406TIP3    H240710   0.871   1.824  17.008  1.0452  0.8104  0.4225
 6407TIP3   OH240711   2.622   4.153   1.742  0.1878  0.0326  0.0525
 6407TIP3    H140712   2.542   4.166   1.793 -0.5995 -0.3927 -1.0352
 6407TIP3    H240713   2.605   4.073   1.691  1.8031 -0.7938  0.7367
 6408TIP3   OH240714   6.477   3.978  16.850 -0.0325 -0.7131 -0.3236
 6408TIP3    H140715   6.392   3.935  16.857  0.0180 -0.7518  0.0260
 6408TIP3    H240716   6.510   3.984  16.939  0.0701 -0.1639 -0.3925
 6409TIP3   OH240717   0.989   5.541  14.768 -0.7032 -0.1385 -0.2127
 6409TIP3    H140718   0.981   5.459  14.719 -0.6710 -0.2326 -0.0628
 6409TIP3    H240719   0.937   5.526  14.847  0.3194 -0.4690  0.4050
 6410TIP3   OH240720   3.453   2.868  15.763 -0.0401 -0.5620  0.6698
 6410TIP3    H140721   3.491   2.913  15.687  0.1866 -1.2369  0.3732
 6410TIP3    H240722   3.427   2.939  15.822 -1.1336  0.0084 -0.4553
 6411TIP3   OH240723   4.243   2.082   2.621  0.3477  0.5636 -0.3569
 6411TIP3    H140724   4.234   2.001   2.671 -1.6088  0.6051 -0.5615
 6411TIP3    H240725   4.329   2.116   2.645 -0.0185 -0.0327  2.0431
 6412TIP3   OH240726   5.142   0.407   4.216  0.2187  0.2312  0.3353
 6412TIP3    H140727   5.231   0.426   4.188  0.4247 -0.9488  0.1248
 6412TIP3    H240728   5.111   0.488   4.257  2.0270  0.1084  2.0837
 6413TIP3   OH240729   0.680   3.006  11.320 -0.0567  0.1576  0.0361
 6413TIP3    H140730   0.745   3.068  11.352 -0.2418 -0.0009  0.7382
 6413TIP3    H240731   0.657   3.038  11.233 -0.8832  1.6836  0.7631
 6414TIP3   OH240732   3.332   4.293   5.529  0.2565  0.2366  0.4064
 6414TIP3    H140733   3.276   4.349   5.583  0.4655 -0.4955  1.3987
 6414TIP3    H240734   3.287   4.208   5.528 -0.5332  0.6008 -1.8226
 6415TIP3   OH240735   0.229   1.531  14.751  0.4543  0.6443  0.1222
 6415TIP3    H140736   0.317   1.520  14.788  0.5583  0.9825 -0.0181
 6415TIP3    H240737   0.173   1.478  14.807  0.9182 -0.5673 -0.5211
 6416TIP3   OH240738   2.041   1.190   6.741 -0.4088 -0.0683  0.0374
 6416TIP3    H140739   2.122   1.219   6.701 -1.3568  2.6321 -0.1428
 6416TIP3    H240740   1.973   1.244   6.701 -1.9804 -0.4036  2.0317
 6417TIP3   OH240741   0.888   1.851  16.276 -0.1918 -0.7023 -0.1386
 6417TIP3    H140742   0.974   1.812  16.293 -0.8981 -1.5442  1.8892
 6417TIP3    H240743   0.842   1.844  16.360 -1.8674  0.7063 -0.8763
 6418TIP3   OH240744   4.553   3.988  15.495  0.4149  0.0278  0.3866
 6418TIP3    H140745   4.543   4.047  15.420  3.3223 -0.3513 -0.3997
 6418TIP3    H240746   4.545   3.900  15.458  1.4784 -0.1537  0.5539
 6419TIP3   OH240747   1.343   5.517  11.884  0.0454  0.0883  0.0392
 6419TIP3    H140748   1.299   5.540  11.802  0.8340  1.1733 -0.0957
 6419TIP3    H240749   1.302   5.573  11.950 -1.0107 -1.2081  0.5329
 6420TIP3   OH240750   3.359   1.475  14.522  0.0943  0.7372  0.2257
 6420TIP3    H140751   3.325   1.475  14.433 -1.3854  1.5963  0.7614
 6420TIP3    H240752   3.284   1.451  14.577  0.8471  0.7330  1.2843
 6421TIP3   OH240753   5.528   1.305  13.681 -0.0755  0.0474 -0.0650
 6421TIP3    H140754   5.447   1.297  13.630  0.5043 -0.2753 -0.9700
 6421TIP3    H240755   5.520   1.239  13.749 -1.3230  1.1724  0.9407
 6422TIP3   OH240756   4.155   4.725  15.237  0.1153 -0.7847 -0.1414
 6422TIP3    H140757   4.076   4.771  15.264  0.4881 -0.1587 -0.0970
 6422TIP3    H240758   4.123   4.645  15.195 -0.5164 -1.0565  0.8223
 6423TIP3   OH240759   5.696   3.109   5.286 -0.0817 -0.1895 -0.3382
 6423TIP3    H140760   5.675   3.118   5.379 -0.1290  1.1348 -0.4574
 6423TIP3    H240761   5.739   3.191   5.263  0.1490 -0.6016 -1.4299
 6424TIP3   OH240762   2.553   2.608  11.126 -0.2052 -0.1417  0.0402
 6424TIP3    H140763   2.537   2.535  11.066  1.4490 -1.9642  1.6622
 6424TIP3    H240764   2.628   2.654  11.088 -1.9942  1.5308 -1.6225
 6425TIP3   OH240765   2.537   1.548  13.436  0.3907  0.0916  0.1654
 6425TIP3    H140766   2.592   1.622  13.462 -0.0350  0.9181 -1.1840
 6425TIP3    H240767   2.451   1.569  13.472  0.1813  0.4409 -0.5373
 6426TIP3   OH240768   1.852   5.611  14.478 -0.4063  0.1948 -0.1855
 6426TIP3    H140769   1.779   5.640  14.534 -0.6459 -0.1246 -0.3253
 6426TIP3    H240770   1.810   5.584  14.397 -0.1364 -0.0519 -0.2445
 6427TIP3   OH240771   1.231   2.729  14.213 -0.1565  0.7836  0.2675
 6427TIP3    H140772   1.194   2.651  14.171 -1.0383  2.4929 -2.4254
 6427TIP3    H240773   1.318   2.703  14.242 -0.8643 -1.4767  0.5248
 6428TIP3   OH240774   5.808   5.250   5.029  0.5874 -0.1095  0.2285
 6428TIP3    H140775   5.766   5.195   4.963 -0.0185  0.2302  0.3222
 6428TIP3    H240776   5.737   5.306   5.062  0.8033 -0.5307  1.4386
 6429TIP3   OH240777   2.528   0.039   2.591 -0.2969 -0.0627  0.9765
 6429TIP3    H140778   2.492   0.046   2.502  1.4024 -0.2331  0.2405
 6429TIP3    H240779   2.503   0.122   2.633 -0.1366  0.5321 -0.0593
 6430TIP3   OH240780   0.161   0.339  16.667 -0.9527 -0.2468  0.0653
 6430TIP3    H140781   0.143   0.351  16.574  3.2422  2.6466 -0.6384
 6430TIP3    H240782   0.131   0.420  16.708 -0.1033 -0.2448  0.7027
 6431TIP3   OH240783   0.092   5.919  14.478  0.6128  0.1096 -0.2072
 6431TIP3    H140784   0.026   5.850  14.478 -0.6078  1.2268 -0.4629
 6431TIP3    H240785   0.168   5.880  14.519  0.0572 -1.4739 -0.6265
 6432TIP3   OH240786   2.725   4.880  13.543 -0.3857 -0.0047 -0.0725
 6432TIP3    H140787   2.776   4.946  13.590 -0.8108 -0.0811  0.5059
 6432TIP3    H240788   2.639   4.920  13.532 -0.2336  0.0885 -0.9695
 6433TIP3   OH240789   5.132   1.715   1.296  0.1329  0.5102  0.2376
 6433TIP3    H140790   5.218   1.675   1.286 -0.2820 -0.0684 -1.3312
 6433TIP3    H240791   5.073   1.657   1.248 -1.0569  1.1536  0.8781
 6434TIP3   OH240792   1.538   2.871  11.313 -0.0976 -0.5214  0.0737
 6434TIP3    H140793   1.493   2.914  11.241 -1.6169  0.0239  1.2841
 6434TIP3    H240794   1.584   2.797  11.273 -1.4541 -0.6410 -1.3445
 6435TIP3   OH240795   1.962   6.097  11.342 -0.0954  0.3280  0.5075
 6435TIP3    H140796   1.975   6.080  11.249  0.1323  1.1220  0.3806
 6435TIP3    H240797   2.019   6.172  11.361  0.2251 -0.1224  1.3947
 6436TIP3   OH240798   4.366   1.651  12.517  0.3502  0.4541  0.8442
 6436TIP3    H140799   4.307   1.584  12.550  1.9891 -0.6344  1.6927
 6436TIP3    H240800   4.354   1.725  12.577 -1.4328  0.9504 -0.0713
 6437TIP3   OH240801   0.453   1.041  15.661  0.3444  0.2813  0.5902
 6437TIP3    H140802   0.433   1.127  15.697 -0.8419  0.1346  0.3071
 6437TIP3    H240803   0.371   1.011  15.621  0.4907 -1.3582  1.4354
 6438TIP3   OH240804   3.641   1.869  13.649  0.2618  0.4182  0.0251
 6438TIP3    H140805   3.588   1.803  13.605  1.5166 -0.3725 -0.3785
 6438TIP3    H240806   3.623   1.951  13.603 -0.1026  0.0309 -0.5270
 6439TIP3   OH240807   6.445   5.505   3.515 -0.5750 -0.4916 -0.3611
 6439TIP3    H140808   6.424   5.528   3.605 -3.0112 -0.8491 -0.7634
 6439TIP3    H240809   6.452   5.588   3.469  3.2251 -0.1500  0.5428
 6440TIP3   OH240810   1.108   5.694   5.840 -0.1008 -0.4161  0.5514
 6440TIP3    H140811   1.170   5.710   5.770 -0.3123 -1.0456  0.2168
 6440TIP3    H240812   1.062   5.778   5.851 -0.9695 -0.6727 -0.9481
 6441TIP3   OH240813   4.580   0.118   5.190  0.2843 -0.6527 -0.1178
 6441TIP3    H140814   4.635   0.164   5.126  3.2433 -1.7006  1.4303
 6441TIP3    H240815   4.535   0.051   5.140 -0.7458  1.1007 -1.6872
 6442TIP3   OH240816   0.186   1.757  15.670  0.3512  0.3501  0.2503
 6442TIP3    H140817   0.198   1.803  15.753 -3.0826  3.0801 -0.5350
 6442TIP3    H240818   0.131   1.681  15.691  2.5918 -1.1851  0.9123
 6443TIP3   OH240819   5.891   0.951   3.469  0.3417 -0.2612 -0.1907
 6443TIP3    H140820   5.923   0.868   3.433 -0.4414 -0.5617 -0.2102
 6443TIP3    H240821   5.862   0.929   3.557 -1.3999 -0.3931 -0.7470
 6444TIP3   OH240822   6.438   2.716  12.784 -0.6385 -0.1580  0.6591
 6444TIP3    H140823   6.487   2.685  12.860 -0.6380 -2.1025 -0.0725
 6444TIP3    H240824   6.505   2.744  12.722 -0.5107 -0.8641  0.4627
 6445TIP3   OH240825   0.216   6.176  12.160  0.0446  0.1857 -0.1065
 6445TIP3    H140826   0.192   6.265  12.135 -0.0584  0.4355  0.8393
 6445TIP3    H240827   0.312   6.175  12.156  0.0576  0.4173  0.1298
 6446TIP3   OH240828   4.045   4.092  12.804 -0.7717 -0.3619 -0.6012
 6446TIP3    H140829   4.039   4.009  12.758  0.9454 -0.5183 -0.6159
 6446TIP3    H240830   4.002   4.076  12.888  2.0872 -2.2555  0.6460
 6447TIP3   OH240831   1.338   3.807  16.840  0.0357  0.2535  0.2572
 6447TIP3    H140832   1.364   3.724  16.881 -1.1465  0.1906  0.9199
 6447TIP3    H240833   1.277   3.781  16.771  2.4027  0.3144 -2.0052
 6448TIP3   OH240834   6.537   6.658  15.578 -0.2758 -0.1820  0.6982
 6448TIP3    H140835   6.550   6.564  15.567  0.2294 -0.2861  2.0423
 6448TIP3    H240836   6.485   6.684  15.502  1.1925 -1.1854 -0.7108
 6449TIP3   OH240837   6.015   5.834  16.472 -0.4010 -0.4283 -0.0945
 6449TIP3    H140838   5.983   5.783  16.398 -0.0442 -0.0151 -0.5376
 6449TIP3    H240839   6.076   5.897  16.434 -1.7223  1.1337  0.2673
 6450TIP3   OH240840   6.562   4.705   3.442  0.0242  0.4922 -0.0304
 6450TIP3    H140841   6.638   4.673   3.491  0.7118 -1.2204 -2.0756
 6450TIP3    H240842   6.570   4.801   3.446  1.9755  0.3658  0.2761
 6451TIP3   OH240843   6.131   4.101   3.317 -0.3886 -0.2192  0.1333
 6451TIP3    H140844   6.064   4.164   3.292 -0.8605 -0.9466 -0.4778
 6451TIP3    H240845   6.143   4.046   3.239 -1.4288 -2.1413  1.2470
 6452TIP3   OH240846   6.693   3.684   4.122 -0.1396  0.2113 -0.1483
 6452TIP3    H140847   6.713   3.753   4.185 -0.4997  0.9352 -0.8095
 6452TIP3    H240848   6.620   3.718   4.071 -0.1320 -0.5401 -0.6850
 6453TIP3   OH240849   4.699   2.836  12.052 -0.1404  0.0980 -0.5273
 6453TIP3    H140850   4.625   2.881  12.009 -1.0219  0.0099  0.8443
 6453TIP3    H240851   4.673   2.744  12.053 -0.0993  0.0903  0.1227
 6454TIP3   OH240852   1.818   0.595   6.436 -0.0309 -0.0358  0.2599
 6454TIP3    H140853   1.862   0.526   6.387 -1.2696 -0.7337  0.0774
 6454TIP3    H240854   1.859   0.594   6.522  0.5220 -0.4271 -0.0019
 6455TIP3   OH240855   2.499   2.083  15.427  0.8592 -0.5011 -0.0314
 6455TIP3    H140856   2.452   2.163  15.453 -0.7033 -1.6447  0.8101
 6455TIP3    H240857   2.547   2.058  15.506  1.6068 -0.2338 -0.3949
 6456TIP3   OH240858   0.321   0.243   2.006  0.1318  0.2431 -0.2718
 6456TIP3    H140859   0.405   0.201   1.989 -0.2454 -0.9398  0.6379
 6456TIP3    H240860   0.328   0.329   1.965  1.5601 -0.0611 -0.7124
 6457TIP3   OH240861   0.455   6.737  13.516 -0.5933 -0.0092  0.2182
 6457TIP3    H140862   0.512   6.674  13.561 -0.1303  0.9441  0.9908
 6457TIP3    H240863   0.372   6.733  13.564 -0.2509  0.6657  0.8753
 6458TIP3   OH240864   3.468   2.069  11.067 -0.6833 -0.1501  0.0851
 6458TIP3    H140865   3.550   2.038  11.106 -0.1066  1.1379 -0.0625
 6458TIP3    H240866   3.482   2.064  10.973 -1.5492 -1.8743  0.0123
 6459TIP3   OH240867   4.714   2.673  11.538 -0.2290 -0.1071 -0.4379
 6459TIP3    H140868   4.801   2.708  11.522  0.0624 -0.1136  0.9582
 6459TIP3    H240869   4.658   2.718  11.476  0.4436  1.4331  0.0110
 6460TIP3   OH240870   6.738   3.006  11.869 -0.3564 -0.0165  1.0999
 6460TIP3    H140871   6.706   2.926  11.826  0.4939  0.3153 -0.2093
 6460TIP3    H240872   6.717   3.076  11.808 -3.2335  1.1860  3.2370
 6461TIP3   OH240873   6.778   2.396   1.223 -0.5106  0.3820  0.4506
 6461TIP3    H140874   6.707   2.461   1.220 -1.2773 -0.4736 -2.0658
 6461TIP3    H240875   6.848   2.436   1.172  0.0264  0.2843  1.0945
 6462TIP3   OH240876   3.162   4.861   5.985 -0.1924  0.2613  0.6607
 6462TIP3    H140877   3.108   4.887   6.059 -1.6959 -0.6319 -0.0868
 6462TIP3    H240878   3.177   4.768   5.997 -0.2970  0.1421 -0.0600
 6463TIP3   OH240879   4.287   1.956  16.299 -0.8480  0.2375  0.1523
 6463TIP3    H140880   4.283   1.989  16.209 -0.5295 -1.1354 -0.3928
 6463TIP3    H240881   4.197   1.935  16.321 -0.8171 -0.3046 -0.2091
 6464TIP3   OH240882   1.724   3.176   3.681  0.4238  0.4203  0.9927
 6464TIP3    H140883   1.787   3.243   3.653  1.1011  0.7635  3.1506
 6464TIP3    H240884   1.735   3.105   3.618  0.2226  1.9751 -0.9250
 6465TIP3   OH240885   3.087   4.542   0.464 -0.5618  0.1922 -0.0252
 6465TIP3    H140886   3.030   4.572   0.393  1.0060  1.2259 -0.9046
 6465TIP3    H240887   3.117   4.456   0.435 -0.1160  0.5072 -0.5012
 6466TIP3   OH240888   3.960   0.836  14.481  0.3451 -0.0449 -0.0627
 6466TIP3    H140889   3.944   0.797  14.395 -1.1433 -1.4405  0.7967
 6466TIP3    H240890   4.055   0.832  14.492  0.6463  0.9789 -1.9776
 6467TIP3   OH240891   5.342   2.396  12.684 -0.6298  0.6800  0.0579
 6467TIP3    H140892   5.290   2.386  12.764 -0.2149  0.0980  0.2608
 6467TIP3    H240893   5.337   2.490  12.664 -0.1077  0.9738  1.2006
 6468TIP3   OH240894   2.038   1.066  16.863  0.1064 -0.2149  0.6333
 6468TIP3    H140895   1.975   1.133  16.838  0.6147  0.0993  0.1548
 6468TIP3    H240896   2.093   1.055  16.785 -0.8599 -2.2406  0.1932
 6469TIP3   OH240897   4.947   6.650  10.892 -0.3425 -0.1013 -0.6275
 6469TIP3    H140898   4.937   6.739  10.856  0.2028 -0.3920 -1.5404
 6469TIP3    H240899   4.895   6.595  10.834  0.0469 -0.4994 -0.6025
 6470TIP3   OH240900   5.872   5.786  15.171  0.0694 -0.1890 -0.6098
 6470TIP3    H140901   5.781   5.787  15.141  0.1418 -0.0640 -0.8267
 6470TIP3    H240902   5.866   5.778  15.266 -0.2733  3.7051 -0.1469
 6471TIP3   OH240903   3.929   0.791  16.488  0.1300 -0.7678 -0.2167
 6471TIP3    H140904   3.910   0.723  16.423 -0.5555 -0.2185 -0.6079
 6471TIP3    H240905   3.862   0.779  16.555  0.5665 -1.0468  0.1820
 6472TIP3   OH240906   1.140   5.450   1.950  0.1714  0.2780 -0.8752
 6472TIP3    H140907   1.233   5.469   1.951  0.9987 -3.1162 -0.9026
 6472TIP3    H240908   1.109   5.476   2.037  0.7936  2.5579 -1.2734
 6473TIP3   OH240909   5.715   0.861   5.697  0.4032 -0.0869 -0.5780
 6473TIP3    H140910   5.762   0.782   5.669 -1.9139 -1.2028 -1.6131
 6473TIP3    H240911   5.655   0.830   5.764  0.3536  1.0805 -0.0628
 6474TIP3   OH240912   3.912   4.823  13.819  0.7010  0.1532 -0.1741
 6474TIP3    H140913   3.884   4.798  13.731  1.8345 -0.7797 -0.2869
 6474TIP3    H240914   4.007   4.818  13.816  0.7257 -0.9046  1.4007
 6475TIP3   OH240915   1.524   1.739   0.300 -0.1027 -0.2281  0.9389
 6475TIP3    H140916   1.447   1.737   0.244 -0.2861  0.3853  1.1688
 6475TIP3    H240917   1.504   1.676   0.370  0.8961 -2.4449 -0.6452
 6476TIP3   OH240918   0.527   0.149   4.089 -0.4946  0.0288 -0.2461
 6476TIP3    H140919   0.516   0.054   4.102  0.3812 -0.3105 -1.7331
 6476TIP3    H240920   0.556   0.181   4.174 -0.1248 -1.1639  0.1087
 6477TIP3   OH240921   2.886   6.417   2.293  0.0977 -0.2487  0.3964
 6477TIP3    H140922   2.855   6.403   2.204 -0.1510  0.5892  0.3424
 6477TIP3    H240923   2.842   6.497   2.322  2.4723  1.2730  0.1441
 6478TIP3   OH240924   5.455   6.567  10.515 -0.4780  0.2950  0.3130
 6478TIP3    H140925   5.394   6.633  10.483  0.9242  1.6486  0.3051
 6478TIP3    H240926   5.526   6.617  10.555  2.1988 -0.9965 -2.3625
 6479TIP3   OH240927   3.037   4.671  13.373 -0.0061 -0.2480  0.1576
 6479TIP3    H140928   2.975   4.639  13.439  3.0274 -1.1592  2.8362
 6479TIP3    H240929   3.021   4.765  13.368 -0.7691 -0.2724  1.6962
 6480TIP3   OH240930   2.532   0.461   0.379 -0.0620 -0.7436 -0.2273
 6480TIP3    H140931   2.538   0.528   0.311  1.4917  1.1454  1.6166
 6480TIP3    H240932   2.622   0.432   0.392 -0.5642 -2.3389 -0.1222
 6481TIP3   OH240933   3.854   1.541   1.758 -0.0584  0.5724  0.0872
 6481TIP3    H140934   3.874   1.592   1.679 -2.5177  0.6252 -0.6194
 6481TIP3    H240935   3.825   1.606   1.822  0.0552  0.3614  0.3543
 6482TIP3   OH240936   2.954   6.589   0.140  0.6807  0.1184 -0.0972
 6482TIP3    H140937   2.960   6.685   0.143 -0.6441  0.2016  1.7900
 6482TIP3    H240938   3.002   6.560   0.218 -1.3827 -0.5356  0.9896
 6483TIP3   OH240939   0.883   5.886  15.528  0.0912 -0.0515 -0.2915
 6483TIP3    H140940   0.955   5.948  15.517 -0.2773  0.2292 -1.1435
 6483TIP3    H240941   0.813   5.919  15.472  0.2135 -1.7119 -1.4912
 6484TIP3   OH240942   6.180   5.244   1.312 -0.7257 -0.1243 -0.3270
 6484TIP3    H140943   6.170   5.222   1.220  1.3952  2.6472 -1.3691
 6484TIP3    H240944   6.123   5.321   1.325 -1.5339 -0.8865  0.9000
 6485TIP3   OH240945   2.555   1.313  15.601 -0.1292  0.7449 -0.0658
 6485TIP3    H140946   2.547   1.269  15.516 -1.3920  1.2717 -0.2466
 6485TIP3    H240947   2.589   1.400  15.579  2.5614 -0.1368  0.3082
 6486TIP3   OH240948   3.230   5.013  12.190 -0.0449 -0.0958 -0.3417
 6486TIP3    H140949   3.226   4.995  12.284  1.8234 -0.7962 -0.3540
 6486TIP3    H240950   3.196   4.934  12.148  0.8453 -0.5398 -0.2579
 6487TIP3   OH240951   4.649   5.340  12.800 -0.6013 -0.2048 -0.1773
 6487TIP3    H140952   4.738   5.352  12.767  0.0454 -2.3760  0.5844
 6487TIP3    H240953   4.596   5.325  12.722  0.2667 -1.7677 -0.5122
 6488TIP3   OH240954   2.706   5.869   5.341 -0.4069 -0.0571 -0.0878
 6488TIP3    H140955   2.634   5.809   5.361  0.7905 -1.1054  1.2881
 6488TIP3    H240956   2.780   5.812   5.323  0.5756  0.9876  0.5229
 6489TIP3   OH240957   1.302   1.455  15.584  0.2976 -0.2836  0.1149
 6489TIP3    H140958   1.227   1.443  15.642  0.2701  0.2860  0.1973
 6489TIP3    H240959   1.363   1.385  15.610  0.1167 -0.2811  0.5599
 6490TIP3   OH240960   2.105   5.476   5.101 -0.1915  0.1710  0.3319
 6490TIP3    H140961   2.036   5.542   5.089 -0.2442  0.3384  1.4675
 6490TIP3    H240962   2.165   5.492   5.028 -0.9661  0.5125 -0.2458
 6491TIP3   OH240963   6.331   5.078   6.142 -0.4886  0.3335  0.7212
 6491TIP3    H140964   6.304   5.144   6.206 -1.9427 -1.3355  1.9323
 6491TIP3    H240965   6.426   5.089   6.135 -0.5033  1.5605  2.0012
 6492TIP3   OH240966   1.949   3.306  12.940 -0.3794  0.1213  0.0689
 6492TIP3    H140967   2.012   3.378  12.929  0.4748 -0.8291 -1.7046
 6492TIP3    H240968   1.977   3.262  13.021 -0.0389  0.9207  0.3962
 6493TIP3   OH240969   2.150   2.207   1.769 -0.6354  0.0253 -0.2670
 6493TIP3    H140970   2.124   2.119   1.744  0.4775 -0.3020 -0.3471
 6493TIP3    H240971   2.212   2.194   1.841 -1.0463  0.7805  0.2367
 6494TIP3   OH240972   5.987   1.747   5.754 -0.0739 -1.0547 -0.0845
 6494TIP3    H140973   5.891   1.747   5.748 -0.0941  0.8523 -0.2681
 6494TIP3    H240974   6.005   1.699   5.834 -1.1997 -1.2375  0.0853
 6495TIP3   OH240975   3.460   6.111   4.058 -0.4678  0.6437 -0.0704
 6495TIP3    H140976   3.458   6.026   4.102 -1.9006  0.5172 -0.3284
 6495TIP3    H240977   3.413   6.170   4.117  0.7039  1.3265  0.2088
 6496TIP3   OH240978   0.598   4.071  12.451 -0.5603  0.4449  0.0961
 6496TIP3    H140979   0.561   4.129  12.518 -0.9696  1.5872 -1.0671
 6496TIP3    H240980   0.522   4.023  12.416 -0.2968 -0.4297  0.6828
 6497TIP3   OH240981   2.738   2.383  14.648  0.1319 -0.3425  0.2892
 6497TIP3    H140982   2.799   2.321  14.608  0.1993  0.4000 -0.8026
 6497TIP3    H240983   2.714   2.343  14.731  0.1360 -1.8543 -0.4035
 6498TIP3   OH240984   4.394   1.259   4.404  0.3719  0.3496 -0.5974
 6498TIP3    H140985   4.478   1.259   4.450  0.0131 -0.7598  0.0930
 6498TIP3    H240986   4.351   1.178   4.432 -0.8334  0.7840 -1.1203
 6499TIP3   OH240987   6.394   1.835   0.249 -0.2056 -0.3629 -0.5027
 6499TIP3    H140988   6.465   1.892   0.220  1.5970 -2.4075 -0.3394
 6499TIP3    H240989   6.317   1.867   0.202  0.7585  2.0218 -0.5619
 6500TIP3   OH240990   0.763   3.643   2.334  0.1605 -0.3070  0.0331
 6500TIP3    H140991   0.848   3.600   2.326  0.0136 -0.4412 -0.8875
 6500TIP3    H240992   0.705   3.595   2.275 -0.6988 -0.5377  1.0215
 6501TIP3   OH240993   3.052   2.289  15.515  0.3897 -0.4534 -0.4198
 6501TIP3    H140994   3.063   2.377  15.553 -2.3648 -0.0357 -0.4056
 6501TIP3    H240995   3.090   2.296  15.427  0.9713  0.5062 -0.1066
 6502TIP3   OH240996   3.319   1.089   2.409 -0.4447  0.0017 -0.5421
 6502TIP3    H140997   3.392   1.115   2.352 -0.1201 -1.7161 -0.9967
 6502TIP3    H240998   3.245   1.141   2.378  0.2257  0.6564 -1.1065
 6503TIP3   OH240999   5.692   1.808  14.278 -0.3728 -0.0873 -0.6519
 6503TIP3    H141000   5.675   1.750  14.204 -1.6257 -0.7136  0.0964
 6503TIP3    H241001   5.670   1.895  14.246  2.6556  0.2689 -2.1798
 6504TIP3   OH241002   6.463   4.540   0.873  0.1644  0.1532  0.1289
 6504TIP3    H141003   6.529   4.537   0.804  0.2546  0.8043  0.1839
 6504TIP3    H241004   6.413   4.458   0.861  0.5930 -0.0556 -0.2872
 6505TIP3   OH241005   3.907   3.127   1.856 -0.0803  0.1068  0.1234
 6505TIP3    H141006   3.897   3.222   1.845  0.9306  0.0583 -1.7180
 6505TIP3    H241007   3.962   3.118   1.933  0.6577  1.0764 -0.2644
 6506TIP3   OH241008   0.611   2.645   4.856  0.1007 -0.2513 -0.3321
 6506TIP3    H141009   0.519   2.664   4.874  0.5810  0.1413  2.0512
 6506TIP3    H241010   0.647   2.727   4.825 -0.2619 -0.3214 -0.9595
 6507TIP3   OH241011   2.791   1.737  15.625 -0.5006  0.3345 -0.0916
 6507TIP3    H141012   2.801   1.753  15.719 -0.6107 -0.1927  0.0085
 6507TIP3    H241013   2.816   1.820  15.585 -1.1171  0.7890  0.4379
 6508TIP3   OH241014   4.409   3.078  11.667  0.6690 -0.5690  0.0739
 6508TIP3    H141015   4.337   3.140  11.653  1.2781  0.0762 -0.3066
 6508TIP3    H241016   4.379   2.996  11.627  0.8570  0.1994 -1.7409
 6509TIP3   OH241017   0.735   2.814  12.643  0.1973  0.3323  0.3889
 6509TIP3    H141018   0.828   2.792  12.654  0.2122 -0.3302 -0.8937
 6509TIP3    H241019   0.692   2.730  12.631 -0.4726  0.6899  0.2783
 6510TIP3   OH241020   3.438   3.133   3.354 -0.3518  0.1995 -0.2584
 6510TIP3    H141021   3.352   3.130   3.398 -0.2551  1.1584  0.0228
 6510TIP3    H241022   3.464   3.042   3.346 -1.5741 -0.1298 -0.6867
 6511TIP3   OH241023   3.707   0.638  13.031 -0.0878  0.3501  0.0370
 6511TIP3    H141024   3.619   0.602  13.046 -1.2727  2.4899 -1.3066
 6511TIP3    H241025   3.764   0.587  13.090 -1.9828 -1.9722  0.0107
 6512TIP3   OH241026   3.364   2.922  12.823 -0.8468  0.1685 -0.1348
 6512TIP3    H141027   3.317   2.911  12.905  0.8391 -0.8222  0.7523
 6512TIP3    H241028   3.370   2.833  12.786  1.7700 -0.0883  0.6736
 6513TIP3   OH241029   0.257   6.686  16.621 -0.2325  0.1838  0.2360
 6513TIP3    H141030   0.181   6.645  16.662  0.7966 -1.6732  0.4029
 6513TIP3    H241031   0.295   6.742  16.688 -0.2054 -0.6053  0.8907
 6514TIP3   OH241032   4.473   0.337   2.190 -0.1810  0.0634 -0.0806
 6514TIP3    H141033   4.536   0.401   2.224 -1.5308 -0.0652  3.0510
 6514TIP3    H241034   4.527   0.265   2.158  1.3045  0.6884  0.9093
 6515TIP3   OH241035   6.551   2.243  10.909 -0.0593  0.3528 -0.6307
 6515TIP3    H141036   6.626   2.298  10.885 -0.2018  0.3420 -1.1104
 6515TIP3    H241037   6.588   2.175  10.966  0.4698 -0.1927 -1.5958
 6516TIP3   OH241038   1.680   3.018  17.005 -0.3867  0.4686 -0.2376
 6516TIP3    H141039   1.656   2.973  17.086  0.4584 -0.5335 -0.5201
 6516TIP3    H241040   1.603   3.070  16.982 -0.4901  1.0791  1.4072
 6517TIP3   OH241041   4.827   1.560   4.876  0.0642 -0.6374 -0.2938
 6517TIP3    H141042   4.737   1.539   4.850  0.4790 -0.8847 -1.6484
 6517TIP3    H241043   4.879   1.487   4.842  0.9862  0.3464 -1.0723
 6518TIP3   OH241044   5.835   1.531  10.101  0.2761  0.0705 -0.3952
 6518TIP3    H141045   5.902   1.479  10.057 -0.0875  0.5700 -1.5870
 6518TIP3    H241046   5.756   1.517  10.048 -0.0520  1.0954 -0.1928
 6519TIP3   OH241047   2.575   4.689   5.276 -0.4746  0.2174 -0.4976
 6519TIP3    H141048   2.620   4.715   5.357  1.6659  0.2928 -1.6514
 6519TIP3    H241049   2.500   4.637   5.306 -0.7672  1.6961  1.5900
 6520TIP3   OH241050   6.089   2.646   1.469  0.0347 -0.7510  0.6919
 6520TIP3    H141051   6.142   2.708   1.417 -1.6991  1.3660  1.2884
 6520TIP3    H241052   6.017   2.622   1.411  0.0134 -1.2300  0.9156
 6521TIP3   OH241053   5.766   5.946  14.009  0.4816 -0.1595 -0.1076
 6521TIP3    H141054   5.835   5.959  13.944  1.0157 -1.7311  0.1065
 6521TIP3    H241055   5.685   5.951  13.959  0.7391  1.2765 -0.4327
 6522TIP3   OH241056   5.658   6.797   4.945 -0.0245  0.0955 -0.3256
 6522TIP3    H141057   5.661   6.704   4.923 -0.2049 -0.0984  0.4364
 6522TIP3    H241058   5.750   6.822   4.954  0.0143 -0.1120 -0.1287
 6523TIP3   OH241059   0.492   2.697   4.574  1.0895 -0.3492 -0.6380
 6523TIP3    H141060   0.484   2.602   4.588 -0.3068 -0.2339 -0.4824
 6523TIP3    H241061   0.474   2.735   4.660  1.0082  0.0772 -0.8403
 6524TIP3   OH241062   2.570   5.832   4.319  0.5204 -0.2094 -0.1657
 6524TIP3    H141063   2.642   5.881   4.358  0.6011  0.8252 -1.5376
 6524TIP3    H241064   2.601   5.810   4.231 -0.0886 -1.4967 -0.0912
 6525TIP3   OH241065   2.938   4.521  15.547 -0.2387 -0.3573  0.0685
 6525TIP3    H141066   2.867   4.480  15.498 -0.7331 -0.5698  0.9313
 6525TIP3    H241067   2.987   4.448  15.584  0.5974 -0.2186 -0.7314
 6526TIP3   OH241068   2.456   4.693   0.770  0.2411 -0.6747 -0.3114
 6526TIP3    H141069   2.442   4.610   0.814  1.1670 -0.8949 -0.3986
 6526TIP3    H241070   2.551   4.705   0.771  0.0614  0.8896  0.6099
 6527TIP3   OH241071   0.098   0.147   1.814 -0.4849  0.6586 -0.3767
 6527TIP3    H141072   0.072   0.061   1.847 -1.0378  1.2999  0.9285
 6527TIP3    H241073   0.160   0.180   1.879 -0.1459  1.1753 -0.9554
 6528TIP3   OH241074   5.986   0.063   5.865 -0.6633 -0.7045  0.9101
 6528TIP3    H141075   6.028  -0.021   5.880  0.5147  0.0594  2.0940
 6528TIP3    H241076   5.894   0.042   5.854 -0.8613 -1.9246  4.0039
 6529TIP3   OH241077   5.051   2.834  14.713  1.0296 -0.2555  0.2774
 6529TIP3    H141078   5.133   2.877  14.689  0.7253 -0.3274 -0.9754
 6529TIP3    H241079   5.038   2.855  14.805  1.7208  0.9533  0.1149
 6530TIP3   OH241080   2.589   5.922   6.342  0.7371 -0.1026 -0.3074
 6530TIP3    H141081   2.607   5.980   6.417  1.8431 -0.1363 -0.5279
 6530TIP3    H241082   2.650   5.849   6.354 -0.8351 -1.4087  0.1310
 6531TIP3   OH241083   3.395   6.104  12.474  0.1792  0.2465  0.7180
 6531TIP3    H141084   3.347   6.156  12.538  0.8857 -0.3504  1.7629
 6531TIP3    H241085   3.379   6.013  12.499 -1.7541 -0.1392 -1.6100
 6532TIP3   OH241086   4.256   2.522  12.916 -0.8001 -0.9586 -0.0751
 6532TIP3    H141087   4.326   2.571  12.872 -1.3776 -1.2203 -1.3357
 6532TIP3    H241088   4.244   2.444  12.861 -1.1779 -1.5714  0.8611
 6533TIP3   OH241089   1.760   3.115   2.991 -0.0430 -0.2370  0.3189
 6533TIP3    H141090   1.706   3.039   3.016  2.4789 -2.4468 -0.4975
 6533TIP3    H241091   1.792   3.150   3.074 -2.0314  0.6454  0.7640
 6534TIP3   OH241092   3.347   5.366   2.889 -0.1723  0.1039 -0.1896
 6534TIP3    H141093   3.278   5.430   2.908 -0.1443  0.5379 -1.4355
 6534TIP3    H241094   3.423   5.419   2.863 -0.2083 -0.4026 -1.4417
 6535TIP3   OH241095   0.642   5.383   4.091 -0.6878  0.3786  0.2542
 6535TIP3    H141096   0.726   5.409   4.055 -1.2096  0.5249 -0.9186
 6535TIP3    H241097   0.626   5.444   4.163  0.4737 -0.0499  0.9081
 6536TIP3   OH241098   6.491   1.930  14.057  0.3996  0.5827  0.0644
 6536TIP3    H141099   6.487   1.927  13.961 -0.3264  0.1560  0.1032
 6536TIP3    H241100   6.580   1.899  14.077  0.8702  1.5231 -0.4933
 6537TIP3   OH241101   5.508   2.359   2.390  0.2607 -0.7231 -0.2074
 6537TIP3    H141102   5.428   2.343   2.340 -1.7486 -0.2761  2.6540
 6537TIP3    H241103   5.499   2.449   2.421  1.0310 -1.2005  1.5158
 6538TIP3   OH241104   0.447   3.841  13.047  0.3870  0.2022 -0.1890
 6538TIP3    H141105   0.381   3.863  13.113  0.0624 -0.6075 -0.2221
 6538TIP3    H241106   0.516   3.905  13.059 -0.0973  0.6382  0.3164
 6539TIP3   OH241107   3.467   1.000   4.574 -0.3405 -1.0546  0.2917
 6539TIP3    H141108   3.390   1.055   4.586 -0.0132  0.5478 -3.6371
 6539TIP3    H241109   3.541   1.059   4.592 -0.0053 -1.2630 -0.3863
 6540TIP3   OH241110   1.395   0.791   5.264 -0.3386  0.2880 -0.3748
 6540TIP3    H141111   1.348   0.736   5.327 -1.2253  1.9260  0.4556
 6540TIP3    H241112   1.434   0.860   5.318  1.2963  0.1553 -1.3115
 6541TIP3   OH241113   2.197   0.745   5.294  0.3692 -0.4470  0.0390
 6541TIP3    H141114   2.286   0.758   5.260  1.4486 -0.6389  2.5700
 6541TIP3    H241115   2.208   0.683   5.366 -2.0904 -1.7404 -0.5938
 6542TIP3   OH241116   1.594   6.180   5.604 -0.0447  0.1139 -0.4531
 6542TIP3    H141117   1.586   6.274   5.584  0.5676  0.0586 -0.9895
 6542TIP3    H241118   1.550   6.137   5.530 -1.4589 -0.0075  0.4190
 6543TIP3   OH241119   6.712   0.294  11.682 -0.0723  0.2682  0.3161
 6543TIP3    H141120   6.745   0.382  11.702 -1.1004  0.7791 -0.1098
 6543TIP3    H241121   6.761   0.236  11.739 -0.8375  1.3457  2.1558
 6544TIP3   OH241122   5.826   6.574   3.247 -0.1460 -0.3224  0.2650
 6544TIP3    H141123   5.810   6.588   3.154 -0.3494 -0.7122  0.2399
 6544TIP3    H241124   5.795   6.485   3.264 -0.5356 -0.0942  0.7992
 6545TIP3   OH241125   1.938   1.783   4.376  0.4756  0.4058 -0.0221
 6545TIP3    H141126   1.918   1.840   4.301  0.2386 -2.7027 -2.5422
 6545TIP3    H241127   2.026   1.750   4.359 -0.5178 -2.3139 -0.4338
 6546TIP3   OH241128   6.267   6.627   4.752  0.2531  0.5226  0.2165
 6546TIP3    H141129   6.316   6.667   4.680  2.4074 -0.7888  0.8788
 6546TIP3    H241130   6.258   6.535   4.727 -0.7401  0.4652  0.7371
 6547TIP3   OH241131   6.293   3.527  11.510  0.4342 -0.3924  0.0629
 6547TIP3    H141132   6.377   3.563  11.538  1.1512 -1.1502 -1.0225
 6547TIP3    H241133   6.274   3.457  11.574  0.6898 -0.3141  0.2238
 6548TIP3   OH241134   2.792   2.739   4.401  0.6898 -0.4727  0.3812
 6548TIP3    H141135   2.884   2.764   4.410  0.7849 -0.4002 -0.6243
 6548TIP3    H241136   2.749   2.818   4.370  0.4288 -0.7076  0.1367
 6549TIP3   OH241137   3.809   4.088  16.867  0.1691  0.0097 -0.2167
 6549TIP3    H141138   3.817   4.183  16.859 -1.5586  0.1805 -0.2940
 6549TIP3    H241139   3.717   4.074  16.890  0.4024 -1.6474 -0.2011
 6550TIP3   OH241140   4.575   2.431  11.575  0.0004  0.2418 -0.1695
 6550TIP3    H141141   4.578   2.423  11.480 -1.7244  0.9825 -0.3294
 6550TIP3    H241142   4.639   2.498  11.597 -0.0727  0.5426 -0.8740
 6551TIP3   OH241143   2.479   5.637   2.103  0.1946 -0.5911 -0.1056
 6551TIP3    H141144   2.523   5.564   2.059  0.2210 -1.1194  0.7603
 6551TIP3    H241145   2.478   5.611   2.195  0.4117  0.6191  0.2501
 6552TIP3   OH241146   3.042   3.924   0.157  0.7879 -0.6087 -0.6529
 6552TIP3    H141147   3.098   3.878   0.095 -1.4772 -0.9501 -2.5605
 6552TIP3    H241148   2.962   3.872   0.161 -0.1144  0.7932  0.6074
 6553TIP3   OH241149   4.735   5.874  13.167  0.2646 -0.4293  0.4653
 6553TIP3    H141150   4.780   5.875  13.252  0.0532 -0.2864  0.5761
 6553TIP3    H241151   4.805   5.861  13.103  0.2320 -2.7480  0.7901
 6554TIP3   OH241152   3.893   6.006   0.860 -0.4024 -0.1627  0.7688
 6554TIP3    H141153   3.830   5.964   0.919 -1.7072  2.0296  1.0768
 6554TIP3    H241154   3.975   6.008   0.909 -0.2770 -2.1983  0.7465
 6555TIP3   OH241155   6.253   4.499  11.532  0.3068 -0.4639 -0.6321
 6555TIP3    H141156   6.197   4.504  11.610  2.0282  0.1568  0.6328
 6555TIP3    H241157   6.274   4.590  11.511  1.9491 -0.6959 -0.1783
 6556TIP3   OH241158   1.209   0.950  15.278 -0.0278 -0.4858  0.4886
 6556TIP3    H141159   1.127   0.991  15.248  0.7068  0.0848 -0.8541
 6556TIP3    H241160   1.184   0.861  15.303 -0.9441 -0.5912 -0.6892
 6557TIP3   OH241161   3.127   0.629   3.528 -0.0877 -0.7585 -0.3604
 6557TIP3    H141162   3.133   0.723   3.544  2.1589 -1.1958  1.9466
 6557TIP3    H241163   3.032   0.611   3.528 -0.5514  1.4386 -0.6377
 6558TIP3   OH241164   0.748   4.986   5.370 -0.2287 -0.2722 -0.5397
 6558TIP3    H141165   0.719   5.076   5.386  0.9889  0.1793 -0.7610
 6558TIP3    H241166   0.712   4.963   5.285  0.5179  0.4745 -1.0626
 6559TIP3   OH241167   1.106   2.178  14.839  0.2706  0.0118  0.0957
 6559TIP3    H141168   1.187   2.192  14.887  0.0952  0.9173  0.1391
 6559TIP3    H241169   1.037   2.180  14.906  0.1243  0.2343 -0.0586
 6560TIP3   OH241170   5.597   0.195  13.754 -0.1343 -0.0108 -0.4209
 6560TIP3    H141171   5.675   0.158  13.713 -1.0866 -0.1970 -2.1170
 6560TIP3    H241172   5.561   0.124  13.806  1.0048  0.1877  0.7023
 6561TIP3   OH241173   1.135   0.545   3.255  0.0742  0.3628  0.0146
 6561TIP3    H141174   1.168   0.556   3.344 -2.1073  0.5260  0.8594
 6561TIP3    H241175   1.139   0.633   3.217 -0.1122  0.5199  0.3589
 6562TIP3   OH241176   3.356   3.840  12.039  0.2493 -0.2501 -0.3825
 6562TIP3    H141177   3.379   3.870  12.127  1.1914  0.2026 -0.7726
 6562TIP3    H241178   3.298   3.765  12.054  0.6008 -0.3398  0.6194
 6563TIP3   OH241179   5.341   3.581  14.578 -0.2386 -0.1590 -0.2443
 6563TIP3    H141180   5.416   3.635  14.555  0.3332 -1.1014 -0.6617
 6563TIP3    H241181   5.300   3.626  14.652  2.2443 -0.9450  1.7379
 6564TIP3   OH241182   2.807   5.447  13.619 -0.2064  0.3983 -0.3864
 6564TIP3    H141183   2.860   5.496  13.556  1.3015 -1.7966 -0.9322
 6564TIP3    H241184   2.733   5.414  13.569 -0.0563  0.3008 -0.5432
 6565TIP3   OH241185   0.538   6.780   3.567 -0.2783 -0.0147  0.1625
 6565TIP3    H141186   0.527   6.745   3.655  0.3278  0.0871  0.2835
 6565TIP3    H241187   0.587   6.712   3.520 -0.2780  0.0869  0.0163
 6566TIP3   OH241188   5.848   4.447   3.053 -0.3510 -0.0777 -0.1392
 6566TIP3    H141189   5.807   4.479   3.133 -2.2832 -0.8010 -0.7771
 6566TIP3    H241190   5.778   4.401   3.007  1.1502 -1.1807 -1.4315
 6567TIP3   OH241191   4.960   5.351   1.162 -0.1361  0.5016 -0.5239
 6567TIP3    H141192   4.890   5.301   1.121  1.4023 -0.4379 -2.1219
 6567TIP3    H241193   5.023   5.285   1.191 -0.1250  1.2905  1.3944
 6568TIP3   OH241194   1.481   0.990  14.186  0.0670 -0.2598 -0.3922
 6568TIP3    H141195   1.463   1.046  14.262  1.7137  1.3793 -1.1399
 6568TIP3    H241196   1.572   0.964  14.197 -0.1958 -1.4351 -0.9339
 6569TIP3   OH241197   0.524   0.782  12.581  0.1120  0.4764  0.8601
 6569TIP3    H141198   0.576   0.791  12.501  1.2291 -1.5744  1.2936
 6569TIP3    H241199   0.570   0.835  12.646 -0.6522  1.9346  0.2585
 6570TIP3   OH241200   3.447   5.257   1.903  0.3728 -0.1295  0.4110
 6570TIP3    H141201   3.541   5.267   1.912 -0.0054  4.5369  2.0687
 6570TIP3    H241202   3.415   5.242   1.992 -0.5334 -1.3905 -0.0880
 6571TIP3   OH241203   5.753   4.803  11.239 -0.6467 -0.0562 -0.2098
 6571TIP3    H141204   5.823   4.762  11.189  0.2722 -0.2484  1.1914
 6571TIP3    H241205   5.757   4.762  11.325 -2.4775 -0.0575 -0.0787
 6572TIP3   OH241206   2.109   1.747  10.560 -0.8621 -0.1335  0.2061
 6572TIP3    H141207   2.082   1.711  10.476 -0.5877  1.7452 -0.7406
 6572TIP3    H241208   2.179   1.689  10.589 -0.3587 -0.3339 -1.2946
 6573TIP3   OH241209   2.070   5.364  11.786  0.6869 -0.6900 -0.3267
 6573TIP3    H141210   2.057   5.443  11.734  0.7250 -0.7533 -0.4317
 6573TIP3    H241211   2.047   5.292  11.727  0.0982 -0.7285 -0.0542
 6574TIP3   OH241212   3.032   2.937   4.339  0.0474 -0.0422 -0.3313
 6574TIP3    H141213   3.118   2.978   4.334  0.3981 -0.4950  1.2571
 6574TIP3    H241214   2.982   2.975   4.267  1.1792  1.1677 -0.5023
 6575TIP3   OH241215   1.168   1.824  15.221 -0.1838  0.1568 -0.4549
 6575TIP3    H141216   1.240   1.887  15.220 -0.0012 -0.0496 -1.4159
 6575TIP3    H241217   1.199   1.751  15.167 -0.3204 -0.8413  0.7676
 6576TIP3   OH241218   6.535   5.952  16.608  0.3239 -0.1865 -0.6590
 6576TIP3    H141219   6.445   5.986  16.607  0.3013 -0.2478 -0.7134
 6576TIP3    H241220   6.583   6.011  16.551  0.3018 -0.1967 -0.6888
 6577TIP3   OH241221   0.692   0.728   1.673 -0.2005  0.3525 -0.2801
 6577TIP3    H141222   0.787   0.723   1.685 -0.4707 -0.0005  2.3445
 6577TIP3    H241223   0.668   0.816   1.702 -0.6255  0.7221 -1.6768
 6578TIP3   OH241224   6.430   4.119   5.633 -0.3469  0.0052  0.2547
 6578TIP3    H141225   6.374   4.175   5.687  1.6621  1.0778  1.3097
 6578TIP3    H241226   6.474   4.180   5.574  0.4197 -0.7095  0.0832
 6579TIP3   OH241227   2.511   3.197  15.135  0.2014  0.8450 -0.4788
 6579TIP3    H141228   2.588   3.192  15.077 -0.1607  1.1183 -0.9874
 6579TIP3    H241229   2.437   3.180  15.077 -0.0157 -1.0876  0.3089
 6580TIP3   OH241230   4.250   3.237   1.166 -0.1578 -0.1238  0.3533
 6580TIP3    H141231   4.227   3.289   1.089  1.2881 -0.0273 -0.0568
 6580TIP3    H241232   4.169   3.231   1.217 -1.0880 -0.0215 -1.0661
 6581TIP3   OH241233   6.495   5.619   4.863  0.0069 -0.1922  0.3797
 6581TIP3    H141234   6.460   5.558   4.928 -0.1741  0.2726  0.7298
 6581TIP3    H241235   6.479   5.577   4.779 -2.7764  0.6344  0.3920
 6582TIP3   OH241236   4.676   1.396   3.918  0.2997  0.5143 -0.7181
 6582TIP3    H141237   4.605   1.356   3.969 -0.2263  1.1723 -0.9081
 6582TIP3    H241238   4.753   1.343   3.937 -0.0294  0.3806  0.2697
 6583TIP3   OH241239   3.006   6.853   1.625 -0.2016 -0.2469 -0.1500
 6583TIP3    H141240   2.957   6.831   1.704 -1.8868 -1.2363 -1.4089
 6583TIP3    H241241   3.041   6.769   1.593 -0.8844 -0.1174 -1.2972
 6584TIP3   OH241242   2.123   0.470  11.945  0.5781 -0.2133  0.0358
 6584TIP3    H141243   2.196   0.445  12.003  1.7063  0.3678 -1.0701
 6584TIP3    H241244   2.158   0.543  11.894 -0.7848  0.0384 -0.5651
 6585TIP3   OH241245   1.416   0.171  12.677  0.3027 -0.0613  0.1347
 6585TIP3    H141246   1.481   0.141  12.613 -0.5816  0.4587 -1.0568
 6585TIP3    H241247   1.346   0.106  12.672  0.5146 -0.3784  1.0869
 6586TIP3   OH241248   0.945   0.117   3.056  0.0736  0.2003  0.4400
 6586TIP3    H141249   0.856   0.089   3.034 -0.4212  1.7036  0.4296
 6586TIP3    H241250   0.984   0.141   2.972 -0.0976  1.1634  0.6325
 6587TIP3   OH241251   4.385   2.667   3.594 -0.3333 -0.3376  0.1584
 6587TIP3    H141252   4.429   2.631   3.671  2.0079  0.5594 -0.6631
 6587TIP3    H241253   4.347   2.591   3.549 -0.0771 -1.0935  1.1929
 6588TIP3   OH241254   1.835   0.059  12.599  0.6616  0.4923  0.9621
 6588TIP3    H141255   1.835  -0.036  12.611  1.2674  0.1528 -1.3716
 6588TIP3    H241256   1.748   0.079  12.564  1.6593  0.2588 -1.8422
 6589TIP3   OH241257   3.937   4.874  12.442  0.0472 -0.6121  0.7369
 6589TIP3    H141258   3.864   4.920  12.400  0.8720  0.4128  0.3986
 6589TIP3    H241259   3.899   4.839  12.523 -1.0566 -0.9319  0.1175
 6590TIP3   OH241260   4.586   3.184   4.557 -0.2575 -0.3057  1.0138
 6590TIP3    H141261   4.661   3.152   4.506 -1.2581 -0.4529 -0.4403
 6590TIP3    H241262   4.564   3.267   4.516  0.3511  0.7595  2.7508
 6591TIP3   OH241263   4.360   4.021  11.747 -0.0485  0.3044 -0.0518
 6591TIP3    H141264   4.264   4.025  11.741 -0.2877 -1.6813  1.6081
 6591TIP3    H241265   4.389   4.109  11.722 -2.3130  1.0666 -0.1994
 6592TIP3   OH241266   3.052   3.156  10.882 -0.0725  0.0738  0.1932
 6592TIP3    H141267   2.994   3.232  10.888 -0.4045 -0.1384 -0.2867
 6592TIP3    H241268   3.138   3.193  10.859 -0.5338  0.2005 -1.4554
 6593TIP3   OH241269   4.706   0.446   2.908 -0.6210 -0.1132  0.2326
 6593TIP3    H141270   4.711   0.352   2.889 -3.3409 -0.0406 -1.2942
 6593TIP3    H241271   4.647   0.453   2.983 -1.5233  0.3999 -0.4998
 6594TIP3   OH241272   4.061   0.821   6.108  0.1825 -0.2959 -0.2762
 6594TIP3    H141273   3.969   0.843   6.095  0.0303  0.3885  1.5489
 6594TIP3    H241274   4.068   0.804   6.202  2.0903  0.6181 -0.2001
 6595TIP3   OH241275   4.745   1.798   5.302  0.0134 -0.0037  0.7354
 6595TIP3    H141276   4.779   1.755   5.224 -2.2892  0.4667 -0.6191
 6595TIP3    H241277   4.709   1.727   5.355  0.9372 -0.2446  1.0662
 6596TIP3   OH241278   2.283   1.058  14.168 -0.4861 -0.1425 -0.0578
 6596TIP3    H141279   2.317   1.111  14.239 -0.6491  1.4806 -1.1393
 6596TIP3    H241280   2.231   1.118  14.115 -2.1905 -1.7845 -0.3597
 6597TIP3   OH241281   5.890   2.339   6.109  0.5204  0.8829 -0.1880
 6597TIP3    H141282   5.803   2.362   6.075  1.2158 -1.6184 -4.3612
 6597TIP3    H241283   5.882   2.249   6.138  2.0661 -0.2332 -2.8589
 6598TIP3   OH241284   4.075   3.032   5.448  0.6588  0.2055  0.4298
 6598TIP3    H141285   4.025   3.082   5.514  0.8430  1.5427 -0.3955
 6598TIP3    H241286   4.129   2.973   5.499  0.4454  0.8702  1.4731
 6599TIP3   OH241287   3.656   4.967   5.348 -0.1012 -0.4522  0.2622
 6599TIP3    H141288   3.565   4.985   5.372 -0.3294  0.2178 -1.0267
 6599TIP3    H241289   3.674   4.881   5.388 -1.3823 -0.7263  0.3011
 6600TIP3   OH241290   4.817   0.970  15.859  0.2248  0.2827 -0.5388
 6600TIP3    H141291   4.907   0.958  15.888  0.0976 -0.0821 -0.2861
 6600TIP3    H241292   4.787   0.882  15.837 -0.9598 -0.0580  2.0518
 6601TIP3   OH241293   1.987   3.269  16.402  0.1909 -0.1610 -0.6285
 6601TIP3    H141294   2.079   3.254  16.383 -0.1404 -0.8300 -1.7930
 6601TIP3    H241295   1.961   3.339  16.343  0.4997  1.7479  1.3507
 6602TIP3   OH241296   0.525   6.052   5.162  0.0754  0.0154  0.2609
 6602TIP3    H141297   0.618   6.035   5.143  0.0090 -1.2628  0.9960
 6602TIP3    H241298   0.519   6.148   5.163  1.0118  0.1390 -1.5135
 6603TIP3   OH241299   5.140   3.860   4.838 -0.6622  0.3747 -0.0353
 6603TIP3    H141300   5.071   3.918   4.807  0.0740  0.0795 -2.4264
 6603TIP3    H241301   5.152   3.796   4.767  0.8442 -0.6611  1.0797
 6604TIP3   OH241302   4.988   2.585  16.963 -0.5439  0.0119 -0.0359
 6604TIP3    H141303   4.937   2.551  17.037 -1.0173 -0.5622 -0.6141
 6604TIP3    H241304   4.992   2.679  16.978  2.0302 -0.3597  2.3810
 6605TIP3   OH241305   5.067   5.567   1.848  0.3250  0.9185 -0.0785
 6605TIP3    H141306   5.155   5.577   1.812 -0.2450  2.9957 -1.0480
 6605TIP3    H241307   5.041   5.656   1.874 -2.2661  0.7946 -1.8423
 6606TIP3   OH241308   3.826   6.751   6.385  0.3873 -0.3021  0.2038
 6606TIP3    H141309   3.907   6.801   6.379  0.1916  0.3009  2.0196
 6606TIP3    H241310   3.768   6.791   6.320  1.1843 -0.0940 -0.4016
 6607TIP3   OH241311   1.674   4.342  14.527 -0.3806  0.6259  0.3125
 6607TIP3    H141312   1.599   4.286  14.511 -0.9711  1.0920  1.3216
 6607TIP3    H241313   1.687   4.390  14.445 -0.3969 -0.3440 -0.2729
 6608TIP3   OH241314   6.433   1.724  15.977  0.3023  0.3479  0.1255
 6608TIP3    H141315   6.461   1.807  15.938 -1.9258  1.0138 -0.2449
 6608TIP3    H241316   6.442   1.660  15.906  2.9833 -0.0376  0.6963
 6609TIP3   OH241317   5.915   4.666  14.373 -0.0381 -0.2638 -0.2693
 6609TIP3    H141318   6.010   4.678  14.378  0.1282 -1.6795  0.4934
 6609TIP3    H241319   5.902   4.612  14.295  0.0066 -1.7872  0.7359
 6610TIP3   OH241320   5.380   3.302  12.984 -0.2166  0.0200 -0.6610
 6610TIP3    H141321   5.398   3.385  12.939  0.3420  0.8676  1.0423
 6610TIP3    H241322   5.285   3.298  12.990 -0.3265 -0.3093 -2.2250
 6611TIP3   OH241323   0.791   0.193  14.399  0.1704  0.5309  0.4837
 6611TIP3    H141324   0.833   0.198  14.313 -0.3043  0.8249  0.2655
 6611TIP3    H241325   0.851   0.240  14.457  1.9871 -2.1534  0.9385
 6612TIP3   OH241326   4.455   6.638   5.578  0.8299  0.0315  0.3269
 6612TIP3    H141327   4.403   6.650   5.498  2.0099  0.8436 -0.3579
 6612TIP3    H241328   4.391   6.621   5.646 -0.2143 -0.7143 -0.7983
 6613TIP3   OH241329   6.192   6.583  11.177 -0.3578 -0.1122  0.2398
 6613TIP3    H141330   6.255   6.563  11.108 -2.1700  0.2682 -1.6306
 6613TIP3    H241331   6.234   6.554  11.258  1.6230 -1.0991 -1.0800
 6614TIP3   OH241332   2.512   6.127  11.345 -0.3903 -0.3324 -0.4884
 6614TIP3    H141333   2.501   6.189  11.416 -0.3890  0.4672 -1.1726
 6614TIP3    H241334   2.431   6.076  11.345 -0.6037  0.0059 -0.2464
 6615TIP3   OH241335   5.406   5.362  16.892  0.7124 -0.1659 -0.0979
 6615TIP3    H141336   5.429   5.448  16.927  0.1149  0.1755 -0.5185
 6615TIP3    H241337   5.475   5.343  16.828  0.2719  0.5048 -0.7990
 6616TIP3   OH241338   3.091   5.392  12.970 -0.5135 -0.5805 -0.3160
 6616TIP3    H141339   3.060   5.313  13.015  0.4999 -0.5774  0.4190
 6616TIP3    H241340   3.012   5.430  12.931 -1.1456 -1.4938  0.0460
 6617TIP3   OH241341   6.367   1.727  14.764 -0.3321 -0.6956  0.2741
 6617TIP3    H141342   6.334   1.691  14.846 -0.3811  0.1425  0.6331
 6617TIP3    H241343   6.429   1.661  14.731  1.2419 -0.1660  2.0111
 6618TIP3   OH241344   2.667   0.885   3.664 -0.2804  0.2687  0.0563
 6618TIP3    H141345   2.758   0.868   3.640 -0.7166 -0.4663 -1.1500
 6618TIP3    H241346   2.664   0.869   3.759  0.9223  0.7230  0.1913
 6619TIP3   OH241347   6.235   0.479  11.238  0.0943 -0.1659 -0.2286
 6619TIP3    H141348   6.218   0.535  11.314 -1.6851  0.8147 -1.2742
 6619TIP3    H241349   6.158   0.423  11.232 -0.4560  0.7199 -2.0611
 6620TIP3   OH241350   0.755   6.348  16.942 -0.2369 -0.2913 -0.8006
 6620TIP3    H141351   0.703   6.268  16.953 -2.3193  0.7940 -2.2007
 6620TIP3    H241352   0.692   6.419  16.950  1.3429  1.1871 -0.9701
 6621TIP3   OH241353   3.111   0.809   1.658  0.1688  0.4312 -0.0508
 6621TIP3    H141354   3.097   0.724   1.700  1.8909  0.3127  0.3505
 6621TIP3    H241355   3.112   0.789   1.564  0.8975 -0.0721  0.0492
 6622TIP3   OH241356   2.772   5.428  12.150  0.0015 -0.2770 -0.1534
 6622TIP3    H141357   2.847   5.478  12.120  1.0328 -0.5470  1.7720
 6622TIP3    H241358   2.792   5.337  12.128  1.2670 -0.6179  2.1195
 6623TIP3   OH241359   2.928   3.069  14.641 -0.1044 -0.3823 -0.2935
 6623TIP3    H141360   2.967   3.033  14.721  0.9061 -0.0740 -0.6349
 6623TIP3    H241361   2.948   3.005  14.573 -0.2024 -0.2221 -0.4735
 6624TIP3   OH241362   3.499   3.357  13.990 -0.2447  0.0680  0.2753
 6624TIP3    H141363   3.460   3.345  13.903  0.9423  1.5336 -0.4949
 6624TIP3    H241364   3.546   3.440  13.985  2.9373 -1.5041  1.1507
 6625TIP3   OH241365   1.881   1.564  12.775 -0.0813  0.1507  0.2043
 6625TIP3    H141366   1.886   1.620  12.853 -2.2705  0.9841 -0.1644
 6625TIP3    H241367   1.870   1.476  12.810 -1.8030  0.6006  0.9231
 6626TIP3   OH241368   1.907   1.329   4.570 -0.2496  0.3279 -0.0006
 6626TIP3    H141369   1.817   1.363   4.561 -1.2352 -2.4284 -1.8413
 6626TIP3    H241370   1.957   1.377   4.503 -0.8657  0.3488 -0.4562
 6627TIP3   OH241371   0.523   1.881   4.658  0.3692  0.1096 -0.3471
 6627TIP3    H141372   0.529   1.802   4.604  0.8395 -1.6295  2.0867
 6627TIP3    H241373   0.446   1.868   4.713  0.3687  1.4307  0.0200
 6628TIP3   OH241374   4.809   6.836  12.348 -0.4291 -0.1302  0.5059
 6628TIP3    H141375   4.730   6.889  12.350 -0.8096 -0.6631  0.0459
 6628TIP3    H241376   4.835   6.827  12.439 -0.1361  1.1567  0.5720
 6629TIP3   OH241377   0.928   4.118  12.987  0.1972  0.2848  0.3809
 6629TIP3    H141378   0.980   4.170  12.926  0.0351 -0.3810 -0.3444
 6629TIP3    H241379   0.839   4.150  12.977  0.2805  0.6507  0.7875
 6630TIP3   OH241380   4.066   3.656  16.481 -0.2068 -0.0535  0.2100
 6630TIP3    H141381   4.015   3.723  16.435 -0.7916  0.0325  0.9820
 6630TIP3    H241382   4.154   3.666  16.445 -0.9768 -1.1227 -2.1588
 6631TIP3   OH241383   2.081   4.212   1.702 -0.3243  0.0683  0.1201
 6631TIP3    H141384   2.004   4.260   1.672 -0.3535  0.0602  0.1803
 6631TIP3    H241385   2.046   4.136   1.749 -0.3076  0.7514  1.2788
 6632TIP3   OH241386   6.679   3.284   3.012  0.2127 -0.0934  0.0822
 6632TIP3    H141387   6.644   3.305   3.099  1.8434 -1.2689  1.0774
 6632TIP3    H241388   6.770   3.259   3.028  0.7141  0.1805 -2.0545
 6633TIP3   OH241389   2.916   5.376  14.530  0.0618 -0.0236  0.2338
 6633TIP3    H141390   2.869   5.456  14.509 -2.5668 -1.2385  1.0656
 6633TIP3    H241391   2.929   5.332  14.446  1.3895  1.1187 -0.2078
 6634TIP3   OH241392   5.737   3.767   1.408  0.0489 -0.2769  0.2927
 6634TIP3    H141393   5.787   3.712   1.348 -1.2387 -1.0153 -0.1412
 6634TIP3    H241394   5.803   3.806   1.465  1.1118 -1.2268 -0.2433
 6635TIP3   OH241395   2.271   2.565  15.797  0.4828 -0.1760 -0.4983
 6635TIP3    H141396   2.240   2.522  15.877 -0.3651 -0.0211 -0.7248
 6635TIP3    H241397   2.361   2.535  15.787  0.5949 -0.2310  0.4922
 6636TIP3   OH241398   0.001   6.676   4.467  0.0079 -0.6604  0.0808
 6636TIP3    H141399  -0.044   6.745   4.418 -2.7441 -1.6037  1.0668
 6636TIP3    H241400   0.005   6.709   4.557 -0.0978 -1.2200  0.2952
 6637TIP3   OH241401   3.891   5.981  13.587 -0.6361  0.4301  0.6891
 6637TIP3    H141402   3.925   5.899  13.622 -0.1352  0.2314 -0.2235
 6637TIP3    H241403   3.960   6.012  13.529 -1.7327  0.3379 -0.7244
 6638TIP3   OH241404   5.477   1.432  15.139  0.3445 -0.2358  0.5479
 6638TIP3    H141405   5.534   1.501  15.105 -2.4387  1.8154 -0.3804
 6638TIP3    H241406   5.480   1.443  15.234  0.0966  1.1311  0.4261
 6639TIP3   OH241407   0.496   0.679   0.499 -0.1721  0.0127 -1.0376
 6639TIP3    H141408   0.460   0.754   0.450  0.2179 -0.6261 -2.3495
 6639TIP3    H241409   0.586   0.671   0.467  0.4038  0.1190  0.4777
 6640TIP3   OH241410   5.697   3.564   3.375 -0.2614 -0.1095 -0.6428
 6640TIP3    H141411   5.623   3.551   3.434  0.9554  1.2274  1.3294
 6640TIP3    H241412   5.757   3.492   3.394  0.6142  0.8999  0.6448
 6641TIP3   OH241413   5.731   6.516  10.946  0.4003 -0.3597  0.0074
 6641TIP3    H141414   5.664   6.576  10.914  1.4440  0.5529 -0.5238
 6641TIP3    H241415   5.701   6.491  11.034 -1.2149 -0.9153 -0.6549
 6642TIP3   OH241416   0.142   3.547   5.062  0.7565  0.5178  0.6140
 6642TIP3    H141417   0.171   3.636   5.042  0.5085  0.9173  1.9142
 6642TIP3    H241418   0.051   3.557   5.090  0.3505 -0.3080 -0.3435
 6643TIP3   OH241419   6.165   0.057  16.900  0.1920  0.1431  0.7510
 6643TIP3    H141420   6.238   0.019  16.949  0.2634  2.7072  2.8461
 6643TIP3    H241421   6.183   0.151  16.901 -1.7768  0.5917 -1.0639
 6644TIP3   OH241422   5.425   6.261   2.577 -0.4712 -0.6099 -0.0009
 6644TIP3    H141423   5.400   6.295   2.663 -1.0091  2.2607 -1.1652
 6644TIP3    H241424   5.341   6.242   2.534 -0.5060  2.0732 -1.3192
 6645TIP3   OH241425   2.019   6.272  14.315  0.0440  0.1055 -0.4437
 6645TIP3    H141426   2.025   6.348  14.257  0.2319  2.1370  2.0643
 6645TIP3    H241427   1.933   6.235  14.298  0.2871  0.3017 -2.3254
 6646TIP3   OH241428   0.731   4.937   0.498  0.1632 -0.4249 -0.3306
 6646TIP3    H141429   0.719   4.858   0.552 -1.0550  0.8991  1.4365
 6646TIP3    H241430   0.759   5.004   0.560  0.3376  0.7550 -1.6518
 6647TIP3   OH241431   3.252   4.605   3.381 -0.5544  0.2617 -0.0743
 6647TIP3    H141432   3.220   4.612   3.291 -0.6368 -0.0060 -0.0656
 6647TIP3    H241433   3.208   4.676   3.427  0.7842  1.4952 -0.6168
 6648TIP3   OH241434   5.077   6.208   5.011 -0.0178  0.2932  0.3533
 6648TIP3    H141435   5.080   6.125   4.963 -2.4084  1.6217 -2.5019
 6648TIP3    H241436   5.158   6.253   4.988 -0.0796 -0.0602 -0.5861
 6649TIP3   OH241437   2.009   5.979  15.113 -0.9796 -0.0951 -0.3542
 6649TIP3    H141438   1.994   5.886  15.132 -0.4487 -0.6943 -2.6310
 6649TIP3    H241439   2.096   5.996  15.148 -1.0257 -0.4728 -0.0366
 6650TIP3   OH241440   0.786   6.132   5.085  0.3716 -0.3433 -0.0411
 6650TIP3    H141441   0.847   6.092   5.022 -0.1239  0.5941 -1.1431
 6650TIP3    H241442   0.843   6.177   5.147  0.8873 -1.5886  0.4390
 6651TIP3   OH241443   2.465   2.248   0.190 -0.1497  0.1188  0.4010
 6651TIP3    H141444   2.556   2.259   0.160  0.0183 -1.1463  0.3791
 6651TIP3    H241445   2.418   2.216   0.113 -0.4927  0.2237  0.5662
 6652TIP3   OH241446   0.153   1.228   4.487 -0.0779  0.4543  0.2036
 6652TIP3    H141447   0.178   1.206   4.397  2.3627  0.0151  0.9182
 6652TIP3    H241448   0.068   1.187   4.499  1.0982 -2.5082 -0.8205
 6653TIP3   OH241449   1.850   1.210   2.805  0.0814  1.0866  0.5018
 6653TIP3    H141450   1.939   1.186   2.833 -0.4087  0.2886  1.4593
 6653TIP3    H241451   1.805   1.126   2.794 -0.1636  1.4272 -1.4063
 6654TIP3   OH241452   4.960   5.924  11.271 -0.8964  0.2895  0.0033
 6654TIP3    H141453   4.937   6.015  11.289 -1.7676  0.5559 -2.0935
 6654TIP3    H241454   4.937   5.912  11.178 -0.4942 -1.9668  0.1432
 6655TIP3   OH241455   4.839   4.576   0.857  0.4477 -0.1846  0.4738
 6655TIP3    H141456   4.744   4.568   0.844  0.1850  1.2511  1.3007
 6655TIP3    H241457   4.868   4.487   0.878 -0.8109 -0.5496  0.7495
 6656TIP3   OH241458   1.160   0.114  16.660 -0.2972 -0.2370  0.0090
 6656TIP3    H141459   1.165   0.033  16.610  0.3186 -0.4009  0.3207
 6656TIP3    H241460   1.068   0.140  16.657 -0.0393  0.6633 -2.6333
 6657TIP3   OH241461   5.152   4.567  15.495  0.3514  0.4916 -0.0581
 6657TIP3    H141462   5.233   4.613  15.519  0.0515  1.5124 -0.9178
 6657TIP3    H241463   5.179   4.505  15.427  0.7465 -0.6230  1.0654
 6658TIP3   OH241464   3.984   5.732   3.732 -0.1383 -0.5717  0.1537
 6658TIP3    H141465   4.017   5.716   3.820 -0.9737  1.2231  0.8457
 6658TIP3    H241466   3.912   5.670   3.721  0.3180 -1.1752  0.5004
 6659TIP3   OH241467   5.885   0.645  15.936  0.0195 -0.1140 -0.3067
 6659TIP3    H141468   5.887   0.611  15.846 -1.5198  0.4027 -0.5683
 6659TIP3    H241469   5.870   0.567  15.990 -0.5224 -0.2512 -0.6385
 6660TIP3   OH241470   4.861   3.928   3.631  0.6103 -1.2724  0.1974
 6660TIP3    H141471   4.941   3.944   3.582  0.3131 -1.7848 -0.4705
 6660TIP3    H241472   4.797   3.900   3.565  0.5071 -3.0580  0.9921
 6661TIP3   OH241473   3.695   5.968   5.827  0.1210 -0.1076 -0.2475
 6661TIP3    H141474   3.710   5.978   5.734 -0.4452 -2.8263 -0.7303
 6661TIP3    H241475   3.764   5.908   5.856 -1.5441 -1.8493  0.3392
 6662TIP3   OH241476   2.490   1.010  16.619 -0.3148 -0.3190  0.5428
 6662TIP3    H141477   2.490   0.961  16.701  0.9305  0.5254  1.0778
 6662TIP3    H241478   2.533   1.093  16.641  2.3234 -1.0229 -1.4790
 6663TIP3   OH241479   4.280   0.253   1.721  0.4272 -0.8523 -0.3064
 6663TIP3    H141480   4.205   0.306   1.693  1.2785  0.6502  0.1260
 6663TIP3    H241481   4.328   0.310   1.780  2.1428 -1.6237 -0.9032
 6664TIP3   OH241482   2.323   6.260  12.783 -0.0395 -0.6760  0.7220
 6664TIP3    H141483   2.359   6.319  12.717  1.2214 -1.5260  0.6111
 6664TIP3    H241484   2.240   6.231  12.746 -0.3529  0.4682  0.4714
 6665TIP3   OH241485   0.186   0.208  13.620  0.4281  0.4351  0.5223
 6665TIP3    H141486   0.189   0.258  13.702 -1.0855  0.0591  0.8432
 6665TIP3    H241487   0.146   0.268  13.557 -0.4554 -0.0178  0.6443
 6666TIP3   OH241488   1.536   4.451  16.099 -0.3704 -0.0490  0.3408
 6666TIP3    H141489   1.621   4.456  16.055  0.1999  2.2632  1.5306
 6666TIP3    H241490   1.474   4.486  16.036 -0.0838  0.2186  0.2031
 6667TIP3   OH241491   2.284   5.608   3.144 -0.1802 -0.0342  0.2362
 6667TIP3    H141492   2.377   5.588   3.138 -0.4555 -1.5075  0.3212
 6667TIP3    H241493   2.247   5.576   3.061 -0.5557  0.8649  0.0501
 6668TIP3   OH241494   3.620   1.188  13.726  0.1232 -0.1816  0.2069
 6668TIP3    H141495   3.545   1.195  13.667  0.0267 -1.6085  0.1142
 6668TIP3    H241496   3.628   1.274  13.766  0.1270  0.8074 -1.7930
 6669TIP3   OH241497   5.842   4.299  16.787 -0.4395 -0.5110 -0.0516
 6669TIP3    H141498   5.897   4.355  16.842 -0.7465 -1.2476  1.0370
 6669TIP3    H241499   5.897   4.279  16.712 -0.1537  0.8523 -0.2352
 6670TIP3   OH241500   0.260   2.684  12.010 -0.2832  0.0501 -0.3604
 6670TIP3    H141501   0.213   2.763  11.985 -2.1496 -1.2209 -1.1010
 6670TIP3    H241502   0.217   2.614  11.962  0.6769 -1.5691  1.0100
 6671TIP3   OH241503   5.115   0.059   5.579 -0.1952  0.7504 -0.3133
 6671TIP3    H141504   5.130   0.123   5.510  1.0879 -1.3702 -2.1395
 6671TIP3    H241505   5.173   0.086   5.650  0.1206  1.7439 -0.9234
 6672TIP3   OH241506   5.434   2.612  15.667 -0.1580 -0.3672 -0.4068
 6672TIP3    H141507   5.511   2.570  15.705 -0.0577  0.0854 -0.0981
 6672TIP3    H241508   5.454   2.706  15.668 -0.8704 -0.2080  0.0556
 6673TIP3   OH241509   1.270   2.866  17.004 -0.2666 -0.0023 -0.1878
 6673TIP3    H141510   1.213   2.790  17.015  0.4928 -0.5626 -0.0214
 6673TIP3    H241511   1.294   2.891  17.093  0.8627 -0.6531 -0.2854
 6674TIP3   OH241512   2.711   6.739   4.590 -0.4776 -0.2855 -0.0137
 6674TIP3    H141513   2.788   6.789   4.561 -0.3240 -1.9181 -2.7964
 6674TIP3    H241514   2.717   6.739   4.686  0.8603  2.7939  0.0162
 6675TIP3   OH241515   0.296   2.250   4.733 -0.0053 -0.2253  0.0836
 6675TIP3    H141516   0.340   2.193   4.796  0.3856  1.9673  1.9230
 6675TIP3    H241517   0.232   2.299   4.785 -0.7917  0.5430 -1.5397
 6676TIP3   OH241518   6.574   3.240   6.774  0.1946 -0.0918 -0.4448
 6676TIP3    H141519   6.532   3.302   6.713  0.1947  1.0308  0.6426
 6676TIP3    H241520   6.524   3.159   6.764 -2.3896  1.2042  0.8501
 6677TIP3   OH241521   5.270   3.212   4.022  0.4712  0.4958 -0.0670
 6677TIP3    H141522   5.341   3.263   4.061  1.8361  0.0044 -1.7898
 6677TIP3    H241523   5.203   3.208   4.090  1.3070  2.5642  0.9525
 6678TIP3   OH241524   2.993   2.372  15.077 -0.3647 -0.0009 -0.2460
 6678TIP3    H141525   2.949   2.342  14.998 -0.7321 -1.9601  0.6339
 6678TIP3    H241526   2.921   2.391  15.138 -0.0586 -0.4776  0.2710
 6679TIP3   OH241527   2.027   6.216  12.579  0.3878  0.1527  0.2894
 6679TIP3    H141528   1.931   6.220  12.584  0.2878  0.2575 -1.1455
 6679TIP3    H241529   2.049   6.128  12.609 -0.2155 -0.0860  0.0571
 6680TIP3   OH241530   5.204   5.602  13.287 -0.1180 -0.0263  1.1801
 6680TIP3    H141531   5.123   5.559  13.263 -0.1177 -0.2405  1.5553
 6680TIP3    H241532   5.198   5.614  13.382 -0.3173  1.2076  1.0278
 6681TIP3   OH241533   2.117   1.376   2.053 -0.2656 -0.2364  0.1797
 6681TIP3    H141534   2.091   1.395   1.962 -2.6258  0.4522  0.9179
 6681TIP3    H241535   2.147   1.460   2.087  0.6026 -0.4917  0.0706
 6682TIP3   OH241536   4.460   5.543  13.646  0.1106 -0.2969  0.2480
 6682TIP3    H141537   4.404   5.617  13.668  0.9468  0.5911 -0.5518
 6682TIP3    H241538   4.527   5.579  13.588  1.0677 -1.4884  0.5648
 6683TIP3   OH241539   0.094   5.930   2.650  0.0078  0.2009  0.1253
 6683TIP3    H141540   0.077   6.004   2.592 -0.7790 -0.3077 -0.2997
 6683TIP3    H241541   0.009   5.907   2.686  0.3864  0.0843  0.9801
 6684TIP3   OH241542   4.290   4.190  15.407 -0.9224  0.3186 -0.1807
 6684TIP3    H141543   4.349   4.170  15.334 -0.3768 -0.4969  0.4711
 6684TIP3    H241544   4.304   4.283  15.424  0.1416  0.1487 -0.0780
 6685TIP3   OH241545   5.480   4.131  15.837  0.9365 -0.6399  0.4854
 6685TIP3    H141546   5.402   4.084  15.867 -0.4467  1.2151 -0.0442
 6685TIP3    H241547   5.510   4.083  15.760 -0.8809 -0.2915 -0.4806
 6686TIP3   OH241548   0.636   2.800  13.615  0.2716 -0.9846  0.0055
 6686TIP3    H141549   0.571   2.810  13.546  1.3244 -0.9830 -1.0306
 6686TIP3    H241550   0.720   2.814  13.571  0.9204  0.6478  1.5951
 6687TIP3   OH241551   1.954   0.028  16.871  0.5250 -0.5060  0.2703
 6687TIP3    H141552   2.033   0.081  16.881 -0.0912  1.4076 -3.1815
 6687TIP3    H241553   1.887   0.075  16.920  1.2217 -1.5965  2.3777
 6688TIP3   OH241554   0.234   1.681  12.501  0.4872  0.4265 -0.5005
 6688TIP3    H141555   0.172   1.747  12.532 -0.0143 -0.4022  0.3244
 6688TIP3    H241556   0.229   1.611  12.566  3.1951  0.8418  0.2633
 6689TIP3   OH241557   3.936   6.396  11.633  0.7745 -0.3171  0.4334
 6689TIP3    H141558   4.004   6.371  11.695  2.2263 -0.4658 -1.1550
 6689TIP3    H241559   3.959   6.350  11.552  2.1393  3.9759 -1.9066
 6690TIP3   OH241560   2.205   0.465   5.099 -0.1039  0.4796  0.6846
 6690TIP3    H141561   2.281   0.438   5.048 -0.6629 -1.9853  1.0271
 6690TIP3    H241562   2.130   0.438   5.045 -0.7143 -2.1079  2.6441
 6691TIP3   OH241563   4.415   1.227  11.986  0.4001 -0.1132  0.6877
 6691TIP3    H141564   4.372   1.141  11.979 -0.0703  0.1342  0.4792
 6691TIP3    H241565   4.379   1.265  12.066 -2.3550  1.4709 -1.1493
 6692TIP3   OH241566   2.328   4.666   3.604 -0.7653 -0.3801  0.3425
 6692TIP3    H141567   2.330   4.659   3.699 -0.0163 -1.7556  0.2503
 6692TIP3    H241568   2.387   4.597   3.573 -0.2414  0.6641 -1.1030
 6693TIP3   OH241569   3.692   1.730  11.633  0.6311 -0.0229  0.3513
 6693TIP3    H141570   3.703   1.818  11.670 -2.4663 -0.2081  2.1104
 6693TIP3    H241571   3.676   1.746  11.540  2.4463  1.0122  0.1651
 6694TIP3   OH241572   5.915   1.382  16.367  0.0412  0.5459 -0.2722
 6694TIP3    H141573   5.999   1.340  16.383 -0.2381 -0.8787 -2.1701
 6694TIP3    H241574   5.850   1.320  16.399 -0.3343  0.9363 -0.2586
 6695TIP3   OH241575   5.409   2.743  15.234 -0.0658  0.0228  0.3900
 6695TIP3    H141576   5.494   2.754  15.191  0.6954 -1.8601  1.3105
 6695TIP3    H241577   5.406   2.814  15.298  0.4109  0.6353 -0.2502
 6696TIP3   OH241578   2.871   1.822   5.125  0.1504 -0.6275 -0.0576
 6696TIP3    H141579   2.872   1.734   5.088  1.8695  0.2601 -2.3502
 6696TIP3    H241580   2.803   1.869   5.076  0.0050 -0.3657  0.3852
 6697TIP3   OH241581   0.131   4.493  12.210  0.1864 -0.1282  0.6522
 6697TIP3    H141582   0.130   4.398  12.224  0.1059 -0.3861 -0.9662
 6697TIP3    H241583   0.057   4.525  12.261 -2.1482 -1.4241 -1.6925
 6698TIP3   OH241584   6.464   2.143  16.638 -0.7822 -0.5421 -0.6345
 6698TIP3    H141585   6.506   2.160  16.553  2.3779 -1.6554  0.5530
 6698TIP3    H241586   6.497   2.212  16.695 -2.5129 -0.0803 -0.1442
 6699TIP3   OH241587   4.163   5.486  12.892 -0.2468 -0.3966 -0.1634
 6699TIP3    H141588   4.246   5.515  12.930  0.4058 -2.0948 -0.2235
 6699TIP3    H241589   4.145   5.402  12.933 -2.8008  0.6211  1.0349
 6700TIP3   OH241590   1.588   6.640  15.399 -0.1795 -0.9007  0.0071
 6700TIP3    H141591   1.582   6.659  15.492 -0.0445  1.0325 -0.3245
 6700TIP3    H241592   1.497   6.642  15.368 -0.0955  0.8979 -0.2718
 6701TIP3   OH241593   5.378   3.469   1.494  0.4418  0.3047 -0.3910
 6701TIP3    H141594   5.473   3.475   1.493  0.4543  0.4681 -2.2931
 6701TIP3    H241595   5.358   3.405   1.562  1.7930  1.4741  1.1909
 6702TIP3   OH241596   3.995   5.370   5.598 -0.4589 -0.0482 -0.1386
 6702TIP3    H141597   4.049   5.363   5.677  0.6834 -3.4050 -1.0392
 6702TIP3    H241598   4.022   5.452   5.558  3.4034 -1.0400  0.0032
 6703TIP3   OH241599   3.081   6.440  12.435  0.2530 -0.2020 -0.6602
 6703TIP3    H141600   3.053   6.489  12.357  0.8146  0.1699 -0.6347
 6703TIP3    H241601   3.175   6.455  12.440 -0.1504  2.2398  1.7563
 6704TIP3   OH241602   2.738   4.725   4.247  0.6129  0.6713 -0.1696
 6704TIP3    H141603   2.769   4.635   4.256  2.0917  1.0745 -1.0473
 6704TIP3    H241604   2.645   4.716   4.225  0.3487 -0.5845  1.2553
 6705TIP3   OH241605   2.542   4.263  16.912 -0.2444  0.4743 -0.9102
 6705TIP3    H141606   2.540   4.359  16.911  1.2148  0.5735  0.3814
 6705TIP3    H241607   2.483   4.237  16.842  1.1581  2.3450 -2.9488
 6706TIP3   OH241608   4.546   6.357   0.605  0.6961 -0.1834  0.3631
 6706TIP3    H141609   4.528   6.333   0.696 -0.7660 -2.2598 -0.3896
 6706TIP3    H241610   4.626   6.410   0.609 -1.1831  2.8023  3.1845
 6707TIP3   OH241611   4.914   4.200  15.444  0.2173 -0.4208  0.0673
 6707TIP3    H141612   4.900   4.180  15.352  0.3563 -3.4722  0.6281
 6707TIP3    H241613   5.007   4.184  15.458  0.0165 -0.8917  0.9308
 6708TIP3   OH241614   4.321   2.622   3.194  0.5537  0.4441  0.3872
 6708TIP3    H141615   4.334   2.549   3.254  1.0493  0.8430  0.7696
 6708TIP3    H241616   4.239   2.601   3.149  0.5502 -0.2120  0.6822
 6709TIP3   OH241617   1.089   2.577  12.090 -0.3581 -0.2357  0.2010
 6709TIP3    H141618   1.028   2.640  12.052 -1.8972 -1.2649  0.8727
 6709TIP3    H241619   1.096   2.602  12.181 -1.2012 -1.1575  0.5413
 6710TIP3   OH241620   4.763   5.234   0.465 -0.0052  0.3717  0.0057
 6710TIP3    H141621   4.678   5.257   0.427  0.0692  2.6290  1.0052
 6710TIP3    H241622   4.753   5.253   0.558  0.9708 -1.3776  0.5060
 6711TIP3   OH241623   3.454   1.625   1.545 -0.3632 -0.4379 -0.1009
 6711TIP3    H141624   3.370   1.669   1.560 -0.5541 -1.1064  0.8570
 6711TIP3    H241625   3.503   1.637   1.626 -0.1997 -1.4838 -0.0254
 6712TIP3   OH241626   4.688   4.951   0.144 -0.1086 -0.1621 -0.2245
 6712TIP3    H141627   4.774   4.970   0.108  0.4409  1.9579  1.9043
 6712TIP3    H241628   4.626   4.973   0.074  0.9988 -2.7412 -2.1625
 6713TIP3   OH241629   3.901   5.264  14.000 -0.2055  0.4596 -0.0463
 6713TIP3    H141630   3.933   5.177  14.023  1.0558  1.3821  1.9438
 6713TIP3    H241631   3.892   5.261  13.905  4.5764 -0.3664 -0.7011
 6714TIP3   OH241632   0.482   0.109  13.729 -0.4253  0.0567  0.1167
 6714TIP3    H141633   0.416   0.057  13.683 -0.2173  0.4103 -0.5935
 6714TIP3    H241634   0.432   0.154  13.798 -0.4759 -1.6265  1.2222
 6715TIP3   OH241635   5.302   2.918  14.654  0.3185  0.2307 -0.0922
 6715TIP3    H141636   5.348   2.997  14.683  0.5077  0.1155 -0.0835
 6715TIP3    H241637   5.366   2.848  14.661 -0.1713 -0.1431  0.9806
 6716TIP3   OH241638   3.811   0.625  14.047 -0.0423 -0.1357  0.1177
 6716TIP3    H141639   3.749   0.655  13.981 -0.7244 -0.7696  0.4540
 6716TIP3    H241640   3.808   0.530  14.042 -2.4248 -0.3753  3.0610
 6717TIP3   OH241641   0.101   1.157  12.189  0.3128  0.7240 -0.0384
 6717TIP3    H141642   0.088   1.190  12.100 -1.5103 -1.0910 -0.5066
 6717TIP3    H241643   0.019   1.176  12.234  0.7468  0.4737  0.8839
 6718TIP3   OH241644   0.947   3.314   2.562 -0.1937  0.1027 -0.6137
 6718TIP3    H141645   0.960   3.357   2.646 -0.8562 -0.7532 -0.0556
 6718TIP3    H241646   0.999   3.233   2.568 -0.5831 -0.1693 -0.8568
 6719TIP3   OH241647   1.149   4.870  12.622  0.4958  0.7489 -0.3035
 6719TIP3    H141648   1.144   4.828  12.537 -1.6467  0.5338 -0.1302
 6719TIP3    H241649   1.217   4.822  12.670  0.9665  0.1995 -1.5036
 6720TIP3   OH241650   1.385   1.043   4.590 -0.0913  0.2411 -0.0848
 6720TIP3    H141651   1.340   1.114   4.637  1.6566  2.0587 -1.0067
 6720TIP3    H241652   1.420   1.085   4.512  1.8776 -1.4143 -0.1598
 6721TIP3   OH241653   4.213   3.126   2.684  0.0019 -1.0027 -0.3916
 6721TIP3    H141654   4.134   3.170   2.717  0.3926 -0.2871 -0.3836
 6721TIP3    H241655   4.268   3.115   2.761  0.3828 -0.4756 -0.5849
 6722TIP3   OH241656   6.805   5.668  15.457 -0.5243  0.5139 -0.0221
 6722TIP3    H141657   6.728   5.696  15.506 -0.2434 -2.2578  2.2685
 6722TIP3    H241658   6.879   5.692  15.514 -0.0652 -1.1276  0.1290
 6723TIP3   OH241659   0.672   2.865   1.581 -0.1350 -0.6245  0.3390
 6723TIP3    H141660   0.671   2.770   1.585  1.2459 -0.6797  0.0749
 6723TIP3    H241661   0.741   2.886   1.518 -1.4216  0.5483 -0.7519
 6724TIP3   OH241662   1.271   6.457   0.646 -0.0763  0.0100  0.0602
 6724TIP3    H141663   1.244   6.432   0.735  0.8119 -1.9659 -0.1977
 6724TIP3    H241664   1.316   6.381   0.612 -1.3446  0.3121 -2.5231
 6725TIP3   OH241665   6.691   2.297  13.624 -0.2220 -0.0776 -0.1570
 6725TIP3    H141666   6.757   2.366  13.633  2.0670 -2.1337 -0.2115
 6725TIP3    H241667   6.680   2.288  13.529  1.3566 -1.3967 -0.2504
 6726TIP3   OH241668   4.159   3.696   0.950 -0.3303  0.4994  0.5405
 6726TIP3    H141669   4.101   3.650   1.010 -0.0474 -0.4493  0.0952
 6726TIP3    H241670   4.244   3.695   0.993 -0.0501 -0.4826 -0.0182
 6727TIP3   OH241671   1.508   5.529  14.035 -0.3837  0.0761 -0.2017
 6727TIP3    H141672   1.539   5.612  14.071  1.1123 -0.6310  0.2414
 6727TIP3    H241673   1.564   5.514  13.958 -0.4066 -0.6773 -0.0849
 6728TIP3   OH241674   5.958   5.632   6.558 -0.6743 -0.0724 -0.0837
 6728TIP3    H141675   5.970   5.716   6.603 -1.3371 -0.2019  0.3455
 6728TIP3    H241676   5.916   5.655   6.476 -0.0223  0.1029 -0.3749
 6729TIP3   OH241677   3.585   6.084  10.511  0.3567 -0.0847 -0.0509
 6729TIP3    H141678   3.530   6.139  10.567 -1.4680 -0.5448 -1.3037
 6729TIP3    H241679   3.611   6.143  10.440 -0.1889 -0.3818 -0.5020
 6730TIP3   OH241680   0.948   4.472   1.971  0.1532 -0.5202 -0.4992
 6730TIP3    H141681   0.942   4.416   1.894 -0.5940 -0.6940 -0.3303
 6730TIP3    H241682   0.997   4.421   2.035  0.6433 -0.4357 -0.8034
 6731TIP3   OH241683   0.759   5.271  14.462 -0.6690 -0.3452  0.5064
 6731TIP3    H141684   0.737   5.286  14.554  0.0234  2.2322  0.3239
 6731TIP3    H241685   0.850   5.300  14.454 -1.3078  1.4312 -1.3395
 6732TIP3   OH241686   5.470   1.128   6.343  0.5776  0.1740 -0.1783
 6732TIP3    H141687   5.540   1.129   6.408  1.5414 -0.5703 -1.1757
 6732TIP3    H241688   5.483   1.209   6.293  0.3095  0.3626  0.0517
 6733TIP3   OH241689   4.052   0.680  13.379  0.0806 -0.1725  0.1269
 6733TIP3    H141690   4.102   0.729  13.314  0.4763 -1.3542 -0.4863
 6733TIP3    H241691   3.978   0.643  13.330 -0.5575  0.3105  0.7094
 6734TIP3   OH241692   4.937   0.459   4.459 -0.3385 -0.2160  0.0803
 6734TIP3    H141693   5.007   0.447   4.523 -0.4279 -1.7170 -0.0762
 6734TIP3    H241694   4.962   0.538   4.411  2.3680 -1.7866 -1.3340
 6735TIP3   OH241695   3.440   4.902   3.903 -0.0104 -0.2115 -0.7353
 6735TIP3    H141696   3.487   4.958   3.965  0.5582  0.0641 -1.4009
 6735TIP3    H241697   3.398   4.963   3.843  0.3220 -0.4883 -1.2539
 6736TIP3   OH241698   4.157   4.538   4.132 -0.4147 -0.2150  0.3755
 6736TIP3    H141699   4.149   4.443   4.139  2.8033 -0.5246  1.3843
 6736TIP3    H241700   4.167   4.554   4.038 -3.7268 -0.4522 -0.1417
 6737TIP3   OH241701   2.008   3.149   6.740  0.4739 -0.2447 -0.4646
 6737TIP3    H141702   2.059   3.128   6.662 -0.8872  0.9616 -1.7306
 6737TIP3    H241703   1.969   3.066   6.766  0.7860 -0.6202 -1.1796
 6738TIP3   OH241704   1.443   0.640  14.301  0.0550 -0.0908 -0.0912
 6738TIP3    H141705   1.484   0.562  14.338 -0.7436 -0.5526 -0.1509
 6738TIP3    H241706   1.401   0.609  14.220  0.3493  0.5513 -0.5005
 6739TIP3   OH241707   4.787   0.380  14.895 -0.3670 -0.5138 -0.3957
 6739TIP3    H141708   4.822   0.316  14.834  0.0520 -0.4437 -0.2284
 6739TIP3    H241709   4.860   0.439  14.913 -0.5654 -0.3725 -0.0433
 6740TIP3   OH241710   0.128   2.875   0.307 -0.7212  0.1728  0.1895
 6740TIP3    H141711   0.192   2.878   0.379 -0.4856 -1.1225  0.0559
 6740TIP3    H241712   0.055   2.824   0.343 -0.4568 -0.7692 -0.5983
 6741TIP3   OH241713   3.249   0.074  14.944  0.0988 -0.3281 -0.4988
 6741TIP3    H141714   3.219   0.141  15.006 -0.7689 -1.2509  0.1054
 6741TIP3    H241715   3.231   0.111  14.858 -1.7828 -0.3756 -0.1642
 6742TIP3   OH241716   2.994   4.227  10.603  0.5214 -0.0323 -0.5042
 6742TIP3    H141717   2.956   4.257  10.685 -1.1974 -0.1808 -1.2089
 6742TIP3    H241718   3.013   4.308  10.555  0.8378  0.0406 -0.2519
 6743TIP3   OH241719   3.563   3.039  16.101  0.1706  0.1618 -0.1048
 6743TIP3    H141720   3.492   3.063  16.041 -1.2479 -0.9971  1.0243
 6743TIP3    H241721   3.619   2.981  16.050 -0.7893 -0.4708 -0.4726
 6744TIP3   OH241722   1.268   2.555  12.958  0.4466  0.0401 -0.3887
 6744TIP3    H141723   1.361   2.561  12.938  0.5432 -0.8335 -0.2487
 6744TIP3    H241724   1.246   2.463  12.943 -0.1483  0.0025  0.6139
 6745TIP3   OH241725   5.476   6.331  11.740  0.3561  0.3057 -0.3968
 6745TIP3    H141726   5.479   6.321  11.835 -0.6839  3.4752  0.0965
 6745TIP3    H241727   5.390   6.369  11.723  0.7959  0.4762 -2.5539
 6746TIP3   OH241728   3.228   3.345  16.416  0.2427  1.0642 -0.6729
 6746TIP3    H141729   3.264   3.277  16.472  0.2980  0.7762 -1.0553
 6746TIP3    H241730   3.279   3.423  16.438  0.5685  0.8457 -0.6481
 6747TIP3   OH241731   6.066   0.427   3.964 -0.1504  0.0806  0.9703
 6747TIP3    H141732   6.141   0.386   3.922 -0.5775  1.1741 -0.9747
 6747TIP3    H241733   6.072   0.519   3.939 -1.5040  0.3994  1.7337
 6748TIP3   OH241734   0.506   6.132  16.016 -0.1230  0.6422  0.1873
 6748TIP3    H141735   0.422   6.155  15.978  1.0896  1.1566 -2.3900
 6748TIP3    H241736   0.485   6.100  16.104 -3.0980 -0.3917 -0.7889
 6749TIP3   OH241737   6.029   2.797  10.304  0.2022  0.2668 -0.1863
 6749TIP3    H141738   5.948   2.776  10.352  0.7704 -0.6822  0.3861
 6749TIP3    H241739   6.027   2.740  10.227  0.5201 -0.0621  0.0458
 6750TIP3   OH241740   1.968   5.744  12.770  0.0324  0.3460  0.0904
 6750TIP3    H141741   1.947   5.656  12.799 -3.5058  0.9454 -0.1435
 6750TIP3    H241742   1.993   5.734  12.678 -0.6730 -0.4041 -0.0318
 6751TIP3   OH241743   5.910   3.610   3.012 -0.1454 -0.0693  0.0184
 6751TIP3    H141744   5.953   3.640   3.093  2.1822 -1.1399 -0.7322
 6751TIP3    H241745   5.927   3.680   2.949 -0.2901 -0.0947 -0.0484
 6752TIP3   OH241746   2.882   3.363   4.389 -0.2556  0.3957  0.0066
 6752TIP3    H141747   2.943   3.427   4.352  1.0343 -0.1396  1.1442
 6752TIP3    H241748   2.895   3.284   4.335 -2.4631  1.2609 -1.9539
 6753TIP3   OH241749   1.172   3.442  13.668 -0.1560 -0.3153 -0.4297
 6753TIP3    H141750   1.148   3.515  13.725 -0.8225 -1.3219  0.6211
 6753TIP3    H241751   1.178   3.367  13.727  1.2275 -0.9794 -1.3722
 6754TIP3   OH241752   6.472   6.261  14.255 -0.3859 -0.2942  0.0372
 6754TIP3    H141753   6.416   6.338  14.266  0.7196  0.3988  0.9533
 6754TIP3    H241754   6.517   6.276  14.172  0.3645  0.4247  0.5551
 6755TIP3   OH241755   1.813   1.842  16.312 -0.0159  0.0352 -0.2724
 6755TIP3    H141756   1.805   1.877  16.401  2.8981 -0.4129  0.2384
 6755TIP3    H241757   1.821   1.920  16.257  0.4885  0.2742  0.1366
 6756TIP3   OH241758   1.396   4.173  13.995 -0.4463 -0.0216  0.3131
 6756TIP3    H141759   1.365   4.151  14.082 -2.2599  0.8924 -0.0463
 6756TIP3    H241760   1.338   4.125  13.936 -0.6244  1.0100 -0.3901
 6757TIP3   OH241761   1.728   1.992   3.481 -0.5166 -0.4499 -0.3883
 6757TIP3    H141762   1.739   1.959   3.392 -0.8810 -1.1591 -0.1846
 6757TIP3    H241763   1.643   2.037   3.480 -0.9569 -1.2536 -0.1838
 6758TIP3   OH241764   1.429   1.012   2.311  0.0158  0.0401  0.2565
 6758TIP3    H141765   1.369   0.955   2.264  0.8426 -0.1817 -0.5514
 6758TIP3    H241766   1.375   1.085   2.340 -0.5423  0.1224 -0.9387
 6759TIP3   OH241767   2.893   0.448  14.863  0.8602 -0.0647 -0.7254
 6759TIP3    H141768   2.958   0.406  14.919 -0.2576  1.2298  1.7379
 6759TIP3    H241769   2.931   0.534  14.843 -0.6698  1.5325  2.3853
 6760TIP3   OH241770   3.852   1.105   1.209  0.0875 -0.3270 -0.6692
 6760TIP3    H141771   3.810   1.149   1.136  0.3807 -1.1032 -1.3171
 6760TIP3    H241772   3.783   1.095   1.275  0.2038  1.8018 -0.1640
 6761TIP3   OH241773   4.187   6.073  10.840 -0.0614  0.0625 -0.5520
 6761TIP3    H141774   4.144   6.017  10.776 -0.3117 -0.1468 -0.2039
 6761TIP3    H241775   4.281   6.058  10.826 -0.1305 -0.5088 -0.4022
 6762TIP3   OH241776   5.644   2.759  14.314  0.2628 -0.1047 -0.0428
 6762TIP3    H141777   5.581   2.687  14.312  0.6017 -0.4886  1.7302
 6762TIP3    H241778   5.722   2.724  14.271  0.1042 -0.4714 -0.0396
 6763TIP3   OH241779   0.273   5.243  15.833  0.0030  0.3167 -0.2781
 6763TIP3    H141780   0.225   5.247  15.751  0.3919  1.2428 -0.4702
 6763TIP3    H241781   0.226   5.302  15.892  1.6649  2.3753 -0.9050
 6764TIP3   OH241782   3.813   5.221  11.194 -0.4339 -0.0467 -0.1040
 6764TIP3    H141783   3.749   5.158  11.228  0.4469 -1.0386 -0.2447
 6764TIP3    H241784   3.872   5.237  11.267  0.5683 -1.0161 -0.6725
 6765TIP3   OH241785   3.126   6.133  13.578 -0.5483  0.0386 -0.4236
 6765TIP3    H141786   3.038   6.161  13.552 -0.6808  0.0564  0.0440
 6765TIP3    H241787   3.113   6.049  13.621 -0.2940 -0.1239 -0.6565
 6766TIP3   OH241788   6.832   6.295   4.734  0.0497  0.4543 -0.2656
 6766TIP3    H141789   6.880   6.377   4.748  0.8311 -0.1293  0.5734
 6766TIP3    H241790   6.895   6.226   4.754 -0.9136 -0.3366  0.1321
 6767TIP3   OH241791   2.067   0.411   0.675  0.4527  0.2175 -0.1272
 6767TIP3    H141792   2.129   0.394   0.605 -1.1301  0.6564 -1.7194
 6767TIP3    H241793   2.020   0.328   0.686  0.7823  0.1115  0.5234
 6768TIP3   OH241794   4.787   6.465  15.132 -0.3855  0.1975 -0.3369
 6768TIP3    H141795   4.790   6.459  15.228  1.6277  0.8035 -0.3177
 6768TIP3    H241796   4.873   6.435  15.104 -0.2642  1.7954 -1.8361
 6769TIP3   OH241797   1.547   3.092   4.768 -0.1889  0.2953  0.5033
 6769TIP3    H141798   1.490   3.161   4.736 -1.6019 -0.3834  1.4705
 6769TIP3    H241799   1.538   3.096   4.864  0.9430 -0.1969  0.6483
 6770TIP3   OH241800   3.810   5.532  11.198 -0.0131  0.0101 -0.0632
 6770TIP3    H141801   3.777   5.573  11.118 -0.3449 -0.1223  0.0049
 6770TIP3    H241802   3.766   5.446  11.201  1.5751 -0.8742 -0.8511
 6771TIP3   OH241803   4.513   1.811   5.874  0.1328  0.5119 -0.0768
 6771TIP3    H141804   4.529   1.717   5.884  2.7394  0.7675 -1.1046
 6771TIP3    H241805   4.460   1.835   5.950  0.2489 -1.6027  0.7171
 6772TIP3   OH241806   3.449   6.849   4.932 -0.3699  0.1064 -0.9144
 6772TIP3    H141807   3.528   6.889   4.969 -1.2115  1.9393 -0.9649
 6772TIP3    H241808   3.456   6.864   4.838 -1.0448  0.8636 -0.8603
 6773TIP3   OH241809   0.408   1.183   5.529 -0.3009 -0.5668  0.1887
 6773TIP3    H141810   0.320   1.154   5.508  0.1438 -1.7410 -0.0848
 6773TIP3    H241811   0.450   1.108   5.570  0.3924  0.1653  0.8744
 6774TIP3   OH241812   5.478   6.521   1.124 -0.1358 -0.1106 -0.1075
 6774TIP3    H141813   5.526   6.496   1.046  1.2404  1.5825  0.1367
 6774TIP3    H241814   5.440   6.606   1.103  1.9097  1.3498  1.6311
 6775TIP3   OH241815   0.691   6.044  10.621  0.1279 -0.4106  0.1994
 6775TIP3    H141816   0.734   5.984  10.560 -1.2983  0.2531 -1.5682
 6775TIP3    H241817   0.599   6.021  10.616 -0.2438  0.8934  0.6892
 6776TIP3   OH241818   6.404   2.952   4.847 -0.1816 -0.4824  0.3366
 6776TIP3    H141819   6.387   2.884   4.913  0.3115  0.3154  1.3239
 6776TIP3    H241820   6.494   2.979   4.864 -0.2230  0.0958 -0.3396
 6777TIP3   OH241821   6.192   0.964  16.505  0.1335 -0.0063  0.3504
 6777TIP3    H141822   6.212   0.965  16.599  1.1828 -1.3947  0.1866
 6777TIP3    H241823   6.158   0.876  16.489 -0.6529  0.4284 -0.4681
 6778TIP3   OH241824   2.136   3.703   4.629 -0.4293 -0.2791  0.0603
 6778TIP3    H141825   2.100   3.650   4.701  0.1425  2.1706  2.3413
 6778TIP3    H241826   2.170   3.640   4.567  0.3058 -2.6317  2.6410
 6779TIP3   OH241827   4.297   2.304  15.467  0.0775  0.7145 -0.6748
 6779TIP3    H141828   4.283   2.215  15.435 -0.5668  0.4191  0.3563
 6779TIP3    H241829   4.230   2.356  15.423  0.5962  0.7484 -1.4490
 6780TIP3   OH241830   6.437   4.459  13.760  0.2127  0.1164 -0.3870
 6780TIP3    H141831   6.400   4.472  13.673 -0.0468  1.3179 -0.1184
 6780TIP3    H241832   6.399   4.530  13.813  0.7878 -0.2671  0.5642
 6781TIP3   OH241833   4.277   0.387  15.930  0.6289 -0.1961  0.4671
 6781TIP3    H141834   4.206   0.428  15.980 -0.0601 -1.3126  0.4310
 6781TIP3    H241835   4.275   0.431  15.845  0.9229  0.7635  0.9356
 6782TIP3   OH241836   4.312   2.871   1.853  0.0923  0.1718 -0.0362
 6782TIP3    H141837   4.314   2.792   1.799  1.0048  0.4118 -0.3651
 6782TIP3    H241838   4.373   2.931   1.810  0.3802  0.5858  0.9262
 6783TIP3   OH241839   0.398   0.133  13.405 -0.3446 -0.2625 -0.0604
 6783TIP3    H141840   0.453   0.148  13.328  0.1311 -0.8520  0.1543
 6783TIP3    H241841   0.411   0.041  13.426  0.1744  0.0737  1.2055
 6784TIP3   OH241842   1.925   6.714  16.078 -0.5013 -0.1571  0.4440
 6784TIP3    H141843   1.879   6.747  16.002  0.5788 -2.2612 -1.2476
 6784TIP3    H241844   2.018   6.717  16.053 -0.2168 -2.1768  1.0517
 6785TIP3   OH241845   6.221   4.168   0.913 -0.0674  0.2326  0.4191
 6785TIP3    H141846   6.298   4.122   0.879  0.2574 -0.1491  1.6314
 6785TIP3    H241847   6.169   4.100   0.955 -0.4569  0.6868  0.6791
 6786TIP3   OH241848   6.390   5.919   0.933 -0.3177 -0.2971  0.8140
 6786TIP3    H141849   6.338   5.999   0.922 -0.0728 -0.3671 -1.5219
 6786TIP3    H241850   6.440   5.913   0.851  1.1259 -1.8234  1.7521
 6787TIP3   OH241851   4.944   6.511  16.921 -0.1149  0.0693  0.2418
 6787TIP3    H141852   4.922   6.601  16.947  1.3965  0.3806  0.5865
 6787TIP3    H241853   4.888   6.456  16.975  0.4730  0.7921  1.6578
 6788TIP3   OH241854   5.557   3.061  15.081 -0.0368 -0.2672 -0.0093
 6788TIP3    H141855   5.603   3.018  15.153 -0.3704 -0.2265  0.2290
 6788TIP3    H241856   5.619   3.058  15.007 -0.6336 -2.5194 -0.4685
 6789TIP3   OH241857   3.186   2.025  10.751  0.3191  0.2043  0.6025
 6789TIP3    H141858   3.264   2.026  10.807  0.9643  1.3223 -0.2777
 6789TIP3    H241859   3.220   2.033  10.662 -0.7481 -0.4456  0.1121
 6790TIP3   OH241860   1.266   5.653   3.876  0.9171  0.4475 -0.5527
 6790TIP3    H141861   1.263   5.571   3.925  0.3804  0.9860  0.3525
 6790TIP3    H241862   1.285   5.720   3.943 -0.7694  1.3137 -0.8960
 6791TIP3   OH241863   3.692   2.834  16.896  0.5813  0.2765  0.4432
 6791TIP3    H141864   3.714   2.815  16.987 -0.4723  0.8004  0.8265
 6791TIP3    H241865   3.626   2.769  16.873 -0.2303  1.0443  0.5384
 6792TIP3   OH241866   6.676   2.189  16.980 -0.0061 -0.1627 -0.2038
 6792TIP3    H141867   6.754   2.158  17.025 -0.3349 -0.5787  0.0927
 6792TIP3    H241868   6.603   2.159  17.035 -0.3444  0.9640 -0.0095
 6793TIP3   OH241869   1.278   1.336   2.152 -0.1274  0.0126  0.2442
 6793TIP3    H141870   1.214   1.407   2.151  1.4172  1.5328 -1.6696
 6793TIP3    H241871   1.265   1.292   2.236 -2.7151  1.0720  0.4950
 6794TIP3   OH241872   1.314   3.584   2.207 -0.0546  0.1444  0.3854
 6794TIP3    H141873   1.409   3.569   2.212  0.0617  0.0840 -1.3230
 6794TIP3    H241874   1.306   3.678   2.193 -0.2878  0.2442  1.1719
 6795TIP3   OH241875   0.474   1.851  12.111  0.6250  0.2330 -0.1117
 6795TIP3    H141876   0.507   1.764  12.134  1.2087  1.0000  2.1803
 6795TIP3    H241877   0.402   1.867  12.171  0.0577  1.0709 -0.9817
 6796TIP3   OH241878   5.701   5.281  15.692 -0.7749 -0.0571  0.3349
 6796TIP3    H141879   5.627   5.220  15.697 -0.7065 -0.0504  2.5858
 6796TIP3    H241880   5.679   5.339  15.619 -1.8248 -1.5039 -0.5553
 6797TIP3   OH241881   6.842   6.213   1.719 -0.6862  0.2714 -0.2407
 6797TIP3    H141882   6.885   6.221   1.634  0.2438  0.5380  0.2299
 6797TIP3    H241883   6.873   6.129   1.753  1.8964  1.7113  1.3389
 6798TIP3   OH241884   6.151   4.488   3.631 -0.3966 -0.1105 -0.8096
 6798TIP3    H141885   6.144   4.448   3.717 -0.4286  0.4178 -0.5631
 6798TIP3    H241886   6.199   4.424   3.578 -0.4885 -0.4887 -0.4357
 6799TIP3   OH241887   5.612   2.022   1.162  0.7136  0.1100 -0.0771
 6799TIP3    H141888   5.675   2.062   1.101  1.2315 -0.2011  0.2433
 6799TIP3    H241889   5.577   2.095   1.212  0.7905  0.2912 -0.2865
 6800TIP3   OH241890   0.936   0.670   4.858 -0.3399 -0.6485 -0.8923
 6800TIP3    H141891   0.877   0.595   4.867 -1.3497 -0.0302 -1.9874
 6800TIP3    H241892   0.948   0.679   4.763  1.1198 -0.4274 -0.7118
 6801TIP3   OH241893   0.334   6.004   0.065 -0.6817  0.3086  0.4306
 6801TIP3    H141894   0.255   5.952   0.073 -0.2579 -0.3327  0.5102
 6801TIP3    H241895   0.405   5.944   0.088 -0.0357  0.4424 -1.0875
 6802TIP3   OH241896   6.164   5.171   2.784  0.0119 -0.1057 -0.5106
 6802TIP3    H141897   6.219   5.110   2.735 -0.8020 -2.4256  1.2811
 6802TIP3    H241898   6.076   5.160   2.747  0.1751  1.5538 -1.5150
 6803TIP3   OH241899   6.601   5.012  15.758  0.4046  0.0867  0.1248
 6803TIP3    H141900   6.632   4.927  15.727 -0.8998 -0.1140 -0.7411
 6803TIP3    H241901   6.507   5.012  15.738  0.3907  1.7657  0.0292
 6804TIP3   OH241902   4.704   1.658  12.487 -0.5453 -0.3561 -0.0983
 6804TIP3    H141903   4.614   1.683  12.468 -0.9046 -1.4227  0.1161
 6804TIP3    H241904   4.755   1.738  12.476 -0.9417 -0.4667 -3.8120
 6805TIP3   OH241905   1.988   1.166  14.902 -0.2783 -0.3330  0.1313
 6805TIP3    H141906   1.972   1.141  14.811  0.0804  0.0204 -0.0306
 6805TIP3    H241907   1.943   1.250  14.912 -2.4932 -1.5328  1.0050
 6806TIP3   OH241908   1.566   6.542   1.995 -0.6743  0.6302  0.0971
 6806TIP3    H141909   1.544   6.468   2.052 -1.2298  2.2778  2.1726
 6806TIP3    H241910   1.481   6.581   1.973 -0.3622  0.9980 -0.4702
 6807TIP3   OH241911   3.755   1.320  11.630 -0.1479  0.0393  0.4161
 6807TIP3    H141912   3.741   1.285  11.542  0.0485  0.4553  0.2197
 6807TIP3    H241913   3.821   1.261  11.668  0.3501  0.3294  0.0042
 6808TIP3   OH241914   3.804   4.218   2.984  0.4873  0.2111 -0.1920
 6808TIP3    H141915   3.861   4.194   2.911  0.3097 -0.9325  0.0349
 6808TIP3    H241916   3.859   4.274   3.040  1.1679 -0.2957 -0.3408
 6809TIP3   OH241917   4.950   6.696   4.282  0.0798  0.5349 -0.5580
 6809TIP3    H141918   4.920   6.733   4.200 -1.5412 -0.0813 -0.2826
 6809TIP3    H241919   5.043   6.717   4.286 -0.7494  5.0580 -0.1588
 6810TIP3   OH241920   5.454   4.303  11.440  0.4244 -0.7540 -1.1654
 6810TIP3    H141921   5.378   4.345  11.481  1.0865  1.5494 -2.1219
 6810TIP3    H241922   5.434   4.302  11.347  2.6184  2.6342 -1.8587
 6811TIP3   OH241923   5.721   0.857   1.259  0.0632  0.0920 -0.0485
 6811TIP3    H141924   5.811   0.835   1.234  0.0731  0.4024 -0.2950
 6811TIP3    H241925   5.669   0.783   1.230  0.0302  0.5769 -1.2887
 6812TIP3   OH241926   6.017   6.257   4.344  0.1911 -0.3258  0.1194
 6812TIP3    H141927   5.955   6.240   4.273 -1.7098  0.8269  1.3964
 6812TIP3    H241928   5.985   6.204   4.417 -0.8638  2.1291  1.5542
 6813TIP3   OH241929   5.962   5.557   4.144  0.7372 -0.1590  0.2155
 6813TIP3    H141930   5.903   5.632   4.135  0.9939 -0.1778 -2.2816
 6813TIP3    H241931   6.049   5.593   4.123  0.9615 -0.9941 -0.3429
 6814TIP3   OH241932   3.942   3.884  16.372  0.5902  0.2911 -0.8699
 6814TIP3    H141933   4.035   3.893  16.350  1.1604  0.7079  1.5178
 6814TIP3    H241934   3.922   3.960  16.426 -1.4057  0.6512 -2.0223
 6815TIP3   OH241935   6.854   5.056   3.415  0.2662 -0.7991  0.3226
 6815TIP3    H141936   6.910   5.078   3.489  1.0036  0.8356 -0.6750
 6815TIP3    H241937   6.766   5.049   3.453  0.5457  0.5447  1.2783
 6816TIP3   OH241938   6.627   6.202   2.529  0.0138  0.5537  0.5648
 6816TIP3    H141939   6.633   6.225   2.436 -0.6733 -0.4016  0.2639
 6816TIP3    H241940   6.538   6.225   2.554 -0.5758 -1.3256  0.3467
 6817TIP3   OH241941   5.178   6.744   0.257  0.1520 -0.1732  1.3515
 6817TIP3    H141942   5.106   6.693   0.220  0.7737 -0.9834  1.2513
 6817TIP3    H241943   5.160   6.834   0.229 -0.7904 -0.3727  1.2877
 6818TIP3   OH241944   0.511   2.052   0.509 -0.6370  0.0399  0.1542
 6818TIP3    H141945   0.545   2.027   0.595 -0.3783  0.4407  0.1751
 6818TIP3    H241946   0.561   1.998   0.447 -1.4732 -0.9244  0.2955
 6819TIP3   OH241947   5.641   3.523  11.554  0.2811 -0.2857  0.0754
 6819TIP3    H141948   5.736   3.511  11.560  0.1751 -0.8533  0.6938
 6819TIP3    H241949   5.608   3.439  11.522 -0.0052 -0.0670 -0.2063
 6820TIP3   OH241950   5.692   3.743   3.938  0.1720 -0.3369  0.1714
 6820TIP3    H141951   5.760   3.805   3.964 -0.0567  0.5901 -1.2911
 6820TIP3    H241952   5.658   3.708   4.020  0.4491  1.3366  1.0351
 6821TIP3   OH241953   3.343   4.254   0.004  0.0094 -0.1262 -0.3599
 6821TIP3    H141954   3.430   4.283   0.033 -0.2793 -0.8392  1.3102
 6821TIP3    H241955   3.330   4.298  -0.080  1.8504  0.2440 -0.4931
 6822TIP3   OH241956   2.679   5.470  16.359  0.1715 -0.0406  0.4384
 6822TIP3    H141957   2.713   5.402  16.301 -2.3304 -0.3742 -0.7929
 6822TIP3    H241958   2.649   5.540  16.299 -0.6212  0.5021  1.4350
 6823TIP3   OH241959   0.777   6.788  15.006  0.1037  0.0160  0.4379
 6823TIP3    H141960   0.784   6.879  14.978  0.8478 -0.3834 -0.7611
 6823TIP3    H241961   0.685   6.765  14.991 -0.1187  0.5815  0.8612
 6824TIP3   OH241962   6.648   2.061   0.148  0.7295  0.4840  0.4194
 6824TIP3    H141963   6.727   2.019   0.113 -0.9324 -1.3293 -1.3771
 6824TIP3    H241964   6.649   2.039   0.241  2.0916  0.0606  0.3274
 6825TIP3   OH241965   4.808   6.622   1.774  0.3102 -0.1147 -0.2352
 6825TIP3    H141966   4.877   6.629   1.708  0.7760  1.5304  0.3913
 6825TIP3    H241967   4.729   6.606   1.723  0.4305  2.4495 -1.3774
 6826TIP3   OH241968   1.254   6.309   0.890 -0.1725 -0.0441  0.3927
 6826TIP3    H141969   1.210   6.225   0.879 -1.3658  0.6303 -0.2091
 6826TIP3    H241970   1.221   6.343   0.974 -0.3347  0.1753  0.2436
 6827TIP3   OH241971   2.994   6.444  10.500  1.0907 -0.1243  0.8032
 6827TIP3    H141972   2.978   6.350  10.502 -0.3413  0.0896  1.0213
 6827TIP3    H241973   3.062   6.456  10.434 -0.2283 -1.1271 -0.8323
 6828TIP3   OH241974   6.436   4.592  15.111  0.3927 -0.5631  0.0096
 6828TIP3    H141975   6.356   4.544  15.133 -0.4920  0.7404 -0.2762
 6828TIP3    H241976   6.406   4.673  15.071  1.8485  0.2075  0.3818
 6829TIP3   OH241977   1.363   0.947   1.504  0.2606  0.1661 -0.3676
 6829TIP3    H141978   1.372   1.036   1.538  0.4902  0.1665 -0.4255
 6829TIP3    H241979   1.353   0.892   1.581 -1.4037  0.3986 -0.3669
 6830TIP3   OH241980   4.216   4.988   5.044  0.4149 -0.1019  0.4679
 6830TIP3    H141981   4.192   5.039   5.122 -0.0648  0.5087 -0.0746
 6830TIP3    H241982   4.201   5.047   4.971  1.5639 -0.4155 -0.0494
 6831TIP3   OH241983   3.784   4.779  15.789  0.1448 -0.2531 -0.1284
 6831TIP3    H141984   3.789   4.842  15.717  0.4493  0.9952  0.9357
 6831TIP3    H241985   3.766   4.695  15.747 -0.6118  0.5952 -1.5699
 6832TIP3   OH241986   2.379   0.039  16.503  0.2028 -0.2218  0.4043
 6832TIP3    H141987   2.316  -0.005  16.559  0.9457 -1.0878  0.5850
 6832TIP3    H241988   2.340   0.036  16.415  0.0630 -0.8913  0.4877
 6833TIP3   OH241989   4.765   3.932   2.826  0.6047  0.1608  0.1716
 6833TIP3    H141990   4.803   3.908   2.911  0.9480 -0.9859 -0.2930
 6833TIP3    H241991   4.798   3.866   2.765 -0.9979 -0.0223 -0.5370
 6834TIP3   OH241992   2.969   0.605  11.749  0.1619  0.4071  0.0694
 6834TIP3    H141993   2.892   0.660  11.760  0.0267  0.1643  0.3898
 6834TIP3    H241994   3.007   0.600  11.837  0.1373 -0.0517  0.0576
 6835TIP3   OH241995   3.551   6.310   2.444 -0.3014 -0.4758  0.3044
 6835TIP3    H141996   3.494   6.295   2.519  0.0198 -2.5486  0.1878
 6835TIP3    H241997   3.506   6.378   2.393 -0.7338  0.6737  2.1002
 6836TIP3   OH241998   2.586   1.819  13.726  0.2816  0.2083  0.5331
 6836TIP3    H141999   2.515   1.881  13.743 -2.3955 -2.6261  0.6381
 6836TIP3    H242000   2.613   1.838  13.636 -1.2956  0.7803  0.1461
 6837TIP3   OH242001   1.235   0.227  13.300  0.4076 -0.4652 -0.0334
 6837TIP3    H142002   1.144   0.226  13.270  0.5421  0.3070 -0.4774
 6837TIP3    H242003   1.285   0.262  13.226  0.7626  1.3557  0.9951
 6838TIP3   OH242004   4.430   1.594   1.563 -0.4841  0.0520 -0.2643
 6838TIP3    H142005   4.446   1.658   1.632 -1.0745  0.2655 -0.3262
 6838TIP3    H242006   4.487   1.621   1.492  0.4292 -0.3972  0.2720
 6839TIP3   OH242007   5.183   1.228  10.233  0.0284 -0.1911 -0.1552
 6839TIP3    H142008   5.252   1.184  10.183 -0.2838 -1.4594  0.5165
 6839TIP3    H242009   5.110   1.236  10.172 -0.4146 -1.8954  0.1266
 6840TIP3   OH242010   1.029   0.159  17.085  0.3635  0.2340  0.0719
 6840TIP3    H142011   1.007   0.251  17.065 -1.6316  0.1045  1.4344
 6840TIP3    H242012   1.004   0.112  17.005  2.0355  0.8975 -0.9062
 6841TIP3   OH242013   2.335   2.376   0.555  0.6831 -0.8193 -0.8209
 6841TIP3    H142014   2.422   2.383   0.517  0.1309 -0.6679 -2.1035
 6841TIP3    H242015   2.275   2.382   0.480 -0.4253 -1.0336  0.0178
 6842TIP3   OH242016   4.763   1.823  13.894  0.2377 -0.5525 -0.1827
 6842TIP3    H142017   4.774   1.788  13.982  0.2650  0.8760  0.3992
 6842TIP3    H242018   4.824   1.773  13.840 -0.0464 -1.6976  0.5145
 6843TIP3   OH242019   0.351   0.832  14.304  0.1997  0.2873  0.4220
 6843TIP3    H142020   0.398   0.750  14.289  0.9948  0.7429  0.3729
 6843TIP3    H242021   0.373   0.856  14.394 -0.0989  0.3993  0.4645
 6844TIP3   OH242022   0.604   3.067  13.685 -0.5504 -0.1016  0.0966
 6844TIP3    H142023   0.628   2.977  13.663 -0.2421  0.0895 -0.3826
 6844TIP3    H242024   0.688   3.113  13.692 -0.7342  0.3767 -0.7154
 6845TIP3   OH242025   5.278   4.494   3.234  0.1102  0.0697  0.1881
 6845TIP3    H142026   5.286   4.433   3.161  0.6807  0.3029  0.0481
 6845TIP3    H242027   5.311   4.447   3.310  2.1772  0.7247 -0.2202
 6846TIP3   OH242028   3.858   6.470   4.118 -0.0826  1.4047  0.2070
 6846TIP3    H142029   3.801   6.461   4.042 -1.5526  0.7491  1.3365
 6846TIP3    H242030   3.799   6.464   4.194  1.3355  1.9268  1.4143
 6847TIP3   OH242031   5.603   0.494   1.369  0.0037 -0.1552 -0.3998
 6847TIP3    H142032   5.570   0.582   1.391 -1.3766 -0.8585  0.4796
 6847TIP3    H242033   5.575   0.439   1.441 -0.1260 -1.5555 -1.4697
 6848TIP3   OH242034   6.469   2.874  16.972  0.3058 -0.5171  0.3177
 6848TIP3    H142035   6.541   2.936  16.967 -1.4370  1.6507  0.5830
 6848TIP3    H242036   6.496   2.812  17.040  1.7886  0.4008  0.6164
 6849TIP3   OH242037   5.428   2.000  12.045 -0.2525  0.2394  0.1444
 6849TIP3    H142038   5.333   1.998  12.042 -0.2058 -1.0553 -1.6869
 6849TIP3    H242039   5.453   1.913  12.075  0.3630 -0.2688 -1.7123
 6850TIP3   OH242040   5.885   0.003   2.777 -0.1838 -0.3347 -0.3295
 6850TIP3    H142041   5.838   0.085   2.761  1.9245  0.6769 -1.9300
 6850TIP3    H242042   5.975   0.030   2.795  0.3857 -2.2717 -0.0270
 6851TIP3   OH242043   6.448   6.032  15.559 -0.2666 -0.0657 -0.4443
 6851TIP3    H142044   6.392   5.968  15.514 -1.5907  1.2853 -0.7956
 6851TIP3    H242045   6.519   6.049  15.497  0.9854 -2.2888  0.2668
 6852TIP3   OH242046   5.528   3.698  15.733  0.1250  0.1551 -0.2466
 6852TIP3    H142047   5.500   3.609  15.750  0.2471  0.2845  0.7149
 6852TIP3    H242048   5.615   3.689  15.693 -0.7180 -0.2006 -2.0711
 6853TIP3   OH242049   0.865   4.188   5.562 -0.5078 -0.2879 -0.0038
 6853TIP3    H142050   0.894   4.273   5.530  0.6075 -0.0345  1.5583
 6853TIP3    H242051   0.831   4.206   5.650 -4.5168 -0.7541 -1.2614
 6854TIP3   OH242052   4.789   5.504  14.920 -0.1232 -0.1392  0.4254
 6854TIP3    H142053   4.752   5.441  14.858 -0.8947 -0.5108  1.2468
 6854TIP3    H242054   4.787   5.459  15.004 -0.2183  0.7991  0.9356
 6855TIP3   OH242055   1.484   6.800  10.667 -0.4249 -0.3745 -0.3929
 6855TIP3    H142056   1.398   6.762  10.650  0.5365 -2.0730 -1.8984
 6855TIP3    H242057   1.534   6.730  10.709  0.5403  0.2084 -0.5165
 6856TIP3   OH242058   1.999   6.269   3.662  0.1324  0.0721 -0.2050
 6856TIP3    H142059   1.982   6.192   3.716  0.6444  1.3761  1.9098
 6856TIP3    H242060   2.068   6.316   3.708  0.5585  1.3041 -1.9902
 6857TIP3   OH242061   0.098   0.474   2.458 -0.3912  0.0834  0.2538
 6857TIP3    H142062   0.026   0.417   2.484 -0.7144  0.3981  0.0427
 6857TIP3    H242063   0.124   0.443   2.371 -0.7719  0.4552  0.0056
 6858TIP3   OH242064   1.590   4.754   0.112  0.1643 -0.1554  0.7054
 6858TIP3    H142065   1.599   4.752   0.017 -0.0842  0.9195  0.6530
 6858TIP3    H242066   1.680   4.752   0.145  0.2404 -0.9358  0.4644
 6859TIP3   OH242067   0.855   6.772   2.489  0.2460 -0.1782  0.1965
 6859TIP3    H142068   0.860   6.823   2.408  1.7339  0.2313  0.5029
 6859TIP3    H242069   0.809   6.692   2.464  0.7499 -0.1035 -1.0917
 6860TIP3   OH242070   3.879   6.692   5.727 -0.5929 -0.0670  0.0738
 6860TIP3    H142071   3.945   6.667   5.663 -1.2608 -1.4214 -0.1156
 6860TIP3    H242072   3.912   6.660   5.810 -0.5977  0.0434  0.1190
 6861TIP3   OH242073   6.446   5.684   5.912  0.6187  0.0656  0.1912
 6861TIP3    H142074   6.524   5.740   5.915 -0.0651  1.0465  2.4820
 6861TIP3    H242075   6.461   5.618   5.980 -0.5747  0.3765  0.7864
 6862TIP3   OH242076   0.099   3.338  10.865 -0.1267  0.0733 -0.1996
 6862TIP3    H142077   0.154   3.410  10.835 -1.0593  0.5949 -0.7005
 6862TIP3    H242078   0.019   3.346  10.813 -0.9875 -0.1953  1.0455
 6863TIP3   OH242079   3.760   5.511   4.370 -0.0789 -0.0348  0.4720
 6863TIP3    H142080   3.808   5.485   4.291  0.1340  0.1698  0.5325
 6863TIP3    H242081   3.803   5.591   4.399 -0.5347  0.2142  0.4639
 6864TIP3   OH242082   3.980   3.174   2.380  0.0210  0.3796 -0.1738
 6864TIP3    H142083   4.075   3.182   2.393  0.0164  0.3152 -0.1009
 6864TIP3    H242084   3.971   3.130   2.296  0.0565  0.3877 -0.1820
 6865TIP3   OH242085   3.857   6.647  15.677  0.2592 -0.2662 -0.0381
 6865TIP3    H142086   3.804   6.719  15.713  1.5175  0.4210  0.4851
 6865TIP3    H242087   3.792   6.586  15.641 -0.8518  1.0628 -0.3939
 6866TIP3   OH242088   2.594   0.213   5.003 -0.6716  0.2186 -0.0454
 6866TIP3    H142089   2.635   0.197   5.088  0.0628  1.8730 -0.0567
 6866TIP3    H242090   2.663   0.250   4.949 -1.4405  0.3043 -0.9976
 6867TIP3   OH242091   1.382   0.964   5.737  0.3220 -0.2079  0.0750
 6867TIP3    H142092   1.464   0.950   5.784 -0.6322 -0.1256  1.8454
 6867TIP3    H242093   1.331   0.885   5.753 -0.5758  0.4124  0.3932
 6868TIP3   OH242094   6.578   0.503   6.593  0.7155 -0.1337 -0.4462
 6868TIP3    H142095   6.560   0.497   6.499  0.0432 -2.2024 -0.2456
 6868TIP3    H242096   6.498   0.472   6.635  1.3896 -0.2921  0.7688
 6869TIP3   OH242097   5.782   3.398   6.737 -0.5908 -0.3604  0.4696
 6869TIP3    H142098   5.835   3.404   6.658 -0.4048  1.3587  0.6724
 6869TIP3    H242099   5.833   3.344   6.797  0.0727 -0.2419  0.0190
 6870TIP3   OH242100   4.633   2.768  14.242  0.1496  0.1782  0.1479
 6870TIP3    H142101   4.621   2.676  14.265  0.6415 -0.4819 -1.9580
 6870TIP3    H242102   4.550   2.794  14.203  0.4995  0.1478 -0.6383
 6871TIP3   OH242103   2.398   5.286   2.662  0.0390 -0.1036  0.4156
 6871TIP3    H142104   2.308   5.314   2.644 -0.3687 -0.9004  1.1415
 6871TIP3    H242105   2.435   5.356   2.715 -0.5560 -0.3346  1.1492
 6872TIP3   OH242106   0.346   1.450  14.075  0.0805 -0.3751 -0.5791
 6872TIP3    H142107   0.265   1.498  14.060 -0.2275 -1.3747 -2.3984
 6872TIP3    H242108   0.416   1.511  14.052 -0.2062  0.0204 -0.3978
 6873TIP3   OH242109   3.620   6.232   4.927  0.1626  0.4337  0.0593
 6873TIP3    H142110   3.579   6.145   4.928 -1.8264  1.2862 -1.1293
 6873TIP3    H242111   3.561   6.286   4.981  0.3752  1.4284 -0.6872
 6874TIP3   OH242112   6.488   4.524   6.011 -0.1551  0.4655 -0.3649
 6874TIP3    H142113   6.536   4.445   5.988 -0.2897 -0.0783  1.0929
 6874TIP3    H242114   6.403   4.513   5.968  0.4072  0.6341 -1.5565
 6875TIP3   OH242115   1.786   4.703   4.567 -0.0245  0.2589 -0.7657
 6875TIP3    H142116   1.723   4.651   4.618 -1.6311  2.0107 -0.8510
 6875TIP3    H242117   1.796   4.784   4.618  2.6681 -0.1872 -0.4617
 6876TIP3   OH242118   3.095   6.339  15.566  0.6989  0.5449 -0.0238
 6876TIP3    H142119   3.054   6.394  15.500  0.0546 -1.5187 -1.4609
 6876TIP3    H242120   3.173   6.303  15.523 -0.0340 -1.2807  0.0690
 6877TIP3   OH242121   6.026   6.333  12.900  0.0008  0.9269  0.2611
 6877TIP3    H142122   6.116   6.356  12.922 -0.0002  0.7602  0.4435
 6877TIP3    H242123   5.973   6.394  12.952  0.0111  1.2145 -0.0625
 6878TIP3   OH242124   5.152   2.724  15.151 -0.0460  0.0358  0.2689
 6878TIP3    H142125   5.239   2.761  15.164  0.1816 -0.2525 -0.3825
 6878TIP3    H242126   5.127   2.689  15.237  0.6571 -0.2548  0.3579
 6879TIP3   OH242127   3.345   2.473   4.261 -0.5766  0.5374  0.7766
 6879TIP3    H142128   3.260   2.514   4.247 -0.6045  0.2465  0.0985
 6879TIP3    H242129   3.407   2.546   4.260 -0.6855  0.6208  0.1132
 6880TIP3   OH242130   4.753   4.696  13.802  0.6932  0.6304  0.3053
 6880TIP3    H142131   4.709   4.622  13.843  0.6951  0.5465  0.1562
 6880TIP3    H242132   4.745   4.680  13.708  0.3235  1.0334  0.2653
 6881TIP3   OH242133   5.056   4.467   0.239  0.3770 -0.2377  0.1998
 6881TIP3    H142134   5.049   4.390   0.295  1.7738  0.2801  1.1432
 6881TIP3    H242135   4.983   4.460   0.178 -0.3700 -1.5355  1.2153
 6882TIP3   OH242136   6.830   2.108  14.308  0.2325  0.1645 -0.3736
 6882TIP3    H142137   6.870   2.175  14.253  1.7671 -0.4199 -0.0052
 6882TIP3    H242138   6.830   2.029  14.254  1.3939 -0.3151  0.2982
 6883TIP3   OH242139   3.384   2.168  14.358  0.8253  0.1917 -0.1029
 6883TIP3    H142140   3.436   2.106  14.308 -0.5066  0.8794 -2.5070
 6883TIP3    H242141   3.297   2.165  14.318 -0.6636  0.1173  2.8320
 6884TIP3   OH242142   0.759   3.407   3.601  0.0059  0.7094 -0.3744
 6884TIP3    H142143   0.665   3.425   3.591  0.0668  1.1757 -0.1357
 6884TIP3    H242144   0.800   3.493   3.598  0.3828  0.5433 -0.0031
 6885TIP3   OH242145   6.567   5.508   2.764 -0.7192  0.0729 -0.1923
 6885TIP3    H142146   6.553   5.474   2.676 -0.3895 -0.8426  0.1020
 6885TIP3    H242147   6.507   5.459   2.819 -1.9547  1.6175 -0.0872
 6886TIP3   OH242148   0.955   0.172  14.193  0.0392  0.2372 -0.5127
 6886TIP3    H142149   0.945   0.198  14.101  0.8429 -0.0938 -0.7061
 6886TIP3    H242150   1.049   0.183  14.210  0.0195 -0.4272  0.0513
 6887TIP3   OH242151   1.987   0.158   4.743 -0.2965 -0.3144 -0.6007
 6887TIP3    H142152   2.046   0.097   4.699  0.2856 -0.3064  0.1595
 6887TIP3    H242153   1.954   0.213   4.672  1.1652  0.1402 -0.9808
 6888TIP3   OH242154   2.929   2.119  13.768  0.5210  0.1203 -0.4931
 6888TIP3    H142155   2.917   2.137  13.675 -1.9588  0.3232 -0.1964
 6888TIP3    H242156   2.867   2.176  13.813  1.8923  0.2766  1.3460
 6889TIP3   OH242157   2.433   6.280   4.809  0.6110 -0.1285 -0.4299
 6889TIP3    H142158   2.340   6.269   4.827  0.9863  1.2003  3.5307
 6889TIP3    H242159   2.473   6.196   4.834  0.6295 -0.0200 -0.0809
 6890TIP3   OH242160   1.959   2.262   0.028 -0.0214 -0.1686  0.5739
 6890TIP3    H142161   1.945   2.188   0.087  1.8735 -0.8230  0.2679
 6890TIP3    H242162   1.900   2.245  -0.045 -0.4504 -0.7560  1.0407
 6891TIP3   OH242163   3.533   1.796   5.624  0.2113  0.0509 -0.4500
 6891TIP3    H142164   3.625   1.808   5.648  0.0809  1.1740 -0.4421
 6891TIP3    H242165   3.499   1.885   5.614 -0.8505 -0.3480 -0.5604
 6892TIP3   OH242166   2.683   1.042   5.340  0.4298 -0.3774  0.2848
 6892TIP3    H142167   2.636   0.967   5.377  1.7601  0.0854  3.2498
 6892TIP3    H242168   2.616   1.109   5.329 -0.1594 -0.7571  1.3718
 6893TIP3   OH242169   0.895   0.060   2.732  0.7078 -0.2485  0.1402
 6893TIP3    H142170   0.871   0.034   2.643 -1.8118  1.1865  0.2843
 6893TIP3    H242171   0.906  -0.023   2.779  0.3324 -1.0313 -1.0888
 6894TIP3   OH242172   2.329   0.079   5.489  0.0158 -0.0557 -0.2252
 6894TIP3    H142173   2.254   0.133   5.465 -1.0025 -1.3213 -0.0097
 6894TIP3    H242174   2.356   0.038   5.407  0.5780  0.5103 -0.3293
 6895TIP3   OH242175   2.451   2.665  12.165  0.1096  0.1634  0.0495
 6895TIP3    H142176   2.373   2.711  12.135  0.0179 -0.8832 -1.4403
 6895TIP3    H242177   2.523   2.709  12.120  0.0099 -1.1428 -1.4905
 6896TIP3   OH242178   1.812   6.602  10.284 -0.2936 -0.1503 -0.4385
 6896TIP3    H142179   1.803   6.589  10.379  0.5209 -1.0704 -0.4769
 6896TIP3    H242180   1.906   6.602  10.268 -0.4208  0.1765 -1.2372
 6897TIP3   OH242181   3.652   5.949   2.789 -0.2876  0.6989 -0.3439
 6897TIP3    H142182   3.600   5.911   2.718  0.2175 -0.0161 -0.3496
 6897TIP3    H242183   3.601   5.931   2.868  0.3636 -0.8771 -0.2300
 6898TIP3   OH242184   6.459   0.402  13.973  0.2530  0.5472 -1.0068
 6898TIP3    H142185   6.417   0.389  14.058 -0.0140  0.5507 -1.1337
 6898TIP3    H242186   6.407   0.347  13.913  0.5952  0.3463 -1.1213
 6899TIP3   OH242187   0.282   2.537  13.176 -0.3149  0.6805 -1.1683
 6899TIP3    H142188   0.322   2.623  13.160 -1.7215  1.8129  0.9708
 6899TIP3    H242189   0.190   2.556  13.194 -0.5303 -1.2094  0.0042
 6900TIP3   OH242190   2.028   1.036   2.008  0.3259 -0.1204  0.0991
 6900TIP3    H142191   1.974   1.031   2.087 -1.4577 -1.9934 -1.1249
 6900TIP3    H242192   2.104   0.981   2.027 -0.0661 -0.5210  0.5401
 6901TIP3   OH242193   5.589   0.362  13.089 -0.0244 -0.1436 -0.1986
 6901TIP3    H142194   5.538   0.290  13.127  0.9778 -0.1828  1.1470
 6901TIP3    H242195   5.626   0.326  13.008  0.2774 -1.0756  0.3428
 6902TIP3   OH242196   4.842   0.245   3.349 -0.0293  0.2332  0.0422
 6902TIP3    H142197   4.919   0.235   3.405 -1.5060 -1.0182  2.0036
 6902TIP3    H242198   4.857   0.327   3.301  2.8076 -0.3554 -0.2149
 6903TIP3   OH242199   0.271   2.090  11.937 -0.6169  0.0707  0.2192
 6903TIP3    H142200   0.351   2.073  11.887 -0.4970 -0.6656  0.6450
 6903TIP3    H242201   0.302   2.128  12.019 -0.5873 -1.4352  0.9367
 6904TIP3   OH242202   0.842   2.630   1.242 -0.3537  0.2984 -0.0627
 6904TIP3    H142203   0.904   2.701   1.259 -0.2214  0.2430 -0.3120
 6904TIP3    H242204   0.895   2.551   1.240 -0.2666  0.3595 -1.2732
 6905TIP3   OH242205   4.837   6.569  10.672 -0.0297  0.3267  0.3608
 6905TIP3    H142206   4.921   6.540  10.637 -0.4273 -1.1220  0.5271
 6905TIP3    H242207   4.773   6.542  10.606 -0.3881  1.2037  0.3447
 6906TIP3   OH242208   6.325   1.473   2.835  0.2207  0.4091  0.1868
 6906TIP3    H142209   6.292   1.557   2.803 -2.1777 -0.5038  0.0665
 6906TIP3    H242210   6.298   1.470   2.927  0.6401 -0.0720  0.2997
 6907TIP3   OH242211   5.687   4.467   1.773 -0.4473  0.4303 -0.1294
 6907TIP3    H142212   5.619   4.420   1.821  0.1532 -0.0688  0.2550
 6907TIP3    H242213   5.688   4.554   1.812 -1.3292  0.6602 -0.6050
 6908TIP3   OH242214   6.465   4.830   1.986  0.5330 -0.5375 -0.4785
 6908TIP3    H142215   6.557   4.808   1.998  0.9574  1.5893  0.5655
 6908TIP3    H242216   6.432   4.846   2.074 -0.4809  0.0010 -0.9318
 6909TIP3   OH242217   3.148   1.322  16.275  0.1183 -0.0847 -0.2406
 6909TIP3    H142218   3.061   1.306  16.238 -0.2184  1.0880  0.0043
 6909TIP3    H242219   3.198   1.244  16.252 -0.9414 -0.6952 -0.5563
 6910TIP3   OH242220   2.453   0.624  16.618  0.0415 -0.3504 -0.2336
 6910TIP3    H142221   2.473   0.536  16.587 -0.3528  0.0715 -1.7701
 6910TIP3    H242222   2.516   0.680  16.573  0.5473  0.1494  1.0230
 6911TIP3   OH242223   6.480   0.283   3.418 -0.1223  0.1887  0.6268
 6911TIP3    H142224   6.569   0.268   3.388 -0.2396  1.2308 -0.2818
 6911TIP3    H242225   6.489   0.345   3.491 -0.0319 -0.5140  1.2242
 6912TIP3   OH242226   2.881   3.552  13.944 -0.9569  0.0158  0.0402
 6912TIP3    H142227   2.975   3.544  13.924 -1.0047  1.9783 -1.1971
 6912TIP3    H242228   2.872   3.513  14.031  1.2972  1.1282  0.8565
 6913TIP3   OH242229   3.863   5.882   0.360  0.2259 -0.0035  0.7162
 6913TIP3    H142230   3.881   5.797   0.319  0.4593 -0.1353  1.0925
 6913TIP3    H242231   3.902   5.876   0.447  0.2381  0.4879  0.7479
 6914TIP3   OH242232   0.879   2.767   0.942 -0.1009 -0.5071 -0.4537
 6914TIP3    H142233   0.922   2.779   1.027 -1.4502 -0.9525  0.3170
 6914TIP3    H242234   0.880   2.673   0.927  1.8848 -0.3163 -1.9117
 6915TIP3   OH242235   3.745   0.231   0.556 -0.2105 -0.3206 -0.1962
 6915TIP3    H142236   3.767   0.321   0.579 -0.3675 -0.1352 -0.7752
 6915TIP3    H242237   3.790   0.215   0.473 -2.6115  0.2321 -1.6979
 6916TIP3   OH242238   3.182   0.075  13.078 -0.2811 -0.3949  0.1441
 6916TIP3    H142239   3.278   0.071  13.074 -0.3219 -0.0940 -1.5968
 6916TIP3    H242240   3.155   0.106  12.992 -1.9280  0.1660  0.8204
 6917TIP3   OH242241   2.934   2.389  13.951  0.3040 -0.2741 -0.3000
 6917TIP3    H142242   2.847   2.367  13.984  0.4136 -2.3036 -1.2411
 6917TIP3    H242243   2.986   2.403  14.030 -0.8873  1.2269  0.2757
 6918TIP3   OH242244   0.432   1.750   3.116 -0.7809  0.0913  0.5222
 6918TIP3    H142245   0.340   1.728   3.100 -0.4822 -0.4934 -0.4700
 6918TIP3    H242246   0.449   1.825   3.059 -1.0537  1.2275  1.8833
 6919TIP3   OH242247   5.733   3.307  15.675  0.6890 -0.0086  0.0291
 6919TIP3    H142248   5.770   3.233  15.725 -0.5646 -0.9211 -0.3392
 6919TIP3    H242249   5.796   3.321  15.604  0.9578 -0.7268  0.1098
 6920TIP3   OH242250   5.630   2.122  11.913  0.4002 -0.1848  0.3445
 6920TIP3    H142251   5.577   2.078  11.978  1.3364 -3.3584 -0.8347
 6920TIP3    H242252   5.569   2.177  11.864 -0.9482 -0.5030  1.6188
 6921TIP3   OH242253   5.468   5.610   4.484 -0.0221  0.4769 -0.0594
 6921TIP3    H142254   5.518   5.667   4.542  0.2702  0.3672 -0.2020
 6921TIP3    H242255   5.389   5.588   4.534 -1.0790  2.5162 -0.6932
 6922TIP3   OH242256   1.396   6.822   0.997 -0.0494  0.6702  0.2955
 6922TIP3    H142257   1.429   6.781   0.918 -0.4716  0.2357  0.3400
 6922TIP3    H242258   1.301   6.806   0.995 -0.4649  2.8573 -0.4048
 6923TIP3   OH242259   6.116   1.523   2.522 -0.1513 -1.0998 -0.6289
 6923TIP3    H142260   6.159   1.448   2.479  0.4421  0.3217 -2.7015
 6923TIP3    H242261   6.069   1.567   2.451 -1.3133 -0.0512  0.7370
 6924TIP3   OH242262   0.717   2.762  16.014  0.2822 -0.1692  0.2548
 6924TIP3    H142263   0.636   2.809  15.995  0.8601  1.1277  0.8953
 6924TIP3    H242264   0.761   2.816  16.079  1.5614 -0.9682  0.0730
 6925TIP3   OH242265   1.850   4.867   2.636 -0.0639 -0.4709  0.1640
 6925TIP3    H142266   1.844   4.853   2.541 -2.2557  0.0036  0.1881
 6925TIP3    H242267   1.834   4.961   2.648  0.0737 -0.5459  1.0116
 6926TIP3   OH242268   3.811   5.504   3.746  0.4699 -0.0113  0.3763
 6926TIP3    H142269   3.772   5.443   3.683 -1.3582 -1.2066  2.4819
 6926TIP3    H242270   3.740   5.522   3.808  2.0519  1.3900  1.8802
 6927TIP3   OH242271   5.924   0.119  15.957 -0.5057  0.0736  0.0556
 6927TIP3    H142272   5.909   0.162  15.873 -0.4153  1.1652  0.5818
 6927TIP3    H242273   5.847   0.064  15.970 -0.8678  0.4611 -0.3987
 6928TIP3   OH242274   0.578   6.721  14.123  0.4691 -0.1639 -0.0960
 6928TIP3    H142275   0.643   6.782  14.156 -1.5583  1.3035  1.4066
 6928TIP3    H242276   0.565   6.658  14.194 -0.2073 -0.0779 -0.1403
 6929TIP3   OH242277   5.815   1.278   5.490  0.0901  0.5254 -0.1679
 6929TIP3    H142278   5.902   1.303   5.458  0.2800  0.8193  0.5495
 6929TIP3    H242279   5.830   1.195   5.536  0.0527  0.7196  0.2024
 6930TIP3   OH242280   1.561   5.543   2.425 -0.0888  0.2207  0.2634
 6930TIP3    H142281   1.647   5.526   2.387 -0.3712 -0.3447 -0.1374
 6930TIP3    H242282   1.527   5.617   2.375 -1.2461 -1.6776 -1.9480
 6931TIP3   OH242283   4.790   2.173   6.361  0.0377 -0.1595  0.0820
 6931TIP3    H142284   4.882   2.156   6.339 -0.3605 -4.2301  0.8627
 6931TIP3    H242285   4.794   2.245   6.425  2.7629 -0.7563  0.7098
 6932TIP3   OH242286   3.057   4.365   3.244  0.0262  0.0863 -0.4736
 6932TIP3    H142287   3.130   4.396   3.298 -1.8439  0.4817  2.0070
 6932TIP3    H242288   3.043   4.275   3.273 -1.5562  0.5843  0.3955
 6933TIP3   OH242289   3.367   6.800   5.280  0.2868 -0.3674  0.5647
 6933TIP3    H142290   3.330   6.723   5.236  0.4303  0.1898 -0.5425
 6933TIP3    H242291   3.410   6.850   5.211 -0.4873  1.1323  1.1341
 6934TIP3   OH242292   6.545   1.921   3.976 -0.5885 -0.7722  0.2246
 6934TIP3    H142293   6.613   1.988   3.981 -1.9086  0.5585  1.5012
 6934TIP3    H242294   6.476   1.961   3.922 -1.6794 -0.7720  1.5633
 6935TIP3   OH242295   4.406   2.873  13.677  0.4764 -0.0692  0.4547
 6935TIP3    H142296   4.384   2.955  13.632 -0.9482 -0.7535 -0.1317
 6935TIP3    H242297   4.325   2.847  13.721  0.6836 -1.5611  0.0046
 6936TIP3   OH242298   1.502   3.237  11.520  0.7295  0.2081 -0.0789
 6936TIP3    H142299   1.446   3.213  11.447 -0.4317  2.5138  0.0002
 6936TIP3    H242300   1.442   3.256  11.592  1.7591  0.0336  0.8613
 6937TIP3   OH242301   2.350   0.455   1.375  0.3992 -0.1363  0.2833
 6937TIP3    H142302   2.434   0.498   1.394  0.4442 -1.0698  2.4405
 6937TIP3    H242303   2.362   0.365   1.405 -0.7871 -0.7995 -1.1180
 6938TIP3   OH242304   4.106   2.660   4.477 -0.0608 -0.5182 -0.1309
 6938TIP3    H142305   4.040   2.728   4.488  3.5219  3.3506  0.2569
 6938TIP3    H242306   4.138   2.643   4.566  1.4846  0.1017 -0.5258
 6939TIP3   OH242307   1.496   0.056   3.999 -0.0715 -0.1489  0.1618
 6939TIP3    H142308   1.455   0.138   3.973 -1.1587 -0.6428  0.2603
 6939TIP3    H242309   1.423  -0.000   4.025  0.8306 -0.2340  2.7780
 6940TIP3   OH242310   5.055   0.404   1.593  0.4232 -0.6045  0.1531
 6940TIP3    H142311   5.015   0.490   1.583  0.4446 -0.5033  0.8352
 6940TIP3    H242312   5.135   0.408   1.540  3.2012  1.6527  3.9837
 6941TIP3   OH242313   5.674   1.750   4.868  0.0179  0.1606 -0.0620
 6941TIP3    H142314   5.707   1.834   4.901  1.6677  0.6827 -2.7340
 6941TIP3    H242315   5.590   1.772   4.827 -0.5325  0.0802  0.9817
 6942TIP3   OH242316   2.912   0.335  16.637 -0.1095 -0.2092 -0.1316
 6942TIP3    H142317   2.899   0.257  16.691 -0.3775 -1.0643 -1.3717
 6942TIP3    H242318   2.863   0.317  16.557  0.4875  0.8918 -0.7750
 6943TIP3   OH242319   5.654   2.057   5.310  0.1282 -0.1299 -0.4233
 6943TIP3    H142320   5.729   2.115   5.326  0.2481  0.1761 -1.9650
 6943TIP3    H242321   5.579   2.108   5.339  0.2981  0.5568 -1.1527
 6944TIP3   OH242322   5.667   4.058   0.376 -0.2068 -0.4552  0.4530
 6944TIP3    H142323   5.616   4.058   0.295  0.0193 -0.3868  0.3085
 6944TIP3    H242324   5.728   3.984   0.366  1.2664  0.8094 -0.3697
 6945TIP3   OH242325   3.166   1.653  11.790 -0.0321  0.1200 -0.1694
 6945TIP3    H142326   3.179   1.664  11.884 -1.5708  0.3792  0.0497
 6945TIP3    H242327   3.139   1.740  11.760  0.9675  0.1670 -0.9589
 6946TIP3   OH242328   1.646   6.360  16.163 -0.2182 -0.5348  0.1617
 6946TIP3    H142329   1.580   6.291  16.161  0.9075 -1.6494 -1.1254
 6946TIP3    H242330   1.711   6.328  16.226  0.6398 -1.0072 -0.9350
 6947TIP3   OH242331   2.708   6.672  15.873  0.1351 -0.6413 -0.4850
 6947TIP3    H142332   2.724   6.581  15.847  1.6757  0.0655 -2.2692
 6947TIP3    H242333   2.765   6.724  15.815 -1.2912  1.5184 -0.0718
 6948TIP3   OH242334   6.371   2.350   0.230  0.0286 -0.0247 -0.2057
 6948TIP3    H142335   6.382   2.284   0.298 -0.5101  0.0729 -0.0171
 6948TIP3    H242336   6.368   2.301   0.148  0.7004 -0.1409 -0.1652
 6949TIP3   OH242337   0.813   1.906   4.684  0.1761  0.1493 -0.2954
 6949TIP3    H142338   0.841   1.984   4.732  1.8737 -0.2189 -0.5951
 6949TIP3    H242339   0.718   1.907   4.689  0.2500  0.7628  2.0286
 6950TIP3   OH242340   0.864   5.488   4.954 -0.1336 -0.1378  0.1316
 6950TIP3    H142341   0.839   5.439   4.876 -0.2460 -1.1062  0.7563
 6950TIP3    H242342   0.865   5.423   5.024  0.6832  0.5676  0.8038
 6951TIP3   OH242343   0.834   2.467  14.123  0.1673  0.3475  0.5225
 6951TIP3    H142344   0.927   2.447  14.136  1.0824  2.5686 -1.8882
 6951TIP3    H242345   0.820   2.458  14.029 -1.5956  1.8681  0.5850
 6952TIP3   OH242346   6.772   3.600   0.441  0.3821  0.0266 -0.2376
 6952TIP3    H142347   6.768   3.663   0.370 -0.2507 -1.1750 -1.3054
 6952TIP3    H242348   6.809   3.521   0.402  0.0993 -0.6362  0.7743
 6953TIP3   OH242349   4.845   1.417  15.346  0.0215 -0.2557  1.0712
 6953TIP3    H142350   4.781   1.481  15.313  0.1393 -0.6655  0.0078
 6953TIP3    H242351   4.806   1.332  15.324 -0.2879 -0.5835  2.7605
 6954TIP3   OH242352   5.697   4.437  13.940  0.1596  0.5535 -0.7782
 6954TIP3    H142353   5.784   4.405  13.915 -0.5604 -0.1622 -2.4839
 6954TIP3    H242354   5.651   4.358  13.969  0.2830  1.0446  0.8770
 6955TIP3   OH242355   2.118   0.738   2.131  0.0835  0.1657 -0.4391
 6955TIP3    H142356   2.096   0.699   2.046 -0.3631 -1.7185  0.5003
 6955TIP3    H242357   2.214   0.734   2.135  0.1254  0.5178 -0.9510
 6956TIP3   OH242358   6.161   0.259  10.244  0.4614 -0.0078 -0.2450
 6956TIP3    H142359   6.184   0.352  10.243  0.2290  0.0801 -2.6323
 6956TIP3    H242360   6.107   0.247  10.166 -0.4053 -1.9534  0.6014
 6957TIP3   OH242361   5.759   6.190  13.566 -0.1882 -0.4095  0.3800
 6957TIP3    H142362   5.843   6.223  13.534 -1.2564  0.2472 -2.0070
 6957TIP3    H242363   5.698   6.262  13.550 -1.8221 -2.0434 -1.1986
 6958TIP3   OH242364   4.013   6.744  11.386 -0.2386 -0.3495  0.0051
 6958TIP3    H142365   3.932   6.700  11.410 -0.6751  0.6062  0.3438
 6958TIP3    H242366   3.986   6.810  11.322  0.5857 -1.3886 -1.4942
 6959TIP3   OH242367   4.413   1.446   5.271  0.9878 -0.6392  0.0847
 6959TIP3    H142368   4.382   1.369   5.224  0.9074  0.0871 -1.0675
 6959TIP3    H242369   4.348   1.513   5.253  2.3748  0.4465 -1.0399
 6960TIP3   OH242370   5.817   2.317   3.094  0.0099 -0.8928 -0.2582
 6960TIP3    H142371   5.845   2.226   3.104  0.4792 -0.8079 -0.7199
 6960TIP3    H242372   5.806   2.329   2.999  0.8329 -0.2232 -0.2878
 6961TIP3   OH242373   5.946   3.163   5.567 -0.4834 -0.1184 -0.3767
 6961TIP3    H142374   6.024   3.125   5.607  0.6874  0.6693 -1.7795
 6961TIP3    H242375   5.974   3.251   5.539 -1.7403  0.0227 -1.2929
 6962TIP3   OH242376   5.981   1.012  14.679 -0.3208  0.4337 -0.4131
 6962TIP3    H142377   5.941   0.940  14.629 -0.1911 -1.0175  1.4420
 6962TIP3    H242378   6.069   0.980  14.699 -0.5908  0.6508  1.2685
 6963TIP3   OH242379   2.441   5.438   3.662 -0.0556  0.0586 -0.2631
 6963TIP3    H142380   2.401   5.355   3.634 -0.3280 -0.2116  0.8477
 6963TIP3    H242381   2.483   5.472   3.584  2.3116 -2.4006 -0.2110
 6964TIP3   OH242382   5.327   5.514   2.767 -0.6406  0.4648  0.5354
 6964TIP3    H142383   5.362   5.482   2.849  1.8267  1.3109 -0.1183
 6964TIP3    H242384   5.280   5.595   2.790 -0.5347  0.3418  1.1834
 6965TIP3   OH242385   2.182   3.097  12.741 -0.0215 -0.1454  0.1275
 6965TIP3    H142386   2.242   3.043  12.792 -0.7506 -0.3621  0.7823
 6965TIP3    H242387   2.095   3.076  12.776 -0.5641 -0.4061 -1.3086
 6966TIP3   OH242388   2.416   2.491   5.526  0.2238  0.1560  0.2928
 6966TIP3    H142389   2.447   2.577   5.498 -0.2384  0.3210  0.2774
 6966TIP3    H242390   2.460   2.430   5.468 -0.6912  0.4934 -0.8035
 6967TIP3   OH242391   0.106   4.776   3.685  0.0972  0.1768  0.6950
 6967TIP3    H142392   0.180   4.715   3.682 -0.5353 -0.5834 -0.1100
 6967TIP3    H242393   0.129   4.838   3.754  1.5959  0.1086  0.2997
 6968TIP3   OH242394   0.741   2.906  14.945  0.3182  0.2288 -0.3495
 6968TIP3    H142395   0.768   2.844  15.012  0.0044 -0.5679 -0.9448
 6968TIP3    H242396   0.666   2.864  14.902  1.2434  0.1565 -1.9834
 6969TIP3   OH242397   3.511   1.029  12.321 -0.5766 -0.1829  0.5921
 6969TIP3    H142398   3.467   1.032  12.236  0.8255 -1.7661 -0.2240
 6969TIP3    H242399   3.439   1.019  12.384 -1.7320  2.0468 -0.2282
 6970TIP3   OH242400   2.133   0.797   4.280 -0.2223 -0.5238  0.2290
 6970TIP3    H142401   2.182   0.872   4.247  2.8167 -1.5183  2.0850
 6970TIP3    H242402   2.045   0.831   4.297  0.0704  1.7088 -2.0542
 6971TIP3   OH242403   6.285   0.619   4.352  0.2812  0.1155 -0.4552
 6971TIP3    H142404   6.280   0.696   4.409  2.2558 -1.6251  2.2881
 6971TIP3    H242405   6.194   0.592   4.340 -0.3439  1.9442 -0.2200
 6972TIP3   OH242406   2.099   0.579   5.976 -0.1880  0.5916 -0.3938
 6972TIP3    H142407   2.178   0.630   5.959 -0.5445  0.4943 -2.6771
 6972TIP3    H242408   2.027   0.636   5.949 -0.7567 -0.1120 -0.3962
 6973TIP3   OH242409   5.149   1.906   2.085  0.3676  0.0346 -0.3828
 6973TIP3    H142410   5.213   1.929   2.152  1.1782 -1.4625 -0.6000
 6973TIP3    H242411   5.070   1.884   2.134  0.7459 -0.3756  0.0556
 6974TIP3   OH242412   3.211   3.969   3.660 -0.3238  0.0994  0.2215
 6974TIP3    H142413   3.304   3.951   3.674 -0.3652  0.2572  0.7289
 6974TIP3    H242414   3.172   3.884   3.641 -0.0766  0.0340 -0.0010
 6975TIP3   OH242415   0.767   6.317  13.417  0.2570  0.1941 -0.5894
 6975TIP3    H142416   0.853   6.327  13.457  0.1772 -0.3082 -0.2881
 6975TIP3    H242417   0.776   6.243  13.357  0.2153  0.5717 -1.0765
 6976TIP3   OH242418   0.797   6.611  10.137 -0.7772 -0.2385  0.4160
 6976TIP3    H142419   0.844   6.683  10.178 -0.3067 -1.3872  1.9866
 6976TIP3    H242420   0.838   6.601  10.051  1.2568 -0.5862  1.3792
 6977TIP3   OH242421   5.952   1.275  14.321  0.2310  0.5230 -0.0365
 6977TIP3    H142422   6.011   1.200  14.327 -0.2938 -0.0814 -1.7148
 6977TIP3    H242423   5.865   1.236  14.310 -0.1764  1.3801  0.0403
 6978TIP3   OH242424   3.874   6.510  12.623 -0.6382 -0.5701 -0.1556
 6978TIP3    H142425   3.781   6.494  12.605 -0.5254 -1.4715  0.0303
 6978TIP3    H242426   3.916   6.425  12.611  0.6790  0.3907 -3.3278
 6979TIP3   OH242427   2.254   3.142  16.538  0.5982  0.0216 -0.3798
 6979TIP3    H142428   2.214   3.184  16.614 -0.2085 -1.8990  0.3189
 6979TIP3    H242429   2.309   3.211  16.498 -2.0211  2.2728 -0.3943
 6980TIP3   OH242430   6.141   4.351  11.336 -0.8354  0.4638  0.3999
 6980TIP3    H142431   6.202   4.315  11.271 -0.1190  0.0608  1.2826
 6980TIP3    H242432   6.197   4.387  11.404 -1.5831  1.0721  0.7113
 6981TIP3   OH242433   4.233   4.989  12.883 -0.1420  0.3626  0.0216
 6981TIP3    H142434   4.221   5.067  12.829  1.7522  1.0786  0.5639
 6981TIP3    H242435   4.148   4.945  12.880 -0.9979  1.9764 -1.0066
 6982TIP3   OH242436   4.271   5.845   5.662 -0.1336  0.3424  0.2924
 6982TIP3    H142437   4.264   5.939   5.681  1.3349  0.4366  0.4347
 6982TIP3    H242438   4.199   5.805   5.712 -0.5936  1.3457  0.4536
 6983TIP3   OH242439   4.178   3.823   2.180  0.2698  0.3969  0.4643
 6983TIP3    H142440   4.122   3.752   2.147 -0.1646  0.1449  1.6802
 6983TIP3    H242441   4.264   3.805   2.141 -0.0015 -0.4136  0.2052
 6984TIP3   OH242442   6.099   3.472   5.571 -0.5517  0.2771 -0.3891
 6984TIP3    H142443   6.131   3.562   5.563 -1.0714  0.3451 -2.4995
 6984TIP3    H242444   6.004   3.482   5.583 -0.9371  0.0710 -2.7370
 6985TIP3   OH242445   3.276   2.752   1.538  0.6497 -0.1791 -0.2348
 6985TIP3    H142446   3.230   2.809   1.599  0.6515  0.3549 -0.7246
 6985TIP3    H242447   3.250   2.663   1.563 -0.7033  0.1121 -0.5460
 6986TIP3   OH242448   6.848   0.793  11.782  0.0160 -0.3661 -0.6350
 6986TIP3    H142449   6.939   0.800  11.811  0.1975 -0.7865 -1.0943
 6986TIP3    H242450   6.799   0.845  11.846  0.2746 -2.1212  1.1052
 6987TIP3   OH242451   0.472   5.367   6.734 -0.2210 -0.0687 -0.7473
 6987TIP3    H142452   0.462   5.293   6.675  0.0694  0.5155 -1.5431
 6987TIP3    H242453   0.387   5.411   6.730  0.3486  0.9818 -2.1466
 6988TIP3   OH242454   3.487   4.425  13.848 -0.5145 -0.2664  0.3214
 6988TIP3    H142455   3.466   4.518  13.839 -1.0664 -0.2937  1.2170
 6988TIP3    H242456   3.420   4.380  13.796 -0.4456 -0.1826  0.1577
 6989TIP3   OH242457   1.201   2.832   3.901  0.2124  0.2363 -0.0959
 6989TIP3    H142458   1.271   2.796   3.846  0.5372  0.3285  0.2611
 6989TIP3    H242459   1.175   2.759   3.958 -1.4017 -0.4541 -1.5987
 6990TIP3   OH242460   2.628   2.985  13.353  0.4072 -0.4449  0.0823
 6990TIP3    H142461   2.664   2.962  13.439  4.0263  0.6796 -0.9730
 6990TIP3    H242462   2.670   3.068  13.331 -1.0996 -0.2451 -2.4267
 6991TIP3   OH242463   3.344   4.086  16.671  0.7816 -0.1343  0.5332
 6991TIP3    H142464   3.289   4.043  16.735  2.2675 -0.2516  1.8041
 6991TIP3    H242465   3.313   4.177  16.670 -0.3434 -0.5069  0.1386
 6992TIP3   OH242466   1.456   4.851  11.682 -0.2013  0.3544 -0.3905
 6992TIP3    H142467   1.519   4.873  11.613  0.3889 -0.3346 -0.0910
 6992TIP3    H242468   1.378   4.901  11.660  0.2818  0.8425 -1.0553
 6993TIP3   OH242469   1.838   1.510   0.611  0.3328 -0.0807  0.4118
 6993TIP3    H142470   1.828   1.587   0.668  1.5847  0.9373 -0.6575
 6993TIP3    H242471   1.777   1.525   0.539  2.5232  1.4594 -1.2925
 6994TIP3   OH242472   6.208   1.037   6.085  0.7000  0.0317  0.3364
 6994TIP3    H142473   6.180   1.018   5.996  3.1292  0.4984 -0.5994
 6994TIP3    H242474   6.193   0.956   6.133 -3.8074  0.6943  0.5039
 6995TIP3   OH242475   1.301   3.489  16.625  0.6519 -0.0020  0.3085
 6995TIP3    H142476   1.279   3.430  16.553  1.8769 -1.4289  1.0716
 6995TIP3    H242477   1.390   3.518  16.606 -0.2021  2.4045 -0.5257
 6996TIP3   OH242478   5.265   1.374  13.509 -0.6549 -0.4665  0.2223
 6996TIP3    H142479   5.249   1.280  13.503 -2.5321 -0.1787  0.0234
 6996TIP3    H242480   5.225   1.411  13.430 -1.2717  0.6321  1.0180
 6997TIP3   OH242481   3.807   2.780  15.409  0.0022 -0.0683  0.1070
 6997TIP3    H142482   3.897   2.805  15.427 -0.5120  2.3204 -0.3489
 6997TIP3    H242483   3.802   2.773  15.314  0.0433 -1.7670  0.1972
 6998TIP3   OH242484   3.372   1.030   0.642  0.4793  0.0690 -0.6539
 6998TIP3    H142485   3.446   0.982   0.605  1.4857  0.3245  0.9367
 6998TIP3    H242486   3.348   1.093   0.574  0.0596 -1.6644 -2.1931
 6999TIP3   OH242487   2.138   0.108   3.217  0.1930  0.5816 -0.2178
 6999TIP3    H142488   2.185   0.025   3.222  0.7455  0.8032 -1.2835
 6999TIP3    H242489   2.206   0.173   3.199 -0.1595  1.3615  1.1663
 7000TIP3   OH242490   4.797   4.507   4.197 -0.3997 -0.8613 -0.2438
 7000TIP3    H142491   4.886   4.476   4.217  0.9069  1.7639 -1.4778
 7000TIP3    H242492   4.745   4.427   4.190  1.7155 -2.4685  1.1193
 7001TIP3   OH242493   4.746   6.657  16.450 -0.5765  0.1158  0.0682
 7001TIP3    H142494   4.730   6.641  16.543  3.1604 -0.7514  0.7467
 7001TIP3    H242495   4.674   6.612  16.405 -1.7066 -0.6817  2.4852
 7002TIP3   OH242496   1.107   3.026  15.393 -0.3757  0.3440 -0.1251
 7002TIP3    H142497   1.146   3.047  15.308  0.8546  0.1061  0.3530
 7002TIP3    H242498   1.014   3.015  15.375  0.0605 -1.3108 -1.7620
 7003TIP3   OH242499   0.538   3.635   4.884 -0.5294 -0.4015 -0.2536
 7003TIP3    H142500   0.548   3.724   4.916  1.8235 -0.7910  0.3087
 7003TIP3    H242501   0.448   3.630   4.852 -0.1847  2.6994 -2.0039
 7004TIP3   OH242502   3.928   4.877  15.334 -0.1974 -0.9484 -0.0257
 7004TIP3    H142503   3.856   4.840  15.285  0.1375  0.9839 -2.1366
 7004TIP3    H242504   3.900   4.966  15.356  1.6854  0.0799 -1.4405
 7005TIP3   OH242505   3.633   6.757   5.513  0.1907 -0.2222 -0.3184
 7005TIP3    H142506   3.635   6.700   5.590 -0.5525  0.3615  0.1550
 7005TIP3    H242507   3.722   6.754   5.479 -0.2235 -3.1194 -1.4202
 7006TIP3   OH242508   6.497   0.138   1.688  0.3094 -0.4559 -0.7676
 7006TIP3    H142509   6.546   0.070   1.732 -0.2327 -0.2239  0.2184
 7006TIP3    H242510   6.406   0.124   1.715 -0.0693 -0.4308 -1.9708
 7007TIP3   OH242511   4.860   3.280  14.146  0.5214 -0.2297  0.3783
 7007TIP3    H142512   4.877   3.219  14.073  0.5668  0.4116 -0.1573
 7007TIP3    H242513   4.784   3.242  14.191  0.3227 -0.4943 -0.1690
 7008TIP3   OH242514   5.943   3.122  11.370  0.1120  0.2763 -0.7517
 7008TIP3    H142515   5.977   3.174  11.442  0.7684  0.0259 -0.8663
 7008TIP3    H242516   5.958   3.176  11.292 -0.4316  0.4717 -0.7242
 7009TIP3   OH242517   1.917   4.404  14.649  0.2390  0.0452  0.1543
 7009TIP3    H142518   1.841   4.350  14.626  1.8408 -1.7301 -1.3532
 7009TIP3    H242519   1.980   4.389  14.578  2.8659 -0.3235  2.3790
 7010TIP3   OH242520   3.594   2.591   1.879  0.0266 -0.1207 -0.5977
 7010TIP3    H142521   3.637   2.515   1.917  1.6954  1.0598  0.0082
 7010TIP3    H242522   3.607   2.583   1.785  1.1646 -0.0446 -0.4538
 7011TIP3   OH242523   6.578   6.836   5.719  0.3597  0.1576  0.0083
 7011TIP3    H142524   6.517   6.899   5.759  1.4976  0.6134  1.0576
 7011TIP3    H242525   6.614   6.787   5.792  0.8634 -0.4768 -0.6527
 7012TIP3   OH242526   1.731   6.248  13.297  0.4421  0.1414 -0.4129
 7012TIP3    H142527   1.717   6.282  13.385  0.1438  1.1165 -0.8187
 7012TIP3    H242528   1.746   6.327  13.243  0.8780 -0.4511 -1.1818
 7013TIP3   OH242529   4.533   0.847   4.940  0.0280 -0.4579  0.2051
 7013TIP3    H142530   4.478   0.769   4.935 -0.8188  0.1851 -3.2408
 7013TIP3    H242531   4.604   0.831   4.877  0.7750  0.8933  0.6493
 7014TIP3   OH242532   3.214   4.038  13.514 -0.4021 -0.0701 -0.1535
 7014TIP3    H142533   3.264   4.040  13.596 -1.0251  0.4970  0.2246
 7014TIP3    H242534   3.150   3.968  13.525 -2.2653  1.6902  0.9552
 7015TIP3   OH242535   2.553   3.555  13.094  0.2409  0.2352  0.4265
 7015TIP3    H142536   2.575   3.548  13.001 -0.2703 -0.6761  0.3497
 7015TIP3    H242537   2.635   3.578  13.137  0.0206  3.0944 -0.4811
 7016TIP3   OH242538   3.028   1.581  13.155  0.4642 -0.3913 -1.0671
 7016TIP3    H142539   3.044   1.608  13.065  0.9629 -2.0149 -1.5077
 7016TIP3    H242540   3.013   1.487  13.149  0.3512 -0.5031  0.5336
 7017TIP3   OH242541   4.338   0.979   5.698 -0.5423  0.0222  0.2649
 7017TIP3    H142542   4.268   0.971   5.634 -1.4549 -0.5564  1.2931
 7017TIP3    H242543   4.365   1.071   5.693  0.2217 -0.2574 -1.7241
 7018TIP3   OH242544   6.554   5.926   2.509  0.7773 -0.2398  0.9858
 7018TIP3    H142545   6.575   6.013   2.543 -3.3866  1.0216  0.9481
 7018TIP3    H242546   6.563   5.868   2.585  0.8789  0.7583  1.7542
 7019TIP3   OH242547   3.057   2.628  10.960  0.1704 -0.1517  0.6072
 7019TIP3    H142548   3.123   2.652  10.895  0.8976 -1.4104  0.8293
 7019TIP3    H242549   3.010   2.554  10.921 -1.6636  1.2151  0.1323
 7020TIP3   OH242550   0.697   5.997   1.515 -0.1554  0.3360 -0.0756
 7020TIP3    H142551   0.710   6.048   1.435  1.8631  0.8044  0.4977
 7020TIP3    H242552   0.617   5.947   1.499 -0.5989  1.5145 -1.7932
 7021TIP3   OH242553   0.263   0.647   4.704 -0.2372  0.1205  0.1901
 7021TIP3    H142554   0.268   0.734   4.744  0.0260  0.1132  0.1751
 7021TIP3    H242555   0.270   0.664   4.610 -2.1439  0.2601  0.0185
 7022TIP3   OH242556   2.333   1.469   1.192  0.3076 -0.2217  0.3527
 7022TIP3    H142557   2.344   1.421   1.274 -1.0525 -1.3867 -0.1166
 7022TIP3    H242558   2.245   1.507   1.198  0.5946  0.5460 -0.1378
 7023TIP3   OH242559   3.724   0.327  10.862 -0.2393 -0.1553 -0.1039
 7023TIP3    H142560   3.778   0.261  10.817 -0.4970 -0.5356  0.1392
 7023TIP3    H242561   3.696   0.386  10.792  2.4095  1.4599  0.0529
 7024TIP3   OH242562   1.279   4.718   4.617  0.0889 -0.2460 -0.3972
 7024TIP3    H142563   1.212   4.718   4.685  0.0434  0.3092 -0.4406
 7024TIP3    H242564   1.347   4.777   4.650  0.1036 -0.0367 -0.7980
 7025TIP3   OH242565   5.454   3.881   5.180  0.5105 -0.2440 -0.5784
 7025TIP3    H142566   5.485   3.969   5.200 -2.7554  0.8003  0.4577
 7025TIP3    H242567   5.412   3.851   5.261  1.5691 -2.8276 -0.8855
 7026TIP3   OH242568   0.318   5.646   0.695  0.1926  0.4552 -0.6767
 7026TIP3    H142569   0.329   5.738   0.718 -1.5783  1.2665 -2.7687
 7026TIP3    H242570   0.376   5.633   0.619  0.9445 -0.3707  0.0129
 7027TIP3   OH242571   4.505   6.309   3.915 -0.1465 -0.9984  0.0321
 7027TIP3    H142572   4.555   6.227   3.922  0.3177 -0.7144  0.0859
 7027TIP3    H242573   4.416   6.281   3.895  0.2145 -1.4864 -0.9539
 7028TIP3   OH242574   1.663   3.894   0.481  0.8972 -0.2123  0.2010
 7028TIP3    H142575   1.603   3.940   0.421 -0.3913 -0.7473  1.0229
 7028TIP3    H242576   1.742   3.880   0.430 -0.8127 -2.4166 -2.1715
 7029TIP3   OH242577   2.039   1.770  15.815 -0.1091  0.1528 -0.5154
 7029TIP3    H142578   2.056   1.788  15.722 -1.2711  3.0652 -0.2822
 7029TIP3    H242579   1.944   1.771  15.822 -0.0565 -0.9489  0.5924
 7030TIP3   OH242580   4.358   0.420  11.114  0.0136 -0.3851 -0.3912
 7030TIP3    H142581   4.331   0.332  11.090  1.1111 -0.9991  0.5405
 7030TIP3    H242582   4.277   0.464  11.140 -0.6147 -0.9352 -1.3687
 7031TIP3   OH242583   6.558   6.475  14.768 -0.1816 -0.2884  0.1402
 7031TIP3    H142584   6.514   6.484  14.683  0.4545  0.4143 -0.1308
 7031TIP3    H242585   6.487   6.464  14.831 -0.6970 -0.1004 -0.3960
 7032TIP3   OH242586   1.097   6.212  11.172 -0.4384  0.4228  0.1479
 7032TIP3    H142587   1.017   6.173  11.208 -1.9760  0.9828 -2.4605
 7032TIP3    H242588   1.101   6.181  11.082  0.6978  2.7056 -0.6635
 7033TIP3   OH242589   2.444   4.463  12.102  0.2202 -0.0973  1.2390
 7033TIP3    H142590   2.502   4.417  12.042  0.1257  0.7085  0.5090
 7033TIP3    H242591   2.481   4.552  12.108 -0.2734  0.0822  1.6680
 7034TIP3   OH242592   2.959   4.095  16.474  0.3907  0.9468  0.2175
 7034TIP3    H142593   2.942   4.123  16.565 -2.3070 -1.0715  0.4431
 7034TIP3    H242594   2.886   4.131  16.424  0.1799 -0.5103 -0.5676
 7035TIP3   OH242595   2.021   0.483   3.161  0.0725 -0.4181 -0.4970
 7035TIP3    H142596   1.972   0.415   3.206  0.7518 -0.5363  0.0778
 7035TIP3    H242597   2.085   0.514   3.225 -1.1195  1.7556 -0.2445
 7036TIP3   OH242598   4.427   4.488   0.301  0.2692  0.2175 -0.2042
 7036TIP3    H142599   4.379   4.510   0.381  1.7640  1.2324  0.4606
 7036TIP3    H242600   4.508   4.449   0.332  0.3353 -0.5315 -1.2773
 7037TIP3   OH242601   5.461   4.204  13.922 -0.4895 -0.2141 -0.2614
 7037TIP3    H142602   5.494   4.263  13.854 -1.9427 -0.1279 -0.9568
 7037TIP3    H242603   5.369   4.229  13.931 -0.5905 -0.9745  0.9690
 7038TIP3   OH242604   3.955   6.627   2.364  0.1336 -0.5576  0.6557
 7038TIP3    H142605   3.998   6.608   2.448  0.0789  3.0697  1.6722
 7038TIP3    H242606   4.024   6.615   2.299  1.3993  0.4635  1.7246
 7039TIP3   OH242607   5.115   0.144  15.021 -0.2867 -0.1906  0.6300
 7039TIP3    H142608   5.068   0.156  15.104  1.1505  0.2551  1.4245
 7039TIP3    H242609   5.108   0.050  15.003 -0.5979 -0.3024  1.2811
 7040TIP3   OH242610   2.661   2.902  15.715  0.2441 -0.4456 -0.2095
 7040TIP3    H142611   2.627   2.848  15.644 -0.1399 -1.2386  0.5642
 7040TIP3    H242612   2.659   2.991  15.679  0.3968 -0.8616 -1.3106
 7041TIP3   OH242613   3.993   6.713   4.808  0.2592 -0.6209 -0.2688
 7041TIP3    H142614   4.004   6.649   4.738  0.6565  0.1032 -0.8836
 7041TIP3    H242615   3.900   6.711   4.829 -0.5565  1.4600 -3.0945
 7042TIP3   OH242616   3.728   6.000  16.563 -0.5038  0.2060  0.2820
 7042TIP3    H142617   3.721   6.076  16.505 -0.5052  0.8714  1.1402
 7042TIP3    H242618   3.821   5.992  16.581 -0.5038  0.0030  0.1962
 7043TIP3   OH242619   0.783   6.483   4.676 -0.1653 -0.4351 -0.7848
 7043TIP3    H142620   0.785   6.424   4.600  2.6024  0.1082 -1.2178
 7043TIP3    H242621   0.860   6.458   4.728 -1.1968  0.1741  1.1377
 7044TIP3   OH242622   0.612   5.240  11.278  0.4564  0.5571  0.3502
 7044TIP3    H142623   0.531   5.229  11.229  0.5220  0.8187  0.1795
 7044TIP3    H242624   0.677   5.191  11.227  0.1137 -0.8792  1.2690
 7045TIP3   OH242625   5.794   3.032  13.524 -0.2716  0.1981 -0.4667
 7045TIP3    H142626   5.743   3.050  13.446 -1.4285 -1.2029 -0.0870
 7045TIP3    H242627   5.730   3.035  13.596  0.5513  0.3592  0.2765
 7046TIP3   OH242628   2.678   2.018  12.125  0.7803 -0.3663 -0.4707
 7046TIP3    H142629   2.602   2.071  12.148  2.3150  1.3060  1.1696
 7046TIP3    H242630   2.653   1.928  12.147 -0.6042  0.1877  0.3486
 7047TIP3   OH242631   0.362   5.846   0.910  0.4619 -0.5127  0.3808
 7047TIP3    H142632   0.283   5.857   0.963  0.9747 -0.0130  1.0654
 7047TIP3    H242633   0.368   5.925   0.858  0.1046 -0.8875 -0.2443
 7048TIP3   OH242634   1.860   4.326   4.441 -0.2032  0.6550 -0.2270
 7048TIP3    H142635   1.907   4.302   4.522 -1.3067 -0.1374  0.1969
 7048TIP3    H242636   1.907   4.404   4.409  1.3961 -0.0980  0.1674
 7049TIP3   OH242637   3.429   3.039   6.097 -0.3242  0.4195 -0.2953
 7049TIP3    H142638   3.347   2.998   6.069 -0.3266  0.2458 -0.0355
 7049TIP3    H242639   3.493   2.968   6.096 -0.0391  0.6793 -1.0723
 7050TIP3   OH242640   1.049   4.207   0.115  0.6239  0.5389 -0.2021
 7050TIP3    H142641   0.995   4.221   0.192  2.0038 -1.0640  1.1553
 7050TIP3    H242642   1.013   4.128   0.075  1.4012 -0.0531  0.2365
 7051TIP3   OH242643   5.212   4.923   0.796 -0.0978  0.2745  0.4288
 7051TIP3    H142644   5.169   4.924   0.711 -2.0899  3.7650  1.3006
 7051TIP3    H242645   5.184   4.841   0.836  1.1292 -1.6149 -2.2353
 7052TIP3   OH242646   0.206   6.546   4.330 -0.4089 -0.2604  0.2011
 7052TIP3    H142647   0.286   6.540   4.381 -0.5760 -0.0110  0.4991
 7052TIP3    H242648   0.150   6.606   4.380  0.4023  2.1376 -1.5772
 7053TIP3   OH242649   3.262   5.191  10.983  0.9645 -0.1264  0.2610
 7053TIP3    H142650   3.357   5.181  10.987  1.0348  0.7294  1.1894
 7053TIP3    H242651   3.245   5.276  11.024 -0.0713  0.5808 -1.5204
 7054TIP3   OH242652   2.610   0.495  13.582 -0.3216 -0.1451 -0.0710
 7054TIP3    H142653   2.681   0.446  13.540 -1.0475 -1.3672  0.0936
 7054TIP3    H242654   2.558   0.429  13.627 -0.8153  0.8910  0.9321
 7055TIP3   OH242655   0.498   1.232   5.258 -0.6825 -0.0420 -0.0398
 7055TIP3    H142656   0.467   1.194   5.340 -0.8666 -1.0544 -0.5633
 7055TIP3    H242657   0.592   1.246   5.273 -0.8430  0.4075  0.5717
 7056TIP3   OH242658   1.673   6.167   3.917  0.1114 -0.4011 -0.0889
 7056TIP3    H142659   1.642   6.080   3.940 -0.8742  0.3863  1.8486
 7056TIP3    H242660   1.749   6.182   3.973 -1.5599  1.0754  1.9631
 7057TIP3   OH242661   6.854   1.968  15.735 -0.3786 -0.5351 -0.1460
 7057TIP3    H142662   6.813   1.894  15.689  0.1903 -0.6597 -0.4672
 7057TIP3    H242663   6.919   1.928  15.792  2.2894 -0.1764 -2.7079
 7058TIP3   OH242664   6.177   0.338  16.891 -0.0956  0.0582  0.1959
 7058TIP3    H142665   6.174   0.408  16.956  1.0820 -0.9232  1.3832
 7058TIP3    H242666   6.256   0.357  16.840 -0.5726  0.3757 -0.4381
 7059TIP3   OH242667   3.665   0.170   1.088  0.0929 -0.8266  0.4542
 7059TIP3    H142668   3.757   0.178   1.062  0.2121  1.3536  1.3044
 7059TIP3    H242669   3.662   0.205   1.177 -1.6263 -0.4001  0.2711
 7060TIP3   OH242670   2.635   2.905  17.070 -0.4732 -0.2383  0.3693
 7060TIP3    H142671   2.715   2.931  17.025 -0.5814  1.4276  1.0537
 7060TIP3    H242672   2.664   2.876  17.156 -0.4428 -1.6275 -0.0811
 7061TIP3   OH242673   0.426   0.886   3.764  1.2328 -0.1856 -0.3793
 7061TIP3    H142674   0.425   0.807   3.711  1.7552 -0.3358 -0.1623
 7061TIP3    H242675   0.361   0.943   3.722 -1.7091 -1.9868  1.4228
 7062TIP3   OH242676   1.461   6.793   5.162  0.3469  0.2587  0.1762
 7062TIP3    H142677   1.490   6.883   5.147  1.6126  0.3648  2.7699
 7062TIP3    H242678   1.368   6.800   5.181  0.2610  0.9113 -0.4793
 7063TIP3   OH242679   0.066   2.770  15.588 -0.3924 -0.1136  0.8754
 7063TIP3    H142680   0.119   2.691  15.583 -0.9062 -0.3984 -0.4854
 7063TIP3    H242681   0.039   2.776  15.680  1.7345 -0.1010  1.5575
 7064TIP3   OH242682   0.606   0.268   4.316  0.5611 -0.2673 -0.5324
 7064TIP3    H142683   0.686   0.320   4.312 -0.6306  1.7100  0.1098
 7064TIP3    H242684   0.604   0.234   4.405 -0.4224  1.6297  0.2197
 7065TIP3   OH242685   0.623   0.935  10.279 -0.1542  0.3942  0.2403
 7065TIP3    H142686   0.715   0.917  10.259  0.3719  4.4128 -1.9395
 7065TIP3    H242687   0.624   0.968  10.369  0.3220 -0.6060  0.6187
 7066TIP3   OH242688   6.773   5.296   3.336 -0.0955 -0.4734 -0.1441
 7066TIP3    H142689   6.831   5.231   3.376  0.5580  0.1640 -0.0445
 7066TIP3    H242690   6.781   5.279   3.242  1.2857  0.4363 -0.2260
 7067TIP3   OH242691   4.913   3.304  10.547 -0.2279  0.6311 -0.2761
 7067TIP3    H142692   4.968   3.263  10.613  0.4859 -0.0109 -1.2467
 7067TIP3    H242693   4.954   3.389  10.531  1.1311 -0.2347 -1.7149
 7068TIP3   OH242694   4.517   0.129   5.820 -0.2179 -0.0021 -0.0151
 7068TIP3    H142695   4.583   0.192   5.848 -0.6600 -0.1088  1.3218
 7068TIP3    H242696   4.473   0.102   5.901 -1.1673 -0.7514 -0.7545
 7069TIP3   OH242697   6.389   2.274  15.338 -0.0778  0.2434 -0.7355
 7069TIP3    H142698   6.411   2.360  15.373 -0.4343  0.6490 -1.4831
 7069TIP3    H242699   6.412   2.279  15.245 -0.9012 -0.1744 -0.9761
 7070TIP3   OH242700   0.103   3.811  16.914 -0.0862 -0.2645  0.1987
 7070TIP3    H142701   0.128   3.901  16.891  0.3099 -0.6033 -0.7642
 7070TIP3    H242702   0.110   3.763  16.831  0.8865 -1.4416  0.9378
 7071TIP3   OH242703   3.060   6.155   2.684  0.0882  0.7960 -0.1611
 7071TIP3    H142704   3.007   6.162   2.764 -0.2465  2.1171 -0.4802
 7071TIP3    H242705   3.056   6.062   2.661 -2.1438  0.8443 -0.1935
 7072TIP3   OH242706   6.584   1.111  14.483  0.3772  0.0585  0.0149
 7072TIP3    H142707   6.543   1.047  14.425 -1.9752 -0.7209  2.3478
 7072TIP3    H242708   6.512   1.146  14.535  2.3397  0.5855  2.5651
 7073TIP3   OH242709   0.689   6.473   5.755 -0.3856 -0.3423  0.5522
 7073TIP3    H142710   0.633   6.518   5.692  0.6833 -1.3249 -1.1832
 7073TIP3    H242711   0.628   6.429   5.814 -1.5245 -1.3800 -1.2808
 7074TIP3   OH242712   6.056   2.053   4.240 -0.1054  0.3178 -0.7081
 7074TIP3    H142713   6.078   2.036   4.148  0.4529 -0.3892 -0.4455
 7074TIP3    H242714   5.990   1.987   4.262  2.6486 -2.2518  0.5473
 7075TIP3   OH242715   1.991   1.538  11.027 -0.4866 -1.0022  0.0719
 7075TIP3    H142716   1.913   1.557  10.974 -0.7280 -2.4271 -0.1108
 7075TIP3    H242717   2.063   1.574  10.975 -1.0505  1.1790  0.6748
 7076TIP3   OH242718   4.996   1.741   3.482 -0.3272  0.3139 -0.0583
 7076TIP3    H142719   5.039   1.812   3.530  1.1286  0.2702 -1.2179
 7076TIP3    H242720   4.995   1.770   3.391  1.3843 -1.5687 -0.7724
 7077TIP3   OH242721   6.200   5.102   1.845  0.5144  0.3291  0.5038
 7077TIP3    H142722   6.229   5.132   1.759  0.7581  0.6272  0.6906
 7077TIP3    H242723   6.248   5.156   1.908  0.2180  0.2240  0.8272
 7078TIP3   OH242724   5.229   5.683   4.879  0.8052 -0.4491 -0.1999
 7078TIP3    H142725   5.219   5.776   4.860 -0.7868 -0.7861 -1.2390
 7078TIP3    H242726   5.139   5.649   4.880  1.3747 -2.0665 -0.4149
 7079TIP3   OH242727   2.161   6.755  15.939 -0.5853 -0.3744  0.1180
 7079TIP3    H142728   2.254   6.769  15.957 -0.6787 -1.4444  1.6005
 7079TIP3    H242729   2.139   6.825  15.876  1.1849 -0.0806 -0.2611
 7080TIP3   OH242730   0.636   5.810  16.758  0.3418 -0.1197 -0.6189
 7080TIP3    H142731   0.716   5.857  16.736 -0.0867  1.1210  0.3602
 7080TIP3    H242732   0.639   5.800  16.853 -0.1591 -1.0259 -0.6797
 7081TIP3   OH242733   1.773   0.786  15.017 -0.0383  0.3672 -0.6692
 7081TIP3    H142734   1.738   0.822  14.935 -2.9810  1.0371  0.7819
 7081TIP3    H242735   1.699   0.741  15.058  0.9030  1.3563  2.3696
 7082TIP3   OH242736   3.102   4.397   3.897  0.0718  0.0883  0.1423
 7082TIP3    H142737   3.034   4.461   3.917 -2.1500 -1.3449 -2.2832
 7082TIP3    H242738   3.161   4.442   3.837 -1.3620  0.0087 -1.3927
 7083TIP3   OH242739   4.450   0.447   1.592 -0.3816  0.4927  0.4411
 7083TIP3    H142740   4.421   0.371   1.641 -0.3857  0.6689  0.7114
 7083TIP3    H242741   4.374   0.471   1.538 -0.3215  0.2028  0.2249
 7084TIP3   OH242742   4.871   0.163   4.647 -0.2777  1.1322  0.2083
 7084TIP3    H142743   4.893   0.179   4.555  1.5969 -0.3222  0.3327
 7084TIP3    H242744   4.922   0.229   4.695 -1.1314  1.7880  0.2295
 7085TIP3   OH242745   3.023   6.382  13.297  0.3665 -0.0678 -0.1899
 7085TIP3    H142746   3.005   6.332  13.376 -0.6051 -0.4834 -0.6603
 7085TIP3    H242747   3.056   6.466  13.328  0.6100 -0.4656  0.6347
 7086TIP3   OH242748   2.599   1.584   2.076  0.9633 -1.0901 -0.0860
 7086TIP3    H142749   2.570   1.496   2.102 -0.3104 -1.6631 -3.0108
 7086TIP3    H242750   2.518   1.629   2.052  1.8468 -0.0812 -1.2744
 7087TIP3   OH242751   3.534   2.165   4.244 -0.3332 -0.2142 -0.2140
 7087TIP3    H142752   3.480   2.189   4.319 -0.5956 -0.1661 -0.4171
 7087TIP3    H242753   3.485   2.197   4.168 -1.7686 -3.2360 -0.6872
 7088TIP3   OH242754   1.301   1.435   2.903 -0.2303  0.3558 -0.5458
 7088TIP3    H142755   1.317   1.504   2.838 -0.2657  1.0032  0.1245
 7088TIP3    H242756   1.329   1.355   2.859  1.6758  1.0235 -0.6333
 7089TIP3   OH242757   5.806   5.810   2.945  0.4965  0.3075  0.4625
 7089TIP3    H142758   5.789   5.735   3.002  1.7739  0.4389  1.0569
 7089TIP3    H242759   5.899   5.802   2.923  0.5024  1.3859  0.0529
 7090TIP3   OH242760   0.160   5.994  16.023  0.1315  0.5003  0.1097
 7090TIP3    H142761   0.130   5.949  16.102 -4.1856 -0.9383 -1.9988
 7090TIP3    H242762   0.130   6.084  16.033 -1.2773  0.0920 -0.1642
 7091TIP3   OH242763   1.918   2.015   4.203 -0.3616  0.5458 -0.2372
 7091TIP3    H142764   1.836   2.055   4.230  0.3521  2.1851 -0.3871
 7091TIP3    H242765   1.931   2.046   4.113  0.6512  0.7348 -0.0414
 7092TIP3   OH242766   4.380   2.154  13.771  0.2697 -0.1809  0.3150
 7092TIP3    H142767   4.315   2.211  13.730  0.8293  1.2205  1.3159
 7092TIP3    H242768   4.329   2.081  13.806 -0.5087 -0.1287 -0.6597
 7093TIP3   OH242769   0.235   1.691  12.817 -0.1063  0.1725 -0.0416
 7093TIP3    H142770   0.176   1.766  12.818 -0.4623 -0.0916 -0.4594
 7093TIP3    H242771   0.199   1.630  12.881 -1.9057 -1.1607 -2.1386
 7094TIP3   OH242772   4.859   6.230  10.660  0.6364  0.0685  0.3455
 7094TIP3    H142773   4.882   6.156  10.715  0.8165  0.5293  0.9017
 7094TIP3    H242774   4.941   6.256  10.618  0.3171 -0.8997 -0.9280
 7095TIP3   OH242775   5.747   0.609  10.737 -0.0204 -0.2015 -0.0785
 7095TIP3    H142776   5.662   0.595  10.779 -0.5933 -1.3183 -1.5443
 7095TIP3    H242777   5.797   0.659  10.802 -2.1633  1.5551  0.3547
 7096TIP3   OH242778   0.745   0.028  13.608  0.0817 -0.5264 -0.1472
 7096TIP3    H142779   0.750   0.069  13.694  2.2437 -0.1728 -0.3740
 7096TIP3    H242780   0.651   0.018  13.591 -0.5409  2.5409  0.7818
 7097TIP3   OH242781   2.937   1.947  16.373  0.2214 -0.7198  0.4349
 7097TIP3    H142782   2.851   1.908  16.387 -0.6155  0.9466  0.1899
 7097TIP3    H242783   2.968   1.969  16.461 -0.4259  0.3039  0.4255
 7098TIP3   OH242784   5.704   1.524  15.772  0.0646 -0.3738  0.2251
 7098TIP3    H142785   5.634   1.472  15.813  0.1287 -2.2076 -1.8298
 7098TIP3    H242786   5.785   1.479  15.797  0.4658  0.9805  1.5027
 7099TIP3   OH242787   5.673   1.008   5.094 -0.4187  0.0181  0.1768
 7099TIP3    H142788   5.647   0.956   5.018  1.5579 -0.3408 -0.3213
 7099TIP3    H242789   5.692   0.944   5.162  0.6300  0.1322  0.0154
 7100TIP3   OH242790   4.335   2.885  16.080  0.2111 -0.4139 -0.2026
 7100TIP3    H142791   4.397   2.826  16.123  0.3765 -0.1183 -0.0353
 7100TIP3    H242792   4.254   2.873  16.129 -0.2536 -1.7997 -1.2484
 7101TIP3   OH242793   0.920   4.778   2.499  0.0242 -0.4740  0.6894
 7101TIP3    H142794   0.992   4.745   2.445 -0.3948  0.8722 -0.7649
 7101TIP3    H242795   0.873   4.699   2.526  0.1703 -1.2074 -1.0452
 7102TIP3   OH242796   3.806   5.078  10.414  0.2253  0.1882  0.2457
 7102TIP3    H142797   3.758   5.050  10.492  2.0126  2.0286  2.1379
 7102TIP3    H242798   3.775   5.167  10.397 -0.7977 -0.4816 -1.7968
 7103TIP3   OH242799   1.599   4.180  12.843 -0.0990  0.0476 -0.4756
 7103TIP3    H142800   1.527   4.133  12.800 -0.5391 -0.7248  1.0288
 7103TIP3    H242801   1.587   4.271  12.818 -0.6628 -0.3009 -1.5148
 7104TIP3   OH242802   3.377   5.599  14.889  0.0450 -0.1971 -0.4718
 7104TIP3    H142803   3.349   5.666  14.951 -0.9696 -0.7031 -0.3617
 7104TIP3    H242804   3.460   5.632  14.854  0.1024  0.5905  0.3730
 7105TIP3   OH242805   3.242   3.447   1.018 -0.3793 -0.0700  0.0108
 7105TIP3    H142806   3.327   3.463   0.978  0.6766 -1.9724  1.3852
 7105TIP3    H242807   3.183   3.435   0.943  1.2245 -1.9997 -1.0536
 7106TIP3   OH242808   2.360   5.665   0.690  0.4920  0.1349  0.4816
 7106TIP3    H142809   2.269   5.651   0.663  0.9531 -0.6319 -0.7651
 7106TIP3    H242810   2.357   5.663   0.785 -1.0582  1.9622  0.5388
 7107TIP3   OH242811   0.194   5.347  12.545  0.6272  0.4333  0.0532
 7107TIP3    H142812   0.206   5.276  12.481 -0.0205  0.9046 -0.6087
 7107TIP3    H242813   0.245   5.319  12.621  1.0563 -0.3547 -0.5017
 7108TIP3   OH242814   0.914   5.150  15.576 -0.4935  0.3192 -0.2253
 7108TIP3    H142815   0.943   5.060  15.591  0.4655  0.0266 -3.1116
 7108TIP3    H242816   0.995   5.202  15.578 -0.5951  0.5811 -1.5596
 7109TIP3   OH242817   4.872   6.313  14.226 -0.3025  0.2582  0.0576
 7109TIP3    H142818   4.877   6.269  14.310 -1.4804 -0.6458 -0.2999
 7109TIP3    H242819   4.957   6.354  14.214  0.1548 -0.2842  1.3136
 7110TIP3   OH242820   6.349   4.550  14.171  0.0386 -0.2960 -0.0417
 7110TIP3    H142821   6.345   4.456  14.191  1.7444 -0.1051  1.4530
 7110TIP3    H242822   6.285   4.589  14.231  0.2151 -0.3961  0.2157
 7111TIP3   OH242823   0.067   1.299  12.868 -0.3081 -0.1161  0.0970
 7111TIP3    H142824   0.031   1.218  12.831 -2.5502  1.1017 -0.5671
 7111TIP3    H242825   0.112   1.271  12.947 -1.6461 -1.9441  0.2724
 7112TIP3   OH242826   0.808   0.549  12.597 -0.2681 -0.6737 -0.0027
 7112TIP3    H142827   0.861   0.605  12.539  0.0290 -0.1505  0.7508
 7112TIP3    H242828   0.830   0.579  12.685 -0.7968 -1.3844  0.3800
 7113TIP3   OH242829   3.265   2.436  14.068 -0.3954 -0.6399  0.2424
 7113TIP3    H142830   3.255   2.348  14.030 -0.6302 -0.9028  0.8945
 7113TIP3    H242831   3.261   2.495  13.993 -0.1821 -1.1909 -0.2113
 7114TIP3   OH242832   3.279   3.803  15.273 -0.2011  0.4664 -0.1566
 7114TIP3    H142833   3.277   3.777  15.181  1.1799  0.5665 -0.2456
 7114TIP3    H242834   3.197   3.770  15.310 -0.1508 -0.7948 -1.1026
 7115TIP3   OH242835   0.538   3.965  11.105  0.3306 -0.1070  0.2077
 7115TIP3    H142836   0.605   4.031  11.089  0.5260 -0.1997  0.6144
 7115TIP3    H242837   0.549   3.943  11.198  0.6487 -1.1362 -0.0658
 7116TIP3   OH242838   4.281   1.514  14.282  0.3283  0.0152 -0.2908
 7116TIP3    H142839   4.245   1.432  14.248 -0.0136 -0.9685  2.1976
 7116TIP3    H242840   4.369   1.519  14.244  0.6806 -1.9994  0.1325
 7117TIP3   OH242841   5.236   3.360  11.327 -0.2063  0.6045  0.5031
 7117TIP3    H142842   5.242   3.382  11.234 -0.1459  1.3764  0.6811
 7117TIP3    H242843   5.182   3.282  11.330  0.8636 -0.1970 -0.2820
 7118TIP3   OH242844   0.093   6.255   1.460 -0.1885 -0.3967  0.3878
 7118TIP3    H142845   0.178   6.297   1.471 -0.3520 -0.3130  1.4093
 7118TIP3    H242846   0.106   6.192   1.389  0.2253  0.8936 -0.7265
 7119TIP3   OH242847   1.570   4.446  11.147 -0.3352  0.2561 -0.3364
 7119TIP3    H142848   1.522   4.407  11.220 -0.5117  2.5860  0.8869
 7119TIP3    H242849   1.640   4.384  11.129  0.3383  0.0396  2.5479
 7120TIP3   OH242850   3.798   2.535   4.049  0.4262 -0.0237 -0.3048
 7120TIP3    H142851   3.714   2.573   4.023 -0.2687  0.1854  1.9985
 7120TIP3    H242852   3.853   2.542   3.971 -0.8432  2.3410 -1.0795
 7121TIP3   OH242853   5.736   0.468  15.437  0.0535  0.1417 -0.4996
 7121TIP3    H142854   5.646   0.499  15.439  0.4988  1.4829  0.0683
 7121TIP3    H242855   5.771   0.500  15.354  0.3616  0.7064 -0.1550
 7122TIP3   OH242856   5.280   5.853   0.855  0.4648 -0.0290  0.0136
 7122TIP3    H142857   5.329   5.813   0.784  1.6996  0.6051  0.4740
 7122TIP3    H242858   5.262   5.942   0.825 -1.9296 -0.7311 -0.8474
 7123TIP3   OH242859   0.125   5.928  14.218  0.7948  0.4892  0.0079
 7123TIP3    H142860   0.132   6.021  14.195 -0.3189  0.7245  0.5744
 7123TIP3    H242861   0.129   5.927  14.314 -0.3022  0.0592  0.0523
 7124TIP3   OH242862   0.949   4.173   2.705  0.3110  0.6466  0.0177
 7124TIP3    H142863   0.975   4.243   2.764 -1.4121  0.4065  1.1611
 7124TIP3    H242864   0.854   4.182   2.697  0.2115 -0.7573 -0.8558
 7125TIP3   OH242865   0.665   3.456  16.480 -0.5617  0.8032  0.0634
 7125TIP3    H142866   0.667   3.363  16.503  0.3983  0.5791 -0.8293
 7125TIP3    H242867   0.581   3.468  16.436  0.0234 -0.0741 -1.3994
 7126TIP3   OH242868   5.551   0.313   2.573 -0.0206  0.2145 -0.2761
 7126TIP3    H142869   5.516   0.402   2.583 -1.5745 -0.2955 -0.8412
 7126TIP3    H242870   5.518   0.265   2.648 -0.1507 -0.1633 -0.5691
 7127TIP3   OH242871   1.831   4.867   5.724 -0.7049 -0.0668  0.0469
 7127TIP3    H142872   1.912   4.917   5.736 -1.8516  1.5156  1.6857
 7127TIP3    H242873   1.836   4.798   5.790 -0.3077 -0.5482 -0.4724
 7128TIP3   OH242874   0.150   5.231  15.103 -0.3498 -0.8590  0.1142
 7128TIP3    H142875   0.099   5.150  15.108  0.2879 -1.1890  1.8903
 7128TIP3    H242876   0.104   5.291  15.161  0.6965 -0.8452  0.9584
 7129TIP3   OH242877   2.909   6.245  15.751  0.5230  0.1051  0.3042
 7129TIP3    H142878   2.941   6.186  15.820  0.8245 -0.2887 -0.1628
 7129TIP3    H242879   2.984   6.255  15.692 -0.2768 -1.1157 -1.0012
 7130TIP3   OH242880   1.872   5.256   5.143  0.0320  0.0143 -0.1324
 7130TIP3    H142881   1.913   5.342   5.134 -0.6833  0.5365  1.2888
 7130TIP3    H242882   1.943   5.199   5.173  0.2505  0.3916  0.0843
 7131TIP3   OH242883   4.736   4.956  14.492  0.2839 -0.2185  0.1238
 7131TIP3    H142884   4.704   4.894  14.426  0.6139  1.3029 -1.5519
 7131TIP3    H242885   4.725   4.910  14.575 -0.7554 -1.9804 -0.9127
 7132TIP3   OH242886   0.657   2.238  12.330 -0.1740  0.2462  0.3141
 7132TIP3    H142887   0.737   2.187  12.317 -0.7955 -0.3430 -1.3834
 7132TIP3    H242888   0.686   2.315  12.379  1.5212  0.2878 -0.6666
 7133TIP3   OH242889   5.310   0.039  12.114 -0.5405 -0.1288 -0.1401
 7133TIP3    H142890   5.357   0.049  12.031 -1.5042 -0.9677 -0.8094
 7133TIP3    H242891   5.291   0.128  12.141  0.9351  0.2168 -0.1239
 7134TIP3   OH242892   4.254   2.859  16.479  0.5216  0.1289 -0.4247
 7134TIP3    H142893   4.276   2.894  16.565 -0.3571 -1.3970  0.4639
 7134TIP3    H242894   4.253   2.764  16.491  0.1242 -0.1051 -2.0502
 7135TIP3   OH242895   0.394   1.009  10.662 -0.9009  0.4246  0.0801
 7135TIP3    H142896   0.435   1.006  10.748  0.5951  3.3946 -0.3883
 7135TIP3    H242897   0.467   1.021  10.601 -1.8877 -1.8826 -1.7057
 7136TIP3   OH242898   4.331   3.273   1.536  0.1260 -0.0563 -0.0383
 7136TIP3    H142899   4.404   3.334   1.548  0.9688 -1.3247  1.6880
 7136TIP3    H242900   4.367   3.201   1.485 -0.4208  0.0771 -0.6421
 7137TIP3   OH242901   3.041   6.060  14.502 -0.3197  0.0209  0.1136
 7137TIP3    H142902   2.999   5.978  14.529  0.7064 -0.0786  1.5151
 7137TIP3    H242903   3.026   6.121  14.574  1.0972  0.2580  0.2466
 7138TIP3   OH242904   1.442   0.256   2.083  0.0079 -0.0785  0.1245
 7138TIP3    H142905   1.406   0.168   2.072  0.1997 -0.3188  1.3079
 7138TIP3    H242906   1.536   0.246   2.066 -0.0788  0.0370 -0.4255
 7139TIP3   OH242907   6.267   3.812  13.412  0.4501  0.3580 -0.3841
 7139TIP3    H142908   6.258   3.907  13.422  2.3716  0.3813  2.4106
 7139TIP3    H242909   6.317   3.802  13.331  0.0954  1.7265 -0.8043
 7140TIP3   OH242910   1.465   0.507   3.053  0.0851  0.2554 -0.6183
 7140TIP3    H142911   1.425   0.472   2.973 -1.0693 -0.2024  0.1263
 7140TIP3    H242912   1.412   0.583   3.075 -1.3255 -1.1487  1.1388
 7141TIP3   OH242913   0.717   3.106   5.615  0.2326  0.0111 -0.2723
 7141TIP3    H142914   0.779   3.124   5.686 -1.0943 -0.4060  1.0244
 7141TIP3    H242915   0.772   3.070   5.545  1.4431 -0.4438  0.8666
 7142TIP3   OH242916   4.746   1.737   4.428 -0.0736 -0.7209  0.2565
 7142TIP3    H142917   4.788   1.787   4.358 -0.3258  0.0619  0.6468
 7142TIP3    H242918   4.738   1.800   4.500 -0.9993 -1.1401  0.5325
 7143TIP3   OH242919   4.731   3.743   3.811 -0.1293 -0.1834 -0.2115
 7143TIP3    H142920   4.790   3.668   3.806 -1.4945 -1.4723  1.5194
 7143TIP3    H242921   4.784   3.817   3.783  2.0066 -1.4257  0.2840
 7144TIP3   OH242922   4.185   1.206  11.052  0.1590  0.2730  0.6681
 7144TIP3    H142923   4.272   1.173  11.078  0.4436  0.9493  0.6040
 7144TIP3    H242924   4.131   1.195  11.130  0.7074  1.2272  1.1957
 7145TIP3   OH242925   6.334   3.360  12.026 -0.2588 -0.6139 -0.4839
 7145TIP3    H142926   6.404   3.332  11.968 -0.6665  0.1013 -1.3389
 7145TIP3    H242927   6.369   3.346  12.114  0.3705 -1.6874 -0.8916
 7146TIP3   OH242928   5.776   4.042  16.695 -0.2397 -0.5236 -0.5228
 7146TIP3    H142929   5.705   4.072  16.639 -1.0411 -1.2817  0.0489
 7146TIP3    H242930   5.797   4.118  16.750  0.2267  0.0715 -1.5004
 7147TIP3   OH242931   1.285   5.006  14.514 -0.0206 -0.0075 -0.3566
 7147TIP3    H142932   1.194   5.005  14.486  0.2902 -0.3651 -1.4124
 7147TIP3    H242933   1.326   4.935  14.465  0.6717 -0.3308  0.6591
 7148TIP3   OH242934   1.593   5.911  12.705 -0.3500  0.0941  0.1176
 7148TIP3    H142935   1.594   5.815  12.698  0.4450  0.0902  0.1783
 7148TIP3    H242936   1.529   5.929  12.773 -2.0341 -0.2864 -1.3121
 7149TIP3   OH242937   3.451   2.570   6.193  0.4631 -0.2056 -0.3937
 7149TIP3    H142938   3.426   2.597   6.282  0.7912 -3.1459  0.7054
 7149TIP3    H242939   3.547   2.573   6.193  0.4421  0.7656 -1.0176
 7150TIP3   OH242940   2.917   4.238   4.045  0.2504  0.3614  0.4802
 7150TIP3    H142941   2.959   4.200   4.122  0.6955  1.4801  0.8066
 7150TIP3    H242942   2.989   4.257   3.985 -0.0146  0.2532  0.1227
 7151TIP3   OH242943   6.593   4.612   2.889 -0.1735 -0.5018  0.3666
 7151TIP3    H142944   6.636   4.526   2.893 -0.5231 -0.6903  0.1102
 7151TIP3    H242945   6.505   4.593   2.856  0.5275  0.2307 -2.1923
 7152TIP3   OH242946   0.579   6.463  17.107 -0.3901 -0.2306  0.3972
 7152TIP3    H142947   0.521   6.387  17.117 -0.3258 -0.1329  1.6806
 7152TIP3    H242948   0.530   6.536  17.146  0.3431 -0.0229  0.9390
 7153TIP3   OH242949   6.394   0.101  14.288 -0.0527  0.0881 -0.3290
 7153TIP3    H142950   6.475   0.099  14.237  0.3640  0.4065  0.3020
 7153TIP3    H242951   6.345   0.025  14.257 -0.4520  1.0548 -2.1916
 7154TIP3   OH242952   5.080   6.671   3.296 -0.2115 -0.1058 -0.5105
 7154TIP3    H142953   5.093   6.747   3.353  0.5535  0.7611 -1.7794
 7154TIP3    H242954   5.002   6.628   3.330 -0.9848  1.5653 -0.0880
 7155TIP3   OH242955   3.421   3.483   1.657  0.0818  0.1804 -0.6783
 7155TIP3    H142956   3.457   3.492   1.569  0.7386  1.7759 -0.2783
 7155TIP3    H242957   3.498   3.479   1.714 -0.3503  0.2152 -0.0868
 7156TIP3   OH242958   6.454   5.889   0.435 -0.0660 -0.2918 -0.7342
 7156TIP3    H142959   6.401   5.953   0.482  3.0870  2.4420 -0.5168
 7156TIP3    H242960   6.395   5.853   0.369 -2.7729  0.7023  0.9755
 7157TIP3   OH242961   1.843   4.959  13.252 -0.0915 -0.3719  0.6360
 7157TIP3    H142962   1.934   4.962  13.281  0.2874 -0.2218 -0.5113
 7157TIP3    H242963   1.828   4.869  13.225  0.3360  0.0081 -0.9927
 7158TIP3   OH242964   2.078   4.527  13.712 -0.3427  0.1070  0.0996
 7158TIP3    H142965   2.149   4.478  13.753  0.3184  1.5988  0.8126
 7158TIP3    H242966   1.999   4.492  13.753  0.1960  0.4131  1.4533
 7159TIP3   OH242967   2.752   6.223   5.656 -0.2883 -0.7263  0.1616
 7159TIP3    H142968   2.795   6.218   5.570  0.1917 -0.9775  0.4115
 7159TIP3    H242969   2.665   6.185   5.641 -0.9611  1.0489 -0.6677
 7160TIP3   OH242970   0.029   3.714  12.335  0.4493  0.0534  0.0385
 7160TIP3    H142971   0.120   3.724  12.362  0.3464 -1.9304  1.2749
 7160TIP3    H242972  -0.016   3.787  12.378  1.5420  1.7038 -1.4482
 7161TIP3   OH242973   5.376   0.703   0.134 -0.1888  0.0587  0.3273
 7161TIP3    H142974   5.361   0.758   0.057  1.0654 -1.1053 -0.7958
 7161TIP3    H242975   5.461   0.730   0.167 -0.1579 -0.3098  0.5536
 7162TIP3   OH242976   1.947   1.177  15.710 -0.7132  0.2413 -0.9021
 7162TIP3    H142977   1.935   1.270  15.724  2.7605  0.6604  0.3271
 7162TIP3    H242978   1.924   1.137  15.794  2.3261  0.6772  0.2916
 7163TIP3   OH242979   5.994   5.054  13.895 -0.0795 -0.3169  0.8113
 7163TIP3    H142980   6.075   5.004  13.905  0.1837 -0.5675 -1.7946
 7163TIP3    H242981   6.018   5.144  13.916  0.4733 -0.6354  1.5569
 7164TIP3   OH242982   2.664   6.621   1.009 -0.3421 -0.0437  0.3915
 7164TIP3    H142983   2.709   6.640   1.092 -0.3012 -0.4992  0.4753
 7164TIP3    H242984   2.723   6.560   0.964 -1.0319 -0.8966  0.6386
 7165TIP3   OH242985   0.931   1.991  13.244  0.1252  0.2801  0.0048
 7165TIP3    H142986   1.010   2.027  13.284  0.3581  0.7266 -0.8333
 7165TIP3    H242987   0.894   1.934  13.311 -0.2754  2.0897  1.4057
 7166TIP3   OH242988   5.715   1.731   5.763 -0.0732 -0.1403  0.0657
 7166TIP3    H142989   5.694   1.642   5.734 -1.4417  0.5386 -1.1187
 7166TIP3    H242990   5.637   1.782   5.741  1.8353  2.0139 -2.1972
 7167TIP3   OH242991   0.305   1.900  11.476 -0.4422  0.0245  0.0793
 7167TIP3    H142992   0.223   1.865  11.512 -0.7708 -0.2900 -0.9568
 7167TIP3    H242993   0.298   1.886  11.382  0.3914  0.8715 -0.1226
 7168TIP3   OH242994   3.428   4.854  17.090 -0.3465  0.2389 -0.5107
 7168TIP3    H142995   3.448   4.769  17.050 -0.3506  0.3778 -0.8091
 7168TIP3    H242996   3.374   4.832  17.166  0.9031 -0.1395  0.2956
 7169TIP3   OH242997   1.934   2.512   5.425  0.3261 -0.4527  0.2920
 7169TIP3    H142998   1.965   2.516   5.516 -0.1767  0.2167  0.4459
 7169TIP3    H242999   2.005   2.469   5.378  0.3243 -1.3907  1.1122
 7170TIP3   OH243000   2.659   6.353  11.947 -0.3168  0.7398  0.5874
 7170TIP3    H143001   2.614   6.270  11.963 -0.6078  0.7466 -0.1464
 7170TIP3    H243002   2.589   6.416  11.930 -0.0713  0.9854  0.4803
 7171TIP3   OH243003   6.824   1.689   3.882  0.2433 -1.0075 -0.4289
 7171TIP3    H143004   6.857   1.704   3.971 -0.6078  0.2134 -0.2899
 7171TIP3    H243005   6.752   1.627   3.894 -0.5050 -0.0948 -0.1258
 7172TIP3   OH243006   0.258   4.090   4.472 -0.0975 -0.2291  0.1383
 7172TIP3    H143007   0.223   4.001   4.480 -1.2999  0.2855  0.8673
 7172TIP3    H243008   0.351   4.077   4.455  0.1682 -1.6183  2.2654
 7173TIP3   OH243009   1.688   1.939  11.298  0.0731 -0.1999 -0.0966
 7173TIP3    H143010   1.604   1.907  11.264 -1.3045 -1.0459  3.6268
 7173TIP3    H243011   1.752   1.876  11.266 -0.9506 -0.5431 -1.5948
 7174TIP3   OH243012   5.371   2.280  13.176 -0.0427  0.1379  0.0061
 7174TIP3    H143013   5.435   2.312  13.240 -1.2647  1.7715  0.4791
 7174TIP3    H243014   5.294   2.258  13.229 -0.5537  0.0459 -0.7651
 7175TIP3   OH243015   3.618   0.702   4.583  0.6012 -0.3156  0.3433
 7175TIP3    H143016   3.591   0.739   4.667 -0.1668 -0.2002  0.0499
 7175TIP3    H243017   3.713   0.693   4.591  0.9492  2.2844  0.2327
 7176TIP3   OH243018   1.270   0.107  15.664  0.5837 -0.4955  0.0581
 7176TIP3    H143019   1.208   0.070  15.601 -0.4968  0.1935  0.6942
 7176TIP3    H243020   1.234   0.084  15.750  1.0670  0.1491  0.4419
 7177TIP3   OH243021   5.041   6.271  17.108 -0.1227 -0.0541 -0.2583
 7177TIP3    H143022   4.967   6.306  17.159  0.6893 -0.2641  1.1346
 7177TIP3    H243023   5.114   6.271  17.170  0.4543 -2.1162 -0.8659
 7178TIP3   OH243024   2.025   6.276  16.385  0.1304 -0.4751 -0.0767
 7178TIP3    H143025   1.934   6.253  16.365  0.1501 -1.4026  0.8382
 7178TIP3    H243026   2.019   6.331  16.464  0.3668 -0.6778  0.0844
 7179TIP3   OH243027   2.440   3.375   3.291 -0.2589 -0.3387 -0.7565
 7179TIP3    H143028   2.361   3.321   3.298  0.0522 -0.6887  0.1097
 7179TIP3    H243029   2.505   3.318   3.250 -0.3991 -0.1010 -1.3219
 7180TIP3   OH243030   3.044   6.380  11.078 -0.4957 -0.6252  0.0038
 7180TIP3    H143031   3.044   6.334  10.994 -1.4857  0.0109 -0.3535
 7180TIP3    H243032   3.069   6.312  11.141  0.1442 -1.1399 -0.7787
 7181TIP3   OH243033   5.866   6.798  11.579  0.0170  0.3472  0.2291
 7181TIP3    H143034   5.860   6.755  11.665 -1.0552 -0.8584 -0.4081
 7181TIP3    H243035   5.953   6.775  11.547 -0.6179 -1.6973 -0.2188
 7182TIP3   OH243036   4.735   5.445   0.656  0.1541  0.2809  0.1659
 7182TIP3    H143037   4.829   5.430   0.656  0.5430  2.3131 -0.5909
 7182TIP3    H243038   4.722   5.516   0.592 -2.1168 -1.1213 -1.0888
 7183TIP3   OH243039   3.988   3.805   3.813 -0.2875  0.1446 -0.2343
 7183TIP3    H143040   3.980   3.830   3.721  0.7025 -0.1634 -0.4289
 7183TIP3    H243041   4.036   3.877   3.853  2.6626 -1.3179 -0.8217
 7184TIP3   OH243042   0.095   4.668   3.046 -0.3001 -0.1374 -0.3490
 7184TIP3    H143043   0.106   4.587   2.995 -0.1066 -0.0906 -0.3791
 7184TIP3    H243044   0.056   4.639   3.129  2.2815 -0.6037  0.7719
 7185TIP3   OH243045   1.150   6.157   1.264 -0.6214 -0.8992  0.2042
 7185TIP3    H143046   1.242   6.131   1.268 -1.0592 -2.5152  0.6998
 7185TIP3    H243047   1.114   6.109   1.190 -1.3020 -1.1888  0.7015
 7186TIP3   OH243048   6.847   0.265   2.206  0.2236 -0.1267 -0.1105
 7186TIP3    H143049   6.767   0.217   2.183  0.6505 -0.4880 -0.9041
 7186TIP3    H243050   6.915   0.224   2.152  0.8771  0.4110  0.2941
 7187TIP3   OH243051   1.910   5.392   6.647  0.1503 -0.0252  0.0504
 7187TIP3    H143052   1.824   5.380   6.686  0.5191  1.8093  1.5627
 7187TIP3    H243053   1.893   5.408   6.554 -1.1406  0.4169  0.3540
 7188TIP3   OH243054   1.870   4.235   3.079 -0.3330 -0.3461 -0.6298
 7188TIP3    H143055   1.886   4.316   3.031 -1.1692  1.0012  1.2564
 7188TIP3    H243056   1.775   4.223   3.076 -0.1169 -2.2824 -2.3738
 7189TIP3   OH243057   1.376   1.641  11.518  0.5106 -0.2665 -0.4774
 7189TIP3    H143058   1.433   1.568  11.495  1.9404  0.7247 -0.1518
 7189TIP3    H243059   1.430   1.719  11.507 -0.4717  0.6346  0.8155
 7190TIP3   OH243060   0.593   1.970   0.771 -0.5153 -0.6008  0.4616
 7190TIP3    H143061   0.522   1.986   0.834 -0.2687 -0.1638  0.6330
 7190TIP3    H243062   0.601   1.875   0.768 -1.7145 -0.6949 -0.2448
 7191TIP3   OH243063   1.486   1.736   2.476 -0.4698  0.0496 -0.1301
 7191TIP3    H143064   1.500   1.830   2.462  0.9826 -0.0297  0.6065
 7191TIP3    H243065   1.528   1.694   2.401  1.2620 -0.0918  0.8706
 7192TIP3   OH243066   4.053   5.553  11.311 -0.0574 -0.1123  0.3038
 7192TIP3    H143067   3.966   5.556  11.272 -0.0989  0.2119  0.4222
 7192TIP3    H243068   4.057   5.629  11.368  0.4036  0.0284  0.0888
 7193TIP3   OH243069   4.715   5.482  11.251  0.4784  0.3117 -1.2161
 7193TIP3    H143070   4.657   5.453  11.180  0.5761 -1.8632 -0.4794
 7193TIP3    H243071   4.697   5.422  11.323  2.3570  0.7301 -0.3299
 7194TIP3   OH243072   5.664   3.301  14.555 -0.5833 -0.0848 -0.1439
 7194TIP3    H143073   5.686   3.374  14.613  1.4779 -1.9556  1.6408
 7194TIP3    H243074   5.597   3.335  14.497 -0.1611  3.0082  1.0152
 7195TIP3   OH243075   3.954   1.163   5.255 -0.0909 -0.0603 -0.0742
 7195TIP3    H143076   3.892   1.093   5.276 -0.9106  0.5298 -0.4607
 7195TIP3    H243077   3.914   1.242   5.291  1.0329  0.1495  0.7262
 7196TIP3   OH243078   5.917   2.934   3.732  0.0225 -0.1636 -0.0149
 7196TIP3    H143079   5.852   2.982   3.782 -0.2913 -0.1692 -0.4108
 7196TIP3    H243080   5.981   2.904   3.797 -1.1240 -1.3938  0.6018
 7197TIP3   OH243081   4.309   4.161  15.921  0.6967 -0.4021 -0.6025
 7197TIP3    H143082   4.327   4.251  15.948 -0.0797 -0.0512 -1.2181
 7197TIP3    H243083   4.328   4.160  15.828  2.3388 -1.3346 -0.3041
 7198TIP3   OH243084   2.222   0.316  12.528  0.2747  0.7244 -0.4858
 7198TIP3    H143085   2.224   0.403  12.489  0.1818  0.6105 -0.7493
 7198TIP3    H243086   2.130   0.303  12.552  0.2975  0.7190 -0.4011
 7199TIP3   OH243087   3.751   5.568   1.799  0.9237 -0.1360 -0.2965
 7199TIP3    H143088   3.812   5.616   1.743  1.1402  0.4916  0.4617
 7199TIP3    H243089   3.715   5.634   1.858  0.9279 -0.8293  0.4998
 7200TIP3   OH243090   0.432   0.998   4.873  0.1865 -0.2049  0.0437
 7200TIP3    H143091   0.353   0.952   4.844  0.1383 -0.5669  0.7072
 7200TIP3    H243092   0.502   0.934   4.861  0.6081  0.5361 -1.7225
 7201TIP3   OH243093   4.226   2.806   3.913 -0.3120  0.0988 -0.1003
 7201TIP3    H143094   4.318   2.829   3.928  0.4191 -1.3366 -1.9828
 7201TIP3    H243095   4.177   2.864   3.971  1.9028 -1.5635  3.8537
 7202TIP3   OH243096   1.236   1.039   6.001 -0.3987  0.3434  0.1738
 7202TIP3    H143097   1.256   1.019   5.910 -1.5533  0.8681 -0.2069
 7202TIP3    H243098   1.165   1.103   5.997 -0.3594  0.4909  1.4396
 7203TIP3   OH243099   2.914   5.707   1.726 -0.2828  0.5012 -0.1519
 7203TIP3    H143100   2.992   5.723   1.779  0.2216  0.6778 -0.9325
 7203TIP3    H243101   2.943   5.719   1.636 -1.0652 -0.0565 -0.4915
 7204TIP3   OH243102   4.789   2.679   6.802  0.0878  0.1869 -0.3025
 7204TIP3    H143103   4.721   2.619   6.773 -0.0026 -1.1292  2.4013
 7204TIP3    H243104   4.744   2.740   6.861  1.2383 -0.9587  1.8509
 7205TIP3   OH243105   0.956   2.873   2.456  0.1839  0.2479  0.1857
 7205TIP3    H143106   1.011   2.951   2.458  0.0140  0.3866 -0.3283
 7205TIP3    H243107   0.868   2.906   2.437 -0.3746  0.1817  2.4325
 7206TIP3   OH243108   1.502   2.690  14.325 -0.3496 -0.2275 -0.0772
 7206TIP3    H143109   1.513   2.667  14.417 -1.0000  1.5189  0.4802
 7206TIP3    H243110   1.546   2.620  14.277 -2.7573 -2.9639  1.4121
 7207TIP3   OH243111   3.729   5.238  14.452 -0.5234 -0.1301 -0.0322
 7207TIP3    H143112   3.795   5.168  14.447  0.2019  0.6186 -1.3123
 7207TIP3    H243113   3.690   5.226  14.539 -0.1712 -1.8912 -0.0618
 7208TIP3   OH243114   2.848   4.225   3.668 -0.4875  0.5382 -0.2788
 7208TIP3    H143115   2.911   4.292   3.640 -0.7803  1.0588  0.2758
 7208TIP3    H243116   2.797   4.206   3.589  0.2245  0.2601 -0.6834
 7209TIP3   OH243117   0.522   6.177  16.414 -0.0224 -0.0050  0.7396
 7209TIP3    H143118   0.484   6.138  16.493 -1.0860 -0.1977  0.1586
 7209TIP3    H243119   0.607   6.135  16.405 -1.1757 -2.3796  0.0588
 7210TIP3   OH243120   4.257   0.561  15.718 -0.1569 -0.2805 -0.3284
 7210TIP3    H143121   4.334   0.598  15.675  0.7233 -2.7803 -1.0540
 7210TIP3    H243122   4.223   0.633  15.771  2.9029  0.8308  0.3538
 7211TIP3   OH243123   5.070   1.658  13.455 -0.4338 -0.4171 -0.7626
 7211TIP3    H143124   5.088   1.602  13.380 -2.6524  1.5335 -2.8876
 7211TIP3    H243125   5.036   1.598  13.522 -0.3019 -1.9550 -2.0265
 7212TIP3   OH243126   6.255   1.210  11.782  0.3752  0.3226 -0.7377
 7212TIP3    H143127   6.303   1.127  11.782  0.1116  0.1614 -0.0014
 7212TIP3    H243128   6.166   1.186  11.808  0.6564  1.0162  1.0082
 7213TIP3   OH243129   6.825   6.357  11.240 -0.5670  0.1099  0.1640
 7213TIP3    H143130   6.894   6.420  11.220  0.6046 -0.7593  1.3223
 7213TIP3    H243131   6.860   6.273  11.212 -1.6439 -0.2136 -0.2790
 7214TIP3   OH243132   6.705   6.115  13.636  0.0700 -0.2819 -0.1873
 7214TIP3    H143133   6.649   6.129  13.713 -1.1074  0.8450 -1.2044
 7214TIP3    H243134   6.646   6.124  13.561  1.3210 -0.6933 -1.2632
 7215TIP3   OH243135   5.086   6.122   3.803  0.1723  1.1187  0.2809
 7215TIP3    H143136   4.995   6.147   3.790  0.1361 -0.1046 -2.5352
 7215TIP3    H243137   5.135   6.174   3.739  1.0427 -0.2386 -0.2246
 7216TIP3   OH243138   4.034   4.794  15.863  0.6812  0.1013  0.1401
 7216TIP3    H143139   4.061   4.841  15.784  0.7925  1.2446  0.8315
 7216TIP3    H243140   3.940   4.779  15.851  0.2640  2.0682  0.6487
 7217TIP3   OH243141   2.763   5.314  11.462 -0.4928  0.4905  0.0257
 7217TIP3    H143142   2.808   5.363  11.530 -0.8457  1.5037 -0.4517
 7217TIP3    H243143   2.692   5.268  11.507  1.5446 -1.9951  0.9905
 7218TIP3   OH243144   5.359   5.479   5.925 -0.0966  0.0268  0.0510
 7218TIP3    H143145   5.390   5.388   5.929  1.1035  0.4188  0.0403
 7218TIP3    H243146   5.430   5.530   5.963 -0.3342  1.0679 -0.8651
 7219TIP3   OH243147   5.499   2.949  12.819  0.2093  0.1232 -0.1014
 7219TIP3    H143148   5.480   2.952  12.913  1.9867  1.1588  0.2842
 7219TIP3    H243149   5.494   2.856  12.796 -0.8042 -0.0802  0.8866
 7220TIP3   OH243150   5.013   5.808   3.403 -0.0214  0.5010  0.0326
 7220TIP3    H143151   5.100   5.814   3.364 -0.4504  2.6152 -0.7336
 7220TIP3    H243152   5.026   5.825   3.496  0.7181 -2.3129  0.5345
 7221TIP3   OH243153   1.188   3.055  16.008 -0.1525  0.0013 -0.1243
 7221TIP3    H143154   1.104   3.074  15.967 -0.8466 -0.2282  1.1158
 7221TIP3    H243155   1.191   3.112  16.085 -1.0197 -2.7219  2.0936
 7222TIP3   OH243156   6.604   0.109   3.619 -0.1515  0.2473  0.1576
 7222TIP3    H143157   6.680   0.162   3.640 -0.4535  0.3733  0.9798
 7222TIP3    H243158   6.585   0.128   3.527  0.1512  1.0487  0.2559
 7223TIP3   OH243159   5.778   3.878  12.765 -0.2271 -0.2961 -0.0847
 7223TIP3    H143160   5.812   3.903  12.679 -0.8170 -2.8705 -1.1377
 7223TIP3    H243161   5.817   3.793  12.783 -2.3478 -1.1291  0.8710
 7224TIP3   OH243162   2.638   3.690  13.454 -0.2795 -0.8235  0.1238
 7224TIP3    H143163   2.608   3.602  13.477 -1.6581 -0.2942  0.3849
 7224TIP3    H243164   2.619   3.697  13.360  1.3713 -1.3852 -0.2975
 7225TIP3   OH243165   5.534   0.558   2.757  0.2517  0.1403  0.2834
 7225TIP3    H143166   5.570   0.646   2.767 -0.0306  0.3265 -0.2827
 7225TIP3    H243167   5.565   0.510   2.834  1.2809  0.4364  0.0680
 7226TIP3   OH243168   6.337   1.575   1.686 -0.4958  0.4714  0.3930
 7226TIP3    H143169   6.321   1.666   1.664  1.4631  0.8503  0.3993
 7226TIP3    H243170   6.432   1.568   1.696 -0.7254 -1.1933  2.0709
 7227TIP3   OH243171   6.044   6.572  13.568 -0.0446  0.2529  0.5750
 7227TIP3    H143172   6.070   6.658  13.536 -0.0114 -0.0951 -0.3694
 7227TIP3    H243173   6.010   6.588  13.656 -0.4809  1.3040  0.2305
 7228TIP3   OH243174   3.562   3.330   0.916 -0.2997  0.0621  0.0100
 7228TIP3    H143175   3.531   3.411   0.877 -0.6867  0.6126  1.3894
 7228TIP3    H243176   3.503   3.262   0.882 -0.5471  0.5000 -0.4341
 7229TIP3   OH243177   2.463   5.763   5.485 -0.5529 -0.3349  0.2032
 7229TIP3    H143178   2.391   5.790   5.429  0.1106 -1.2585 -1.1466
 7229TIP3    H243179   2.430   5.777   5.574 -2.2045 -0.2774 -0.3764
 7230TIP3   OH243180   2.147   3.103   4.358  0.4215 -0.1141  0.2468
 7230TIP3    H143181   2.154   3.187   4.313 -1.2285  0.5550  1.1517
 7230TIP3    H243182   2.140   3.126   4.451  1.0608 -1.3226  0.6162
 7231TIP3   OH243183   1.384   2.872   2.640 -0.3892 -0.2361  0.2804
 7231TIP3    H143184   1.380   2.954   2.689  1.5718 -0.4822  0.9509
 7231TIP3    H243185   1.315   2.818   2.679 -0.0380  0.2157  1.5878
 7232TIP3   OH243186   3.170   6.691  12.657  0.0698  0.5205  0.0335
 7232TIP3    H143187   3.171   6.630  12.731 -1.8936  1.1365  0.6321
 7232TIP3    H243188   3.077   6.704  12.638  0.4999  1.5417 -1.5921
 7233TIP3   OH243189   0.599   6.538  13.629 -0.7031 -0.6610 -0.3110
 7233TIP3    H143190   0.610   6.531  13.724 -0.5063 -1.3294 -0.3810
 7233TIP3    H243191   0.689   6.547  13.596 -0.8573  2.7002 -0.2248
 7234TIP3   OH243192   4.533   1.004  13.780  0.7562  0.5381 -0.4271
 7234TIP3    H143193   4.491   1.001  13.866 -0.5492 -0.2040 -1.0624
 7234TIP3    H243194   4.545   1.097  13.763 -0.5703  0.7877 -0.1600
 7235TIP3   OH243195   4.760   2.457   5.532 -0.2240 -0.5626  0.0488
 7235TIP3    H143196   4.694   2.527   5.535  0.7323  0.3591  0.4246
 7235TIP3    H243197   4.714   2.382   5.495 -1.3606  0.1848 -0.1112
 7236TIP3   OH243198   1.589   4.080   4.088  0.3989  0.5139  0.0730
 7236TIP3    H143199   1.658   4.139   4.119  1.0456 -0.4321  0.4574
 7236TIP3    H243200   1.599   4.080   3.993  0.9369  0.3642  0.1306
 7237TIP3   OH243201   0.646   2.914   2.588  0.4680 -0.6029 -0.0986
 7237TIP3    H143202   0.664   3.000   2.627 -1.9968 -0.8432  1.8237
 7237TIP3    H243203   0.607   2.934   2.503  1.9652  0.0537 -0.6748
 7238TIP3   OH243204   1.302   2.445  11.978 -0.2454  0.4060 -0.0263
 7238TIP3    H143205   1.286   2.490  12.061 -0.3626  1.6565 -0.7142
 7238TIP3    H243206   1.331   2.513  11.918 -0.8598 -0.3599 -1.2302
 7239TIP3   OH243207   2.948   2.042   2.468 -0.7456  0.1574 -0.0867
 7239TIP3    H143208   2.876   2.026   2.407 -0.2214 -0.2936 -0.5946
 7239TIP3    H243209   3.002   1.963   2.463  0.9407  1.3449 -1.3150
 7240TIP3   OH243210   4.013   3.544  14.038  0.3947 -0.1363  0.2039
 7240TIP3    H143211   4.053   3.526  14.124 -2.2802 -0.9838  1.3610
 7240TIP3    H243212   3.989   3.458  14.004 -0.0376  0.3145 -0.6616
 7241TIP3   OH243213   6.249   6.494   0.122 -0.2719  0.4615 -0.2489
 7241TIP3    H143214   6.330   6.449   0.100 -1.3225 -1.7065  0.0506
 7241TIP3    H243215   6.252   6.505   0.217  0.0164  1.1089 -0.3304
 7242TIP3   OH243216   4.989   1.922  11.318 -0.4679 -0.3009  0.0216
 7242TIP3    H143217   5.039   1.957  11.244 -1.5799 -0.0211 -0.6122
 7242TIP3    H243218   5.036   1.841  11.342  0.5164  0.1635 -0.2871
 7243TIP3   OH243219   2.048   3.100  11.980 -0.3295  0.5726 -0.1672
 7243TIP3    H143220   1.954   3.117  11.971 -0.2829  0.1775 -1.5099
 7243TIP3    H243221   2.067   3.125  12.071 -1.9463 -0.4024  0.4899
 7244TIP3   OH243222   4.419   4.504   4.234  0.6073 -0.3573  0.0161
 7244TIP3    H143223   4.473   4.582   4.228  1.1628 -0.7976 -0.9642
 7244TIP3    H243224   4.351   4.516   4.168 -0.8088  0.3907  1.5283
 7245TIP3   OH243225   5.455   2.235   5.689  0.1632 -0.0004 -0.3547
 7245TIP3    H143226   5.549   2.253   5.692  0.0827  0.3186  0.9544
 7245TIP3    H243227   5.447   2.157   5.635  1.5545 -2.0910  2.2108
 7246TIP3   OH243228   5.064   0.269   0.124  0.3628  0.0240 -0.0425
 7246TIP3    H143229   5.061   0.221   0.207 -0.2201 -0.2967 -0.2401
 7246TIP3    H243230   5.145   0.319   0.128  0.2758  0.1184  0.7846
 7247TIP3   OH243231   4.200   2.454   0.450  0.6496  0.3495  0.0059
 7247TIP3    H143232   4.273   2.394   0.468  1.5213  1.5878  0.7859
 7247TIP3    H243233   4.214   2.526   0.511 -1.6481  0.3025  0.6820
 7248TIP3   OH243234   5.420   1.177   4.617  0.4096  0.3201 -0.1375
 7248TIP3    H143235   5.337   1.223   4.626 -0.0735 -0.9553  3.1251
 7248TIP3    H243236   5.398   1.098   4.567 -0.0275  0.6429 -0.4650
 7249TIP3   OH243237   0.041   4.469  15.164 -0.0051 -0.1166  0.1667
 7249TIP3    H143238   0.136   4.467  15.170 -0.0434 -0.6989  0.7094
 7249TIP3    H243239   0.014   4.534  15.229  0.1062  1.4732 -1.3354
 7250TIP3   OH243240   2.005   5.971  10.432 -0.4237 -0.9141 -0.1483
 7250TIP3    H143241   2.047   6.055  10.418  0.7612 -1.5433 -0.5709
 7250TIP3    H243242   2.012   5.957  10.527 -0.7096 -0.5104 -0.0638
 7251TIP3   OH243243   1.222   3.624   4.307  0.6366  0.0299  0.2993
 7251TIP3    H143244   1.197   3.716   4.306  1.2601  0.2348  1.4188
 7251TIP3    H243245   1.275   3.612   4.229 -0.6685  0.2342 -0.6604
 7252TIP3   OH243246   2.582   3.299  12.121  0.0520 -0.4550  0.4898
 7252TIP3    H143247   2.586   3.393  12.105  0.6896 -0.3182  1.3586
 7252TIP3    H243248   2.581   3.291  12.217 -0.3818 -1.3185  0.4265
 7253TIP3   OH243249   2.420   6.760  15.212  0.5236 -0.2548 -0.6374
 7253TIP3    H143250   2.423   6.766  15.116  1.8480  1.6691 -0.5531
 7253TIP3    H243251   2.499   6.711  15.235  0.5838 -0.0978 -0.5072
 7254TIP3   OH243252   5.245   0.737   5.126  0.7422 -0.7684 -0.2481
 7254TIP3    H143253   5.215   0.827   5.127  2.4226 -0.1707  0.6995
 7254TIP3    H243254   5.230   0.706   5.216  3.3907 -0.2236  0.4716
 7255TIP3   OH243255   1.047   4.184  13.684  0.1856  0.3963  0.1072
 7255TIP3    H143256   1.063   4.133  13.764 -1.4057  0.9874  0.8346
 7255TIP3    H243257   1.014   4.119  13.622 -0.4350  0.2765  0.5570
 7256TIP3   OH243258   6.563   3.547   6.326 -0.3615  0.5181  0.3618
 7256TIP3    H143259   6.619   3.622   6.346 -0.0257 -0.1116  1.9917
 7256TIP3    H243260   6.474   3.578   6.342 -0.1052  0.0306  3.2021
 7257TIP3   OH243261   4.978   3.110  16.815 -0.2807 -0.0070 -0.7468
 7257TIP3    H143262   4.999   3.190  16.864 -0.8658  0.9675 -2.0457
 7257TIP3    H243263   5.032   3.113  16.737 -0.1343 -1.0169 -0.7049
 7258TIP3   OH243264   4.107   3.507   2.392  0.2940  1.1543  0.1904
 7258TIP3    H143265   4.083   3.464   2.309 -1.1814  0.8430  0.7441
 7258TIP3    H243266   4.023   3.527   2.433  0.9917  0.6114  1.9699
 7259TIP3   OH243267   0.726   1.020  15.700 -0.5304  0.1453  0.7892
 7259TIP3    H143268   0.641   0.989  15.730 -0.5440 -0.6518 -0.0346
 7259TIP3    H243269   0.706   1.090  15.638 -0.7088 -1.4609 -1.0597
 7260TIP3   OH243270   5.773   0.667   5.299  0.5239  0.2546 -0.0445
 7260TIP3    H143271   5.737   0.740   5.349  0.3962 -0.2801  0.6558
 7260TIP3    H243272   5.868   0.675   5.310  0.5009  0.2087  0.1753
 7261TIP3   OH243273   5.057   2.003  11.827 -0.2074  0.0417 -0.3247
 7261TIP3    H143274   5.051   1.976  11.919 -0.1281  2.1798  0.3669
 7261TIP3    H243275   4.994   2.075  11.819  2.2614  2.2648 -0.9770
 7262TIP3   OH243276   0.759   3.910  10.793 -0.2180 -0.6052  0.1412
 7262TIP3    H143277   0.808   3.907  10.711  0.0224 -1.3468  0.3118
 7262TIP3    H243278   0.823   3.888  10.861  0.2357  2.4093  0.8412
 7263TIP3   OH243279   1.548   5.596  12.295 -0.1023 -0.1746  0.4154
 7263TIP3    H143280   1.605   5.642  12.356  0.4902  0.8834 -0.8839
 7263TIP3    H243281   1.606   5.538  12.246  0.5630  2.9324 -2.8831
 7264TIP3   OH243282   1.590   6.675   3.279 -0.9569  0.5727 -0.3878
 7264TIP3    H143283   1.495   6.663   3.281 -0.9321  0.4287  0.5569
 7264TIP3    H243284   1.603   6.760   3.238 -1.3129 -0.8243 -3.7141
 7265TIP3   OH243285   0.618   4.627  11.700 -0.2412  0.0509  0.4353
 7265TIP3    H143286   0.574   4.708  11.676 -0.2228  0.2510  1.0713
 7265TIP3    H243287   0.546   4.564  11.714 -0.3108  0.2576  1.0338
 7266TIP3   OH243288   3.178   2.183   0.777  0.5435 -0.4681 -0.2571
 7266TIP3    H143289   3.223   2.121   0.834  0.7799 -1.1830 -1.1895
 7266TIP3    H243290   3.212   2.268   0.803 -0.0631 -0.6686  1.3006
 7267TIP3   OH243291   1.765   5.974   1.040  0.2961  0.1063 -0.6367
 7267TIP3    H143292   1.781   5.907   0.974  0.7777 -0.4009 -0.0162
 7267TIP3    H243293   1.726   6.046   0.991  2.4880  0.5534 -1.8564
 7268TIP3   OH243294   6.464   1.431  13.505 -0.0983 -0.6190 -0.3348
 7268TIP3    H143295   6.439   1.476  13.425 -1.7346 -0.4445  0.2241
 7268TIP3    H243296   6.559   1.443  13.511 -0.0548  0.0149 -1.8281
 7269TIP3   OH243297   0.845   4.739  11.244  0.4979  0.0019  0.1374
 7269TIP3    H143298   0.801   4.697  11.319  0.5421  0.0275  0.1779
 7269TIP3    H243299   0.798   4.821  11.231  1.2191  0.5600  0.8878
 7270TIP3   OH243300   1.655   2.376   3.578 -0.5846  0.1715 -0.9164
 7270TIP3    H143301   1.690   2.328   3.503  2.1391  0.1918  0.2231
 7270TIP3    H243302   1.622   2.458   3.540 -1.8070 -0.9373 -2.3862
 7271TIP3   OH243303   1.759   3.944   1.198 -0.3897  0.6810 -0.2845
 7271TIP3    H143304   1.828   3.972   1.138 -1.4726  1.6840 -1.1261
 7271TIP3    H243305   1.690   3.911   1.141 -1.5195  1.8123  0.3684
 7272TIP3   OH243306   5.515   4.681  14.094  0.6664 -0.3836 -0.1027
 7272TIP3    H143307   5.437   4.681  14.150  0.0660 -0.5892 -0.9358
 7272TIP3    H243308   5.490   4.732  14.017  1.3815 -0.4021 -0.3550
 7273TIP3   OH243309   2.644   4.570  14.784  0.2709 -0.5740  0.2013
 7273TIP3    H143310   2.678   4.654  14.813 -2.3127 -0.1383  2.2937
 7273TIP3    H243311   2.711   4.536  14.724  1.2053  3.1088 -1.0569
 7274TIP3   OH243312   0.136   6.596   2.644 -0.0485 -0.1875  0.3593
 7274TIP3    H143313   0.094   6.581   2.559  2.4398  2.1078 -1.4739
 7274TIP3    H243314   0.228   6.573   2.630  0.4600  0.4181  2.3786
 7275TIP3   OH243315   1.493   0.795  11.375  0.4827 -0.0446 -0.6346
 7275TIP3    H143316   1.502   0.763  11.285  0.9558 -0.1222 -0.5612
 7275TIP3    H243317   1.561   0.748  11.424  0.1198 -0.1269 -0.2025
 7276TIP3   OH243318   3.791   6.129   4.333 -0.1511  0.8704 -0.5609
 7276TIP3    H143319   3.699   6.146   4.314 -0.4931 -0.0097  0.2187
 7276TIP3    H243320   3.831   6.113   4.248 -0.6563  1.5301 -0.9303
 7277TIP3   OH243321   4.314   4.501  15.906 -0.1789  0.3767 -0.1726
 7277TIP3    H143322   4.222   4.512  15.932 -0.1471 -0.9573  0.5808
 7277TIP3    H243323   4.364   4.542  15.977 -0.1733  0.7789 -0.4041
 7278TIP3   OH243324   5.410   6.797  11.859  0.0219  0.2129 -0.4282
 7278TIP3    H143325   5.463   6.717  11.854  0.4919  0.5097 -0.2634
 7278TIP3    H243326   5.419   6.836  11.772 -1.3368 -0.6078 -0.9778
 7279TIP3   OH243327   6.537   5.861   0.705  0.2182  0.3322 -0.3393
 7279TIP3    H143328   6.533   5.881   0.611  2.7825 -0.3248 -0.6701
 7279TIP3    H243329   6.572   5.772   0.709 -1.0356 -0.1414  1.2614
 7280TIP3   OH243330   2.502   2.396  14.388  0.1403 -0.2440  0.1023
 7280TIP3    H143331   2.596   2.416  14.381  0.5400 -2.2267 -1.0660
 7280TIP3    H243332   2.496   2.304  14.362 -2.1053 -0.2401  0.4889
 7281TIP3   OH243333   4.808   0.600  13.751 -0.0653 -0.7732  0.5070
 7281TIP3    H143334   4.752   0.523  13.761 -0.2386 -0.4994  1.9508
 7281TIP3    H243335   4.754   0.664  13.706 -0.2777 -1.1476  0.2281
 7282TIP3   OH243336   3.445   4.114   1.357 -0.4057 -0.2606 -0.6443
 7282TIP3    H143337   3.403   4.184   1.308 -1.6534 -0.6831 -0.2084
 7282TIP3    H243338   3.532   4.149   1.379 -0.4344  0.5481 -1.7292
 7283TIP3   OH243339   6.041   0.679   5.298  0.4195 -0.5337  0.2493
 7283TIP3    H143340   6.127   0.666   5.337  0.1389 -1.0800  0.7028
 7283TIP3    H243341   6.059   0.691   5.204  1.1089  0.9632  0.5410
 7284TIP3   OH243342   0.817   3.352   1.868  0.0905 -0.7543 -0.1610
 7284TIP3    H143343   0.853   3.268   1.897  0.4523 -0.4431  0.3191
 7284TIP3    H243344   0.724   3.347   1.890  0.3933 -0.4391  1.3148
 7285TIP3   OH243345   5.444   1.348   0.641  0.4532  0.1264  0.0386
 7285TIP3    H143346   5.495   1.270   0.661  0.3297 -0.3765 -1.4598
 7285TIP3    H243347   5.391   1.364   0.719  1.7606 -0.2332  1.0361
 7286TIP3   OH243348   4.485   1.977  14.879 -0.6795  0.3252 -0.2049
 7286TIP3    H143349   4.521   2.064  14.861 -0.7236  0.2127 -0.8537
 7286TIP3    H243350   4.539   1.918  14.826 -0.9201  0.0005 -0.0889
 7287TIP3   OH243351   0.994   1.119  15.053  0.5910  0.5451 -0.5907
 7287TIP3    H143352   0.947   1.166  14.984  0.8711  1.0587 -0.4377
 7287TIP3    H243353   1.022   1.188  15.113 -1.4108 -0.0370  1.1494
 7288TIP3   OH243354   2.884   0.841  16.587  0.1568 -0.6809 -0.4023
 7288TIP3    H143355   2.951   0.910  16.583 -0.5097 -0.0556 -1.0734
 7288TIP3    H243356   2.913   0.776  16.524 -0.3669  0.0623 -1.4338
 7289TIP3   OH243357   3.401   0.856   3.291  0.0510 -0.0111 -0.8464
 7289TIP3    H143358   3.392   0.948   3.266  1.5963  0.8510  1.4021
 7289TIP3    H243359   3.313   0.819   3.282 -1.0927  2.2616  0.2440
 7290TIP3   OH243360   4.564   4.386   0.756 -0.1695 -0.3020  0.0555
 7290TIP3    H143361   4.488   4.399   0.700  0.8477  0.3794 -1.2258
 7290TIP3    H243362   4.548   4.440   0.833 -0.8942 -0.0223 -0.2886
 7291TIP3   OH243363   5.006   5.295   3.579  0.1145  0.1805 -0.4232
 7291TIP3    H143364   5.019   5.375   3.528 -2.8285  0.6290 -0.6539
 7291TIP3    H243365   4.985   5.326   3.667  4.2584 -0.5790  1.0476
 7292TIP3   OH243366   0.764   3.524   2.949 -0.0952 -0.1266 -0.1072
 7292TIP3    H143367   0.792   3.528   3.041 -0.8584 -2.7288  0.3099
 7292TIP3    H243368   0.846   3.517   2.900  0.3429  1.6456  0.2759
 7293TIP3   OH243369   5.806   3.204   4.828  0.1661  0.2691 -0.3014
 7293TIP3    H143370   5.710   3.200   4.828  0.1673  0.1793  0.2167
 7293TIP3    H243371   5.831   3.178   4.917  0.7067 -0.5087 -0.6760
 7294TIP3   OH243372   1.177   2.713  11.615  0.1351  0.4012 -0.0135
 7294TIP3    H143373   1.266   2.748  11.618  0.4605 -0.4649  1.2199
 7294TIP3    H243374   1.139   2.737  11.699  0.1577 -1.5918  0.6140
 7295TIP3   OH243375   0.988   3.945   5.168 -0.3845  0.6469  0.1798
 7295TIP3    H143376   0.932   3.892   5.224 -0.1638 -0.7555 -0.8606
 7295TIP3    H243377   0.956   3.929   5.079  1.6615 -0.3035 -0.4618
 7296TIP3   OH243378   5.967   4.297  15.145  0.5440 -0.0986  0.4368
 7296TIP3    H143379   5.961   4.320  15.238  1.9743 -0.3861  0.6174
 7296TIP3    H243380   6.021   4.218  15.144  2.0897  0.9369 -0.7831
 7297TIP3   OH243381   0.078   0.873   1.995 -0.1372 -0.3786  0.5171
 7297TIP3    H143382   0.167   0.905   2.008 -0.6542  1.6788 -0.4287
 7297TIP3    H243383   0.031   0.900   2.074  0.0101 -1.2449  0.9084
 7298TIP3   OH243384   4.873   6.456   2.928 -0.2678  0.1595 -0.1585
 7298TIP3    H143385   4.852   6.364   2.918 -0.8249  0.4203 -1.8918
 7298TIP3    H243386   4.960   6.465   2.890 -1.4633  0.7931 -3.0601
 7299TIP3   OH243387   1.546   2.160   1.392  0.2417  0.5520  0.0372
 7299TIP3    H143388   1.465   2.148   1.343  1.1983  0.6136 -1.6430
 7299TIP3    H243389   1.535   2.107   1.471 -1.0003 -0.2968 -0.6763
 7300TIP3   OH243390   5.073   3.541   5.639 -0.4415 -0.2270  0.0557
 7300TIP3    H143391   5.023   3.553   5.720 -2.9268  0.9935 -1.5466
 7300TIP3    H243392   5.124   3.622   5.630 -1.0621  0.1393 -0.1832
 7301TIP3   OH243393   4.638   5.483   2.485 -0.4888  0.1756  0.0980
 7301TIP3    H143394   4.717   5.500   2.535 -0.2313 -0.2533 -0.1544
 7301TIP3    H243395   4.655   5.521   2.398 -0.4307 -0.1895 -0.0539
 7302TIP3   OH243396   4.813   6.712   1.250 -0.0765  0.0879 -0.0880
 7302TIP3    H143397   4.750   6.721   1.179 -0.6622  1.4107  0.5756
 7302TIP3    H243398   4.879   6.779   1.233 -0.3602  0.5972  0.7316
 7303TIP3   OH243399   3.357   0.485  13.425  0.4911 -0.0125  0.1546
 7303TIP3    H143400   3.285   0.514  13.370 -0.0216 -1.0044  0.2762
 7303TIP3    H243401   3.428   0.545  13.406  0.7859 -1.0905 -2.6209
 7304TIP3   OH243402   2.946   1.107   1.477 -0.2377 -0.5579 -0.0255
 7304TIP3    H143403   2.985   1.195   1.470  1.6752 -1.3041  0.6690
 7304TIP3    H243404   2.862   1.122   1.522  1.0694  0.7090  2.2060
 7305TIP3   OH243405   4.913   4.791   5.524 -0.5669 -0.2620  0.1766
 7305TIP3    H143406   4.888   4.765   5.613  0.6371 -2.2746 -0.0253
 7305TIP3    H243407   4.838   4.766   5.470 -1.0990  0.5210  0.5286
 7306TIP3   OH243408   2.727   2.741   1.514  0.3885 -0.4678 -0.1163
 7306TIP3    H143409   2.658   2.699   1.462 -1.0844  0.8580  0.6596
 7306TIP3    H243410   2.696   2.831   1.524  1.8002 -0.0960  1.0646
 7307TIP3   OH243411   0.505   0.152   3.718 -0.1227  0.3424 -0.0359
 7307TIP3    H143412   0.598   0.174   3.714  1.0090 -3.4824  1.0820
 7307TIP3    H243413   0.493   0.082   3.654 -2.4945  1.2627 -0.7188
 7308TIP3   OH243414   6.085   2.851   2.532 -0.6209 -0.1164 -0.4803
 7308TIP3    H143415   5.996   2.850   2.497 -0.1292 -2.5622 -1.8980
 7308TIP3    H243416   6.130   2.780   2.485  2.1765  1.2406 -0.0651
 7309TIP3   OH243417   0.763   5.782   4.090 -0.1747  0.3734 -0.5131
 7309TIP3    H143418   0.789   5.874   4.086 -0.7297  0.5117 -1.5100
 7309TIP3    H243419   0.667   5.785   4.095 -0.1626 -0.1448  0.0587
 7310TIP3   OH243420   1.514   1.702   3.116  0.4139  0.5885  0.0605
 7310TIP3    H143421   1.476   1.703   3.204  0.9415  1.2885  0.2881
 7310TIP3    H243422   1.605   1.675   3.130  0.7928  1.7190 -0.1370
 7311TIP3   OH243423   2.032   2.867   5.107  0.2038  0.2876  0.1930
 7311TIP3    H143424   2.097   2.802   5.133  1.6085  1.5865  0.0034
 7311TIP3    H243425   1.957   2.849   5.163  1.1463 -0.5025  1.2386
 7312TIP3   OH243426   6.737   1.657  11.321  0.3370 -0.1533 -0.6886
 7312TIP3    H143427   6.687   1.603  11.259 -1.0162  1.2517 -0.8757
 7312TIP3    H243428   6.824   1.663  11.282 -0.3871  0.4348 -2.3225
 7313TIP3   OH243429   2.875   5.395  12.448 -0.7969  0.1664 -0.2754
 7313TIP3    H143430   2.874   5.384  12.353  0.7978  0.9373 -0.4160
 7313TIP3    H243431   2.847   5.486  12.462  0.4742  0.5543 -0.1336
 7314TIP3   OH243432   0.128   2.924  10.751 -0.0684  0.0345  0.4325
 7314TIP3    H143433   0.182   2.849  10.726 -0.4954 -0.1892  0.1647
 7314TIP3    H243434   0.092   2.956  10.668  0.5818  0.9090  0.4640
 7315TIP3   OH243435   5.269   2.322   2.217 -0.1044 -0.2236  0.2399
 7315TIP3    H143436   5.267   2.397   2.158  1.0409 -0.5105 -0.1964
 7315TIP3    H243437   5.282   2.246   2.160 -2.8541 -1.0006  0.5021
 7316TIP3   OH243438   2.475   0.324   2.751 -0.4771  0.8559 -0.1968
 7316TIP3    H143439   2.517   0.274   2.821  0.6720  0.9043 -0.8192
 7316TIP3    H243440   2.538   0.394   2.732 -0.2152  0.1344 -2.0973
 7317TIP3   OH243441   2.812   5.103  11.976 -0.6420 -0.0472 -0.1412
 7317TIP3    H143442   2.766   5.067  11.900 -1.1563  0.6292 -0.1561
 7317TIP3    H243443   2.869   5.171  11.939  0.6039 -1.0526 -0.1599
 7318TIP3   OH243444   4.732   3.647  11.460  0.2862  0.2850 -0.0609
 7318TIP3    H143445   4.772   3.663  11.375  0.8914  0.0734  0.1794
 7318TIP3    H243446   4.806   3.632  11.519 -0.1063  0.7648  0.5711
 7319TIP3   OH243447   5.538   6.033  13.545  0.2460  0.0121 -0.3465
 7319TIP3    H143448   5.509   6.097  13.481  0.9749  2.2785  1.4389
 7319TIP3    H243449   5.624   6.065  13.573 -0.3769 -0.4026  2.3069
 7320TIP3   OH243450   3.119   5.849   5.149  0.6393 -0.3138  0.4222
 7320TIP3    H143451   3.147   5.831   5.239  1.7209 -0.2571  0.1089
 7320TIP3    H243452   3.044   5.908   5.159  0.7920 -0.2513  1.2846
 7321TIP3   OH243453   2.178   0.475   6.216 -0.5605 -0.1965 -0.4085
 7321TIP3    H143454   2.151   0.520   6.136  0.6581 -0.7154 -1.1353
 7321TIP3    H243455   2.095   0.447   6.256 -1.1981  0.1417 -1.4417
 7322TIP3   OH243456   1.437   3.674   4.944 -0.9531 -0.5186 -0.2013
 7322TIP3    H143457   1.390   3.704   5.022 -0.4304  0.5681 -0.2930
 7322TIP3    H243458   1.374   3.684   4.872 -1.5501 -1.8421  0.1131
 7323TIP3   OH243459   1.305   5.771  13.990  0.1898 -0.8229  0.1375
 7323TIP3    H143460   1.230   5.726  14.028 -1.3786  2.9135  1.9364
 7323TIP3    H243461   1.367   5.781  14.062  1.8059 -2.4349 -0.9325
 7324TIP3   OH243462   4.456   0.990  16.260 -0.0497  0.3172  0.7832
 7324TIP3    H143463   4.405   1.026  16.332  0.5188  0.5085  1.0944
 7324TIP3    H243464   4.547   1.015  16.279  0.1623 -0.0025  0.2306
 7325TIP3   OH243465   3.022   2.978   4.678 -0.0573 -0.0323  0.2140
 7325TIP3    H143466   2.958   2.999   4.611 -0.3972 -0.2713  0.4591
 7325TIP3    H243467   3.045   3.062   4.718 -1.1395 -0.0759  0.9552
 7326TIP3   OH243468   1.194   4.769   3.328  0.0577 -0.2900 -0.2382
 7326TIP3    H143469   1.253   4.842   3.309 -0.5568  0.2372 -0.1488
 7326TIP3    H243470   1.161   4.787   3.416 -2.0261  0.6844 -1.1493
 7327TIP3   OH243471   1.222   2.626   2.080  0.3408  0.3710  0.4469
 7327TIP3    H143472   1.250   2.535   2.092 -1.5256 -0.4670 -0.9438
 7327TIP3    H243473   1.247   2.670   2.161 -0.0470 -1.7602  1.8074
 7328TIP3   OH243474   2.551   0.977  17.058  0.8834 -1.0428 -0.6182
 7328TIP3    H143475   2.522   1.067  17.073  1.4446 -0.5590 -2.2059
 7328TIP3    H243476   2.619   0.985  16.991  0.7832 -2.6687 -0.9548
 7329TIP3   OH243477   1.581   4.463  12.548 -0.1624  0.5205 -0.6793
 7329TIP3    H143478   1.546   4.551  12.530 -0.7265  0.2055 -1.1699
 7329TIP3    H243479   1.668   4.479  12.583 -0.1898  1.2761 -0.9247
 7330TIP3   OH243480   2.788   5.316   1.480  0.3844  0.1562  0.4680
 7330TIP3    H143481   2.783   5.262   1.559  0.4213  0.0369  0.3893
 7330TIP3    H243482   2.881   5.321   1.460  0.3545 -0.0567  0.2665
 7331TIP3   OH243483   5.667   4.366  15.729  0.1470 -0.6580  0.6721
 7331TIP3    H143484   5.588   4.350  15.780 -0.9015  0.3840 -0.5499
 7331TIP3    H243485   5.649   4.324  15.645 -1.3276  3.6516 -1.4663
 7332TIP3   OH243486   0.930   5.282  16.443  0.4624  0.1203 -0.1278
 7332TIP3    H143487   0.948   5.373  16.466 -1.9608  0.9083 -1.0235
 7332TIP3    H243488   0.878   5.248  16.516  0.0924 -0.0471 -0.4609
 7333TIP3   OH243489   5.917   3.283   3.870  0.2699  0.5415  0.2367
 7333TIP3    H143490   5.960   3.263   3.953  1.0219  0.3949 -0.1834
 7333TIP3    H243491   5.838   3.227   3.871  0.5678  0.1137  0.5973
 7334TIP3   OH243492   0.779   1.503  11.934  0.4685  0.8983 -0.2900
 7334TIP3    H143493   0.781   1.464  12.022  0.3650  1.9394  0.1908
 7334TIP3    H243494   0.831   1.443  11.880  0.0848 -0.0348  0.3584
 7335TIP3   OH243495   0.607   1.189   3.304  0.4342 -0.3724 -0.2083
 7335TIP3    H143496   0.551   1.145   3.368 -0.0704  0.2669 -0.2087
 7335TIP3    H243497   0.573   1.161   3.220  0.4840 -0.4358 -0.2082
 7336TIP3   OH243498   1.711   1.548  14.423 -0.6299  0.7175  0.6362
 7336TIP3    H143499   1.803   1.535  14.444 -0.8573 -0.0327  1.1874
 7336TIP3    H243500   1.691   1.479  14.359 -0.9431  0.5437  0.9186
 7337TIP3   OH243501   5.204   0.618  14.752 -0.4680 -0.0162  0.0527
 7337TIP3    H143502   5.163   0.579  14.674 -1.4626  0.2857  0.4183
 7337TIP3    H243503   5.223   0.708  14.727  0.1228 -0.1950 -0.1646
 7338TIP3   OH243504   2.529   5.519   3.106  0.1807 -0.3294  0.4669
 7338TIP3    H143505   2.563   5.579   3.039  0.5158 -1.5425 -0.4706
 7338TIP3    H243506   2.581   5.539   3.184  0.9165 -0.0221 -0.0854
 7339TIP3   OH243507   4.138   0.846   2.264 -0.2767  0.3697  0.0803
 7339TIP3    H143508   4.084   0.843   2.186 -0.8398  0.9853  0.4373
 7339TIP3    H243509   4.195   0.923   2.252 -1.7939  1.7286  1.1695
 7340TIP3   OH243510   2.598   6.318  16.856  0.8432 -0.1289 -0.2365
 7340TIP3    H143511   2.507   6.332  16.881  1.0598 -0.1784  0.6296
 7340TIP3    H243512   2.617   6.229  16.887  1.2737  0.0007 -0.1210
 7341TIP3   OH243513   4.356   1.221  14.704 -0.3384 -0.5908  0.3452
 7341TIP3    H143514   4.413   1.261  14.769  0.0174  2.2041 -1.5246
 7341TIP3    H243515   4.356   1.128  14.727  2.9454 -0.3587  1.9078
 7342TIP3   OH243516   2.400   6.618   3.782 -0.2503 -0.8090  0.7469
 7342TIP3    H143517   2.449   6.601   3.701 -1.6342 -0.7129 -0.1535
 7342TIP3    H243518   2.450   6.687   3.826  0.6792 -1.0480  0.1015
 7343TIP3   OH243519   4.376   6.180  14.417  0.0005  0.2765 -0.9967
 7343TIP3    H143520   4.371   6.113  14.349 -1.8978  0.6761 -1.2876
 7343TIP3    H243521   4.322   6.146  14.488 -0.6115  1.2716 -0.9639
 7344TIP3   OH243522   6.780   1.523  10.607 -0.3440 -0.4222 -0.5193
 7344TIP3    H143523   6.724   1.553  10.535  1.6823  1.6503 -1.3471
 7344TIP3    H243524   6.815   1.439  10.577  2.3552  1.4776 -3.2077
 7345TIP3   OH243525   3.283   1.822  10.952 -0.3152 -0.4744 -0.3872
 7345TIP3    H143526   3.244   1.898  10.995  0.0023 -0.6004  0.1247
 7345TIP3    H243527   3.219   1.751  10.966 -1.2405 -0.0090 -1.9858
 7346TIP3   OH243528   4.308   2.131   0.924  0.5303  0.5663  0.0853
 7346TIP3    H143529   4.254   2.084   0.989  0.4774  0.6336  0.0903
 7346TIP3    H243530   4.387   2.078   0.916  0.5820  0.6123  0.2829
 7347TIP3   OH243531   4.618   2.827   4.493  0.4947  0.0175 -0.1985
 7347TIP3    H143532   4.529   2.856   4.474  0.6596 -0.0501 -1.1278
 7347TIP3    H243533   4.655   2.805   4.407  1.4304  0.1099  0.1677
 7348TIP3   OH243534   0.069   5.932  13.651  0.0137  0.0015 -0.5124
 7348TIP3    H143535  -0.018   5.958  13.619  0.4639  1.7126 -0.4337
 7348TIP3    H243536   0.095   6.002  13.711  1.4852 -0.4207 -0.6097
 7349TIP3   OH243537   3.964   3.441   3.453  0.2826  0.0248  0.4762
 7349TIP3    H143538   4.052   3.430   3.489  0.1949 -0.2563  0.6088
 7349TIP3    H243539   3.928   3.515   3.500  0.4524  0.1485  0.4143
 7350TIP3   OH243540   1.625   2.336   0.394  0.1056 -0.3552 -0.9353
 7350TIP3    H143541   1.568   2.399   0.438  0.7662 -0.0539 -0.5003
 7350TIP3    H243542   1.645   2.376   0.309  3.5993  1.9025  0.7456
 7351TIP3   OH243543   0.473   6.061  12.354 -0.5066  0.2858  0.8487
 7351TIP3    H143544   0.389   6.033  12.390 -0.5414 -0.0497  0.5174
 7351TIP3    H243545   0.513   5.981  12.322  0.1346  0.3821  1.3959
 7352TIP3   OH243546   3.391   1.392   2.088  0.6204  0.3980  0.0910
 7352TIP3    H143547   3.348   1.465   2.134  0.4754 -0.4943  1.4357
 7352TIP3    H243548   3.484   1.412   2.094  0.5457  0.8516 -0.2205
 7353TIP3   OH243549   6.051   6.751  15.061  0.5312  0.0561  0.1728
 7353TIP3    H143550   6.057   6.657  15.044  0.8480 -0.0479  0.8265
 7353TIP3    H243551   5.958   6.765  15.083  0.1459  0.1683 -1.3841
 7354TIP3   OH243552   4.830   3.530   3.370 -0.1149 -0.4029 -0.0122
 7354TIP3    H143553   4.771   3.590   3.324 -0.9566 -0.3775  1.0431
 7354TIP3    H243554   4.874   3.481   3.301 -0.3925  0.5216 -0.8581
 7355TIP3   OH243555   2.768   3.954  13.184  0.1123 -0.1929  0.3233
 7355TIP3    H143556   2.854   3.914  13.196 -0.3604 -0.8271  1.7539
 7355TIP3    H243557   2.706   3.882  13.193 -0.6625  0.5727  1.2484
 7356TIP3   OH243558   4.242   4.673   3.905  0.8187  0.2660 -0.6250
 7356TIP3    H143559   4.301   4.745   3.929  0.2242  1.3540 -2.2570
 7356TIP3    H243560   4.269   4.648   3.817 -1.0307  0.6950 -1.3649
 7357TIP3   OH243561   1.381   4.578   2.044 -0.7179  0.3170  0.0131
 7357TIP3    H143562   1.429   4.609   1.967 -1.6323  0.5342 -0.4805
 7357TIP3    H243563   1.445   4.526   2.093  0.6372  2.2652  0.4327
 7358TIP3   OH243564   5.231   0.560   1.074 -0.4650  0.3718  0.1048
 7358TIP3    H143565   5.179   0.637   1.098  0.1626  0.6113  0.7297
 7358TIP3    H243566   5.321   0.592   1.075 -0.3785  0.5558 -3.0915
 7359TIP3   OH243567   5.569   1.256  11.785  0.1457  0.0804  0.0846
 7359TIP3    H143568   5.520   1.304  11.718 -0.2529  0.6799  0.7881
 7359TIP3    H243569   5.505   1.240  11.854  0.8218  0.4734  0.8214
 7360TIP3   OH243570   0.432   6.122  11.219 -0.2060 -0.1597  0.0389
 7360TIP3    H143571   0.496   6.141  11.151 -0.2358  0.2816  0.1309
 7360TIP3    H243572   0.450   6.186  11.288  0.0731 -0.8466  0.6172
 7361TIP3   OH243573   1.030   5.023   5.229  0.2093 -0.1677 -0.0849
 7361TIP3    H143574   0.990   5.105   5.259 -0.2604 -1.0631  1.8657
 7361TIP3    H243575   0.956   4.961   5.225  0.7018 -0.7277 -0.6714
 7362TIP3   OH243576   2.822   5.010   0.281  0.1213 -0.0923  0.8679
 7362TIP3    H143577   2.887   5.075   0.258  1.0966 -1.3970 -0.2102
 7362TIP3    H243578   2.762   5.055   0.341  1.2332  1.5160  0.8036
 7363TIP3   OH243579   6.162   5.868   5.533  0.2225  0.1691  1.2970
 7363TIP3    H143580   6.113   5.787   5.548  1.2874 -0.4678  1.4765
 7363TIP3    H243581   6.189   5.863   5.441 -2.7001  2.0480  0.2121
 7364TIP3   OH243582   4.390   0.485  14.236 -0.1528 -0.0319 -0.4874
 7364TIP3    H143583   4.302   0.518  14.220 -0.5738 -1.0696 -0.4023
 7364TIP3    H243584   4.377   0.393  14.260  0.9406 -0.1587 -0.3292
 7365TIP3   OH243585   0.171   4.932  15.249 -0.5623  0.0002  0.0373
 7365TIP3    H143586   0.265   4.915  15.246 -0.6745 -0.8472  0.9861
 7365TIP3    H243587   0.144   4.934  15.157  0.3538  0.1195 -0.2399
 7366TIP3   OH243588   4.057   0.548   2.354 -0.0814 -0.0688 -0.1494
 7366TIP3    H143589   4.125   0.498   2.399 -0.2105  0.8803  1.1690
 7366TIP3    H243590   4.102   0.627   2.325 -0.2570 -0.1785 -0.7165
 7367TIP3   OH243591   5.432   5.481  13.456 -0.2035 -0.0575  0.0265
 7367TIP3    H143592   5.341   5.495  13.484 -0.2141 -0.3656  0.1481
 7367TIP3    H243593   5.426   5.472  13.361 -0.0500  2.0076 -0.2312
 7368TIP3   OH243594   5.189   3.265  15.401 -0.1628  0.4567  0.2844
 7368TIP3    H143595   5.263   3.249  15.343 -0.3393 -1.8605  0.5944
 7368TIP3    H243596   5.216   3.339  15.456  1.7186 -0.0406  0.0816
 7369TIP3   OH243597   4.272   0.149  11.995 -0.0354  0.1201  0.1501
 7369TIP3    H143598   4.211   0.122  12.064 -1.9619  0.0159 -1.5099
 7369TIP3    H243599   4.275   0.244  12.002 -1.2952  0.2200 -0.4450
 7370TIP3   OH243600   0.173   1.107  11.566 -0.0019  0.2685 -0.5614
 7370TIP3    H143601   0.220   1.126  11.647  1.8140  0.6254 -1.6347
 7370TIP3    H243602   0.112   1.037  11.589  0.1512  0.6710  1.1956
 7371TIP3   OH243603   1.257   4.832  12.317 -0.2921 -0.1996 -0.2913
 7371TIP3    H143604   1.283   4.752  12.272  0.9110 -0.4271  0.7573
 7371TIP3    H243605   1.340   4.876  12.338 -0.9176  1.1662 -0.5579
 7372TIP3   OH243606   4.990   4.237   4.186 -1.0146 -0.0715 -0.1945
 7372TIP3    H143607   5.042   4.184   4.125 -2.4122 -0.8344 -0.7578
 7372TIP3    H243608   5.038   4.320   4.192  0.4524 -0.8633 -0.4103
 7373TIP3   OH243609   4.594   0.860  10.599 -0.3428 -0.0438  0.1476
 7373TIP3    H143610   4.530   0.930  10.612 -0.3852  0.3564 -1.8806
 7373TIP3    H243611   4.542   0.783  10.579 -0.2414 -0.0490 -0.1038
 7374TIP3   OH243612   1.540   0.382  14.447 -0.1058 -0.1320  0.1662
 7374TIP3    H143613   1.627   0.403  14.413  0.3015 -1.6205  0.2138
 7374TIP3    H243614   1.510   0.309  14.393 -1.1537  0.0793  0.4365
 7375TIP3   OH243615   0.414   0.301  12.060 -0.0284 -0.1259 -0.0771
 7375TIP3    H143616   0.484   0.311  11.995  0.9705  0.1811  1.0136
 7375TIP3    H243617   0.454   0.250  12.131  0.0859  2.5551  1.9369
 7376TIP3   OH243618   4.835   4.060   1.743 -0.2973 -0.2173 -0.1185
 7376TIP3    H143619   4.910   4.077   1.685  0.1163 -2.1602 -0.2245
 7376TIP3    H243620   4.780   4.138   1.735  1.2699  0.8802 -0.7307
 7377TIP3   OH243621   1.496   0.188  15.027 -0.4322 -0.0351 -0.2561
 7377TIP3    H143622   1.578   0.238  15.028 -1.6526  2.1344  2.0685
 7377TIP3    H243623   1.459   0.205  14.940 -0.2937  2.3301  0.0821
 7378TIP3   OH243624   4.919   1.393  13.892  0.3742  0.1179  0.5583
 7378TIP3    H143625   4.961   1.475  13.917  1.8510  0.1106 -1.6324
 7378TIP3    H243626   4.983   1.349  13.836 -2.9531  0.8400 -4.4474
 7379TIP3   OH243627   6.429   2.914   1.998 -0.1393 -0.2708 -0.1486
 7379TIP3    H143628   6.408   3.000   2.035 -0.7771 -0.1353 -0.7900
 7379TIP3    H243629   6.524   2.909   2.003 -0.1597  0.0412  0.8256
 7380TIP3   OH243630   2.567   1.538   4.011  0.1768  0.0457 -0.1333
 7380TIP3    H143631   2.646   1.579   3.975  0.2636  0.9347  1.0271
 7380TIP3    H243632   2.581   1.444   3.997  1.1473  0.2330 -0.5156
 7381TIP3   OH243633   2.654   6.450   0.691  0.3396  0.4508  0.2664
 7381TIP3    H143634   2.628   6.404   0.611 -1.7784 -0.0003  1.1319
 7381TIP3    H243635   2.678   6.380   0.752 -1.5743  0.4941  1.1436
 7382TIP3   OH243636   5.821   2.422  11.635 -0.2995  0.1659  0.3971
 7382TIP3    H143637   5.834   2.330  11.658  0.7042  0.5718  1.5615
 7382TIP3    H243638   5.851   2.470  11.712  1.8956  1.5397 -1.1825
 7383TIP3   OH243639   3.024   5.242   2.923  0.3301  0.0086 -0.5402
 7383TIP3    H143640   2.956   5.179   2.898  1.1987 -0.5675 -1.5280
 7383TIP3    H243641   3.095   5.189   2.958 -0.3185  0.7178  2.0618
 7384TIP3   OH243642   5.146   6.678  11.072 -0.4857 -0.3541  0.7247
 7384TIP3    H143643   5.068   6.690  11.017 -0.9722  2.2003  1.8057
 7384TIP3    H243644   5.141   6.749  11.136  2.3783 -0.5563  1.3026
 7385TIP3   OH243645   4.736   6.415   1.136 -0.1498  0.1877  0.6477
 7385TIP3    H143646   4.708   6.327   1.162 -0.7672  0.0016 -0.5762
 7385TIP3    H243647   4.771   6.454   1.217 -0.8962 -0.7672  1.4566
 7386TIP3   OH243648   6.686   1.154  13.209  0.0713 -0.2078  0.4575
 7386TIP3    H143649   6.690   1.124  13.300 -0.8090 -0.4532  0.4225
 7386TIP3    H243650   6.679   1.074  13.158  1.4559 -0.1261  0.0926
 7387TIP3   OH243651   0.126   3.015   1.441  0.0497  0.2611  0.0442
 7387TIP3    H143652   0.118   3.102   1.401  0.5930  0.1501 -0.3184
 7387TIP3    H243653   0.216   2.988   1.421 -0.3002 -0.6287 -0.3303
 7388TIP3   OH243654   2.630   3.471  16.354 -0.9627 -0.2346 -0.5260
 7388TIP3    H143655   2.633   3.445  16.262 -2.3686 -4.3389  0.3954
 7388TIP3    H243656   2.707   3.430  16.393 -1.5699 -0.4131  0.5194
 7389TIP3   OH243657   1.615   6.295   2.331  0.4440 -0.8589 -0.1103
 7389TIP3    H143658   1.685   6.358   2.347 -1.9101  2.0955 -0.6193
 7389TIP3    H243659   1.612   6.286   2.235  0.2679 -1.1239 -0.0821
 7390TIP3   OH243660   2.878   3.486   3.571 -0.2178 -0.7158 -0.1910
 7390TIP3    H143661   2.873   3.422   3.643  1.0417 -0.9841 -0.3115
 7390TIP3    H243662   2.946   3.451   3.513 -1.3967 -0.6503 -1.6759
 7391TIP3   OH243663   3.906   1.628  13.161 -0.0039 -0.1546 -0.8243
 7391TIP3    H143664   3.937   1.630  13.071  0.5618  0.1817 -0.6212
 7391TIP3    H243665   3.935   1.543  13.194 -0.1879 -0.2668 -0.9477
 7392TIP3   OH243666   1.143   4.612  15.920 -0.4474  0.1263 -0.2322
 7392TIP3    H143667   1.056   4.618  15.880  0.1418  0.1646 -1.5632
 7392TIP3    H243668   1.171   4.703  15.930 -0.8125  0.1445  0.8449
 7393TIP3   OH243669   0.949   5.890  10.765  0.7610  0.4116 -0.4335
 7393TIP3    H143670   0.934   5.881  10.671  0.7620  0.0373 -0.4003
 7393TIP3    H243671   1.012   5.821  10.786 -1.4211 -1.4498  0.3578
 7394TIP3   OH243672   5.903   5.475  16.422  0.1613  0.0150  0.2463
 7394TIP3    H143673   5.833   5.411  16.432  0.2015  0.0342  0.7072
 7394TIP3    H243674   5.979   5.424  16.393 -0.0754  0.0157 -0.3802
 7395TIP3   OH243675   3.545   0.337  13.586  0.4124 -0.4267  0.2241
 7395TIP3    H143676   3.473   0.301  13.638  1.4240 -0.9835  1.2583
 7395TIP3    H243677   3.501   0.389  13.518 -1.0128 -2.0350 -0.1422
 7396TIP3   OH243678   1.182   3.358   3.557  0.7970  0.3151  0.1737
 7396TIP3    H143679   1.238   3.294   3.513  0.9892  0.3187  0.4101
 7396TIP3    H243680   1.225   3.442   3.542 -0.5228  0.7072 -1.9185
 7397TIP3   OH243681   6.158   4.138  15.307 -0.2818 -0.0686  0.5540
 7397TIP3    H143682   6.169   4.201  15.379 -1.5348  0.2939  0.4572
 7397TIP3    H243683   6.174   4.053  15.348  1.3366  0.2756  0.7061
 7398TIP3   OH243684   3.087   0.198   6.110 -0.3048  0.0812  0.0578
 7398TIP3    H143685   3.105   0.181   6.203  0.5388 -0.4200 -0.1818
 7398TIP3    H243686   3.115   0.119   6.065  0.1300  0.6544 -0.7147
 7399TIP3   OH243687   5.138   6.249   4.555  0.4294  0.2386  0.7949
 7399TIP3    H143688   5.223   6.284   4.529  0.6103 -1.9746 -2.0835
 7399TIP3    H243689   5.075   6.313   4.522  0.9024  1.6404  2.5042
 7400TIP3   OH243690   1.211   6.356   4.562 -0.0370  0.1480 -0.2199
 7400TIP3    H143691   1.201   6.443   4.601  0.1976  0.2865 -0.4667
 7400TIP3    H243692   1.304   6.336   4.571 -0.1402 -0.1991  0.0906
 7401TIP3   OH243693   5.324   5.484  16.249  0.6050  0.0703  0.0498
 7401TIP3    H143694   5.236   5.453  16.271  1.2837 -2.1353 -0.1335
 7401TIP3    H243695   5.364   5.504  16.333  0.0639  0.7444  0.1562
 7402TIP3   OH243696   4.132   2.671   1.099  0.3152  0.0844  0.7335
 7402TIP3    H143697   4.170   2.685   1.012  0.4558 -2.8381  0.2221
 7402TIP3    H243698   4.203   2.635   1.151 -0.4276 -0.7010  1.2420
 7403TIP3   OH243699   0.961   5.029  14.076 -0.2316 -0.7699  0.0905
 7403TIP3    H143700   1.034   5.080  14.041 -1.4892 -0.4840 -2.3029
 7403TIP3    H243701   1.004   4.956  14.122  1.5729 -0.3359 -0.7955
 7404TIP3   OH243702   5.978   2.019  12.571  0.0287 -0.1319  0.4855
 7404TIP3    H143703   6.037   1.949  12.544  0.2702 -0.4382  1.7715
 7404TIP3    H243704   6.036   2.095  12.582 -0.2589  0.3653 -1.1030
 7405TIP3   OH243705   4.809   1.777   0.940  0.1027 -0.0858  0.4482
 7405TIP3    H143706   4.723   1.736   0.948 -1.2072  2.5529  1.1689
 7405TIP3    H243707   4.815   1.834   1.017  1.2721  1.8651 -0.9962
 7406TIP3   OH243708   3.290   3.891   1.157 -0.0673 -0.3987 -0.0925
 7406TIP3    H143709   3.265   3.810   1.201 -2.1223  0.3621  0.2681
 7406TIP3    H243710   3.219   3.952   1.178 -0.1471  0.5828 -2.8643
 7407TIP3   OH243711   1.646   6.475  14.074 -0.2462  0.0394 -0.9451
 7407TIP3    H143712   1.722   6.526  14.045  0.6226 -1.4963 -1.5188
 7407TIP3    H243713   1.628   6.416  14.001 -1.4405 -0.2368 -0.4514
 7408TIP3   OH243714   5.837   0.592   2.105  0.1581 -0.1746  0.3201
 7408TIP3    H143715   5.883   0.573   2.187  0.2848 -0.6123  0.1486
 7408TIP3    H243716   5.748   0.561   2.120 -0.0981  0.6961  0.6609
 7409TIP3   OH243717   3.966   1.041  14.702  0.1128  0.0969  0.0960
 7409TIP3    H143718   3.876   1.010  14.714  0.4237 -1.3615 -1.0637
 7409TIP3    H243719   4.003   0.983  14.636  1.5171  1.4995 -0.4185
 7410TIP3   OH243720   2.345   1.010   1.270  0.4323  0.0369  0.7845
 7410TIP3    H143721   2.257   1.049   1.268  0.4767  0.2628  2.2284
 7410TIP3    H243722   2.401   1.076   1.230  0.1365  0.4328  1.0115
 7411TIP3   OH243723   3.973   2.670   4.201 -0.1818  0.2574 -0.4700
 7411TIP3    H143724   3.909   2.608   4.167 -2.3149  2.6002 -0.9938
 7411TIP3    H243725   4.017   2.622   4.271 -1.5217 -1.9094 -1.0050
 7412TIP3   OH243726   5.129   0.718   3.510 -0.6091  0.4253 -0.0036
 7412TIP3    H143727   5.110   0.773   3.433 -1.1340 -0.4190 -0.4910
 7412TIP3    H243728   5.224   0.723   3.519 -0.7106  2.1648  0.5439
 7413TIP3   OH243729   0.106   0.509  15.199  0.2643 -0.0136 -0.1689
 7413TIP3    H143730   0.124   0.599  15.226  2.0991 -0.6237  0.8219
 7413TIP3    H243731   0.104   0.459  15.281  1.4898 -1.2133 -0.8229
 7414TIP3   OH243732   2.507   2.682  12.438 -0.3403 -0.3366 -0.1838
 7414TIP3    H143733   2.491   2.680  12.344  1.0452 -2.1602 -0.4317
 7414TIP3    H243734   2.572   2.613  12.453  0.6489  0.9557  1.8973
 7415TIP3   OH243735   6.142   6.722   3.750 -0.5593  0.1687 -0.2936
 7415TIP3    H143736   6.213   6.768   3.705 -0.1327  1.5500  1.6815
 7415TIP3    H243737   6.062   6.760   3.714 -0.2686  0.1051 -1.0256
 7416TIP3   OH243738   0.091   0.557  10.959  0.4068 -0.1495 -0.2283
 7416TIP3    H143739   0.024   0.617  10.989  1.3232  0.3715  0.8222
 7416TIP3    H243740   0.121   0.594  10.876  2.5054  2.1573  1.4181
 7417TIP3   OH243741   3.306   2.887  14.637  0.0380  0.1679  0.0432
 7417TIP3    H143742   3.313   2.857  14.546  3.1434 -0.7200  0.4354
 7417TIP3    H243743   3.329   2.980  14.633 -1.1564  0.4610 -0.2095
 7418TIP3   OH243744   0.532   3.289  15.900  0.1520  0.0950  0.7003
 7418TIP3    H143745   0.503   3.217  15.844  0.8549 -0.4318  0.9964
 7418TIP3    H243746   0.611   3.322  15.858  0.1625  0.3089  0.8823
 7419TIP3   OH243747   3.692   5.741  15.277  0.4318  0.2438  0.1283
 7419TIP3    H143748   3.632   5.754  15.351 -0.6016 -0.0481 -0.6381
 7419TIP3    H243749   3.720   5.829  15.253 -0.7524  0.5122 -0.3486
 7420TIP3   OH243750   3.814   4.497   0.132 -0.5939 -0.1889 -0.1608
 7420TIP3    H143751   3.845   4.513   0.043  0.4239 -1.7785 -0.1283
 7420TIP3    H243752   3.800   4.585   0.168 -1.5525  0.4913 -2.0340
 7421TIP3   OH243753   0.532   1.840  15.420 -0.5102 -0.7142 -0.4314
 7421TIP3    H143754   0.498   1.756  15.452  0.6737 -1.3671 -0.8205
 7421TIP3    H243755   0.618   1.848  15.460 -0.8853  0.6644  0.1434
 7422TIP3   OH243756   4.295   6.656  15.136 -0.1339  0.4551 -0.2985
 7422TIP3    H143757   4.362   6.677  15.200  0.9590 -1.1519 -0.8498
 7422TIP3    H243758   4.337   6.669  15.051  0.0619 -2.0001 -0.6662
 7423TIP3   OH243759   6.684   5.831  13.872  0.3170 -0.4285  0.0805
 7423TIP3    H143760   6.773   5.798  13.862 -0.4345 -3.3136  1.6466
 7423TIP3    H243761   6.681   5.866  13.961 -0.1594 -0.6112  0.1420
 7424TIP3   OH243762   6.094   2.562  14.161 -0.1695 -0.2161 -0.1904
 7424TIP3    H143763   6.179   2.606  14.167  0.1954 -1.1551  2.9561
 7424TIP3    H243764   6.039   2.623  14.111  1.2937  2.2275  1.0229
 7425TIP3   OH243765   1.846   6.350   0.044  0.0751  0.1443 -0.3110
 7425TIP3    H143766   1.852   6.412  -0.029 -0.5463  1.6486  0.8634
 7425TIP3    H243767   1.791   6.279   0.010 -0.3153  0.8763 -1.2630
 7426TIP3   OH243768   0.649   4.474  16.328 -1.0103  0.4958 -0.0949
 7426TIP3    H143769   0.607   4.516  16.252 -0.4067  0.1406 -0.6396
 7426TIP3    H243770   0.741   4.465  16.302 -0.4948  1.6132  1.2244
 7427TIP3   OH243771   0.055   3.498  15.720  0.2395 -0.4820 -0.2399
 7427TIP3    H143772   0.132   3.531  15.674 -0.3424  0.9919 -0.1952
 7427TIP3    H243773   0.086   3.482  15.809 -0.0484  2.6275  0.5277
 7428TIP3   OH243774   2.080   4.358  12.487  1.0060 -0.1857  0.1256
 7428TIP3    H143775   1.999   4.338  12.535  0.5414 -0.1393 -0.6238
 7428TIP3    H243776   2.140   4.288  12.513  0.0436 -1.4734 -0.9166
 7429TIP3   OH243777   1.759   0.789  14.552 -0.1563  0.7547  0.2308
 7429TIP3    H143778   1.838   0.822  14.593  0.0027  0.0819  0.4730
 7429TIP3    H243779   1.776   0.696  14.537  0.5264  1.2875 -3.0157
 7430TIP3   OH243780   1.872   2.687   2.102  0.7184 -0.6170 -0.2050
 7430TIP3    H143781   1.791   2.735   2.087  0.7794 -0.2440  0.6016
 7430TIP3    H243782   1.858   2.603   2.059  0.5347  0.0448 -1.4659
 7431TIP3   OH243783   5.208   2.269  16.031 -0.4828 -0.2576 -0.2945
 7431TIP3    H143784   5.261   2.258  16.110 -0.9439  0.8149  0.1903
 7431TIP3    H243785   5.140   2.201  16.037 -1.3857  0.7220  0.9885
 7432TIP3   OH243786   0.094   4.872  14.444  0.6165  0.5095 -1.3586
 7432TIP3    H143787   0.007   4.906  14.465  0.1899 -2.0157  1.6182
 7432TIP3    H243788   0.079   4.782  14.416  2.2328  0.3349 -1.8107
 7433TIP3   OH243789   6.066   5.497   1.410 -0.3224  0.2397 -0.4041
 7433TIP3    H143790   6.074   5.585   1.447  0.4885 -0.0915  0.2466
 7433TIP3    H243791   5.982   5.464   1.442 -0.3140  0.5218 -0.0911
 7434TIP3   OH243792   4.616   4.336  16.484 -0.7564 -0.1226  0.5838
 7434TIP3    H143793   4.623   4.428  16.461 -2.0423 -0.2905 -0.5929
 7434TIP3    H243794   4.700   4.315  16.526 -0.0629  1.3105 -0.0317
 7435TIP3   OH243795   5.553   1.534  14.381 -0.3073  0.2361  0.5498
 7435TIP3    H143796   5.614   1.504  14.448 -0.2180 -0.1579  0.2964
 7435TIP3    H243797   5.605   1.540  14.301 -0.8914 -1.5238 -0.0129
 7436TIP3   OH243798   5.237   0.036  13.742 -0.2376 -0.1905  0.0005
 7436TIP3    H143799   5.250   0.111  13.684  0.7401  0.5213  1.0869
 7436TIP3    H243800   5.169   0.065  13.803 -0.4950 -0.5357 -0.1162
 7437TIP3   OH243801   2.735   4.466   4.372  0.2254  0.0874  0.4859
 7437TIP3    H143802   2.686   4.448   4.292 -0.1948 -1.6415  1.0909
 7437TIP3    H243803   2.674   4.445   4.443  0.8893  0.7070  1.2594
 7438TIP3   OH243804   6.393   3.638   1.695  0.5510  0.5780 -0.3556
 7438TIP3    H143805   6.413   3.653   1.787  0.2564  1.0652 -0.3708
 7438TIP3    H243806   6.413   3.545   1.681 -0.8126  0.1256  0.5716
 7439TIP3   OH243807   3.774   2.505  16.879  0.4966 -0.2889  0.3094
 7439TIP3    H143808   3.756   2.425  16.928  2.6685 -1.1862 -0.2735
 7439TIP3    H243809   3.868   2.505  16.866  0.3112  1.3547 -1.4729
 7440TIP3   OH243810   1.957   4.003   1.831 -0.1442 -0.0651 -0.0787
 7440TIP3    H143811   1.874   3.993   1.877  0.3474 -1.9683  0.4753
 7440TIP3    H243812   1.942   3.961   1.746  0.0337  0.2597 -0.2717
 7441TIP3   OH243813   3.498   6.597   0.180  0.8522 -0.1799 -0.4939
 7441TIP3    H143814   3.541   6.601   0.266  0.9077  1.1554 -0.5760
 7441TIP3    H243815   3.451   6.680   0.172  0.7882 -0.3185 -1.7347
 7442TIP3   OH243816   2.924   6.259   4.678  0.1383  0.1546  0.5871
 7442TIP3    H143817   2.906   6.297   4.764  2.8145  2.3439  0.3399
 7442TIP3    H243818   2.898   6.327   4.616  0.2618 -0.4969 -0.1951
 7443TIP3   OH243819   6.513   5.638  15.385  0.2887 -0.1099 -0.2842
 7443TIP3    H143820   6.462   5.564  15.352 -0.0044  0.2443 -0.6208
 7443TIP3    H243821   6.546   5.681  15.306  2.9964 -1.6126 -0.1206
 7444TIP3   OH243822   4.695   5.579  11.749 -0.5656 -0.0434  0.1886
 7444TIP3    H143823   4.790   5.587  11.749 -0.6146  0.6041  0.1398
 7444TIP3    H243824   4.665   5.639  11.681 -1.0317  0.0967  0.5063
 7445TIP3   OH243825   3.921   4.746   4.428 -0.6958  0.3645 -0.1755
 7445TIP3    H143826   3.832   4.754   4.394 -0.1668  2.3003 -1.2817
 7445TIP3    H243827   3.917   4.790   4.513 -0.8035  0.4020 -0.1988
 7446TIP3   OH243828   3.260   1.358  15.544 -0.2855 -0.5341  0.4723
 7446TIP3    H143829   3.168   1.378  15.559 -0.6299 -0.6873 -1.3208
 7446TIP3    H243830   3.260   1.267  15.515  0.4465 -0.5537  0.5171
 7447TIP3   OH243831   4.828   5.351  15.916 -0.4925 -0.1195  0.0175
 7447TIP3    H143832   4.923   5.365  15.920 -0.7585  2.1623  0.0975
 7447TIP3    H243833   4.796   5.421  15.859 -1.9856 -1.9263 -1.4769
 7448TIP3   OH243834   2.510   6.569  11.926  0.7441  0.2432 -0.0023
 7448TIP3    H143835   2.475   6.585  12.013  1.2609 -1.2610  0.4998
 7448TIP3    H243836   2.435   6.584  11.867 -0.2145 -0.9429  0.8872
 7449TIP3   OH243837   3.402   0.649  14.767 -0.3478  0.9065  0.0529
 7449TIP3    H143838   3.354   0.573  14.733 -2.2741  2.2519 -0.4676
 7449TIP3    H243839   3.336   0.719  14.768  1.1200  2.3359  1.3713
 7450TIP3   OH243840   2.664   2.717   2.878 -0.3798  0.4533 -0.0043
 7450TIP3    H143841   2.622   2.754   2.800  0.8907  2.9379  0.4017
 7450TIP3    H243842   2.609   2.747   2.950 -0.1223  0.3105  0.2485
 7451TIP3   OH243843   3.207   5.924   5.836 -0.0390  0.7135  0.3622
 7451TIP3    H143844   3.189   5.981   5.761 -3.3373 -0.2563  0.2839
 7451TIP3    H243845   3.289   5.958   5.871 -0.1808  3.4539 -1.5665
 7452TIP3   OH243846   4.514   2.683  10.828  0.5429  0.3040  0.0419
 7452TIP3    H143847   4.602   2.700  10.796  0.0882  0.7655 -1.0138
 7452TIP3    H243848   4.457   2.699  10.753 -0.3392 -1.3914  0.2824
 7453TIP3   OH243849   5.309   5.198   5.989 -0.3355 -0.5425  0.0479
 7453TIP3    H143850   5.353   5.119   5.957  1.4566  0.5181 -0.1906
 7453TIP3    H243851   5.232   5.206   5.932  0.2260 -1.3304 -0.8696
 7454TIP3   OH243852   3.572   6.755  15.173  0.4355  0.5150  0.2105
 7454TIP3    H143853   3.607   6.840  15.145 -0.4190  0.1561 -2.1745
 7454TIP3    H243854   3.477   6.768  15.175  0.2208 -0.5754 -1.1054
 7455TIP3   OH243855   6.181   3.588   1.019  0.3770  0.2008 -0.0497
 7455TIP3    H143856   6.163   3.501   1.056  0.2235 -0.1417 -0.9034
 7455TIP3    H243857   6.218   3.570   0.932 -2.7397  0.9472 -1.6995
 7456TIP3   OH243858   2.066   3.538   2.897  0.7549 -0.2293  0.0958
 7456TIP3    H143859   2.096   3.605   2.836  0.8768  0.7980  1.2534
 7456TIP3    H243860   2.141   3.481   2.911  0.7951 -0.3304 -0.5098
 7457TIP3   OH243861   4.718   3.950   5.031 -0.2382  0.5681 -0.2912
 7457TIP3    H143862   4.788   4.000   4.988 -0.2882 -0.0141 -1.0593
 7457TIP3    H243863   4.658   3.927   4.961 -1.5416  1.5688  0.4385
 7458TIP3   OH243864   6.222   3.647  13.925 -0.3755 -0.5137  0.5509
 7458TIP3    H143865   6.254   3.692  13.847  1.5788 -1.1376  0.9350
 7458TIP3    H243866   6.272   3.566  13.928  0.9847  0.3056  3.4325
 7459TIP3   OH243867   3.215   2.021   4.859  0.2129  0.3444  0.1465
 7459TIP3    H143868   3.273   1.959   4.817  1.3244  1.2073  0.3420
 7459TIP3    H243869   3.129   2.006   4.820  0.2982 -1.7450  0.6857
 7460TIP3   OH243870   6.051   1.001   5.853 -0.4205  0.3908  0.3006
 7460TIP3    H143871   6.034   1.020   5.761  1.5210  0.2705 -0.1215
 7460TIP3    H243872   6.025   0.909   5.864  2.2400 -0.6276 -0.9969
 7461TIP3   OH243873   0.879   6.475  12.093  0.1984  0.1024  0.6599
 7461TIP3    H143874   0.897   6.387  12.062  1.0661  0.8712 -1.2138
 7461TIP3    H243875   0.934   6.485  12.171  0.7397 -0.7237  0.3951
 7462TIP3   OH243876   3.953   3.286   3.785  0.4881  0.0943  0.4410
 7462TIP3    H143877   3.927   3.291   3.877  0.0193 -2.5936  0.5431
 7462TIP3    H243878   3.980   3.375   3.763  0.8021  0.7865  3.2144
 7463TIP3   OH243879   6.228   2.847  14.588 -0.1887 -0.0668  0.2623
 7463TIP3    H143880   6.266   2.761  14.571 -0.1554 -0.2181  1.0713
 7463TIP3    H243881   6.162   2.858  14.519  0.5404 -0.2769 -0.4828
 7464TIP3   OH243882   4.947   1.983  16.791  0.2215 -0.4493  0.0552
 7464TIP3    H143883   4.916   2.043  16.724 -1.3104 -1.4605 -0.1821
 7464TIP3    H243884   5.039   1.968  16.769  1.0230  2.6876  0.8326
 7465TIP3   OH243885   2.009   0.270   1.681 -0.5206  0.1721 -0.0751
 7465TIP3    H143886   2.056   0.186   1.687 -1.9729 -0.6272  0.5661
 7465TIP3    H243887   2.036   0.306   1.597 -1.3954 -1.9015 -1.3065
 7466TIP3   OH243888   6.129   0.707   3.877  0.5397  0.3049  0.2745
 7466TIP3    H143889   6.156   0.790   3.838  0.6342  0.3675  0.4718
 7466TIP3    H243890   6.208   0.653   3.878  0.3837  0.0584 -0.2398
 7467TIP3   OH243891   4.333   6.748   3.658  0.3795 -0.4728 -0.3620
 7467TIP3    H143892   4.328   6.756   3.753  1.3365 -0.5702 -0.3014
 7467TIP3    H243893   4.253   6.791   3.627  0.1504 -0.2744  0.4689
 7468TIP3   OH243894   1.169   0.649   1.579  0.5561  0.3419 -0.0232
 7468TIP3    H143895   1.142   0.633   1.489  0.1218  0.8751  0.0098
 7468TIP3    H243896   1.108   0.598   1.632 -1.0433  2.2927  0.0984
 7469TIP3   OH243897   5.219   2.193   3.556  0.3889  0.0426 -0.7421
 7469TIP3    H143898   5.296   2.206   3.611 -0.8271  0.3867  0.9318
 7469TIP3    H243899   5.184   2.281   3.543 -1.4752 -0.3513  1.1703
 7470TIP3   OH243900   3.950   1.128  16.947 -0.3632 -0.1343 -1.5557
 7470TIP3    H143901   3.933   1.176  16.866 -0.7047 -0.9359 -1.9752
 7470TIP3    H243902   3.958   1.195  17.014  0.8359  0.6077 -2.4090
 7471TIP3   OH243903   4.507   1.650   3.179  0.3317 -0.0672 -0.3048
 7471TIP3    H143904   4.424   1.606   3.158  0.1236 -0.1198  0.5741
 7471TIP3    H243905   4.536   1.607   3.259  1.2832 -0.1329 -0.6774
 7472TIP3   OH243906   5.460   3.446   2.425 -0.4053 -0.2062  0.1855
 7472TIP3    H143907   5.406   3.413   2.497 -0.4656 -2.7647 -0.9582
 7472TIP3    H243908   5.408   3.431   2.347  0.6920  0.2284 -0.6561
 7473TIP3   OH243909   1.609   2.389   6.039  0.3756 -0.2554  0.2310
 7473TIP3    H143910   1.571   2.465   6.082 -0.9555  0.1273 -1.4682
 7473TIP3    H243911   1.539   2.323   6.041  0.1308 -0.1076 -1.5435
 7474TIP3   OH243912   5.339   2.312  13.818  0.4017 -0.1356 -0.1140
 7474TIP3    H143913   5.372   2.392  13.777  0.5599 -1.3283 -2.4872
 7474TIP3    H243914   5.249   2.334  13.842  1.1281  1.4294  1.4085
 7475TIP3   OH243915   4.127   4.504  14.432 -0.0009 -0.0255 -0.1901
 7475TIP3    H143916   4.175   4.519  14.513  0.1362 -0.8843 -0.1039
 7475TIP3    H243917   4.089   4.417  14.442 -2.7739  1.1363  0.3327
 7476TIP3   OH243918   4.933   1.133  11.304  0.0966  0.1078  0.1342
 7476TIP3    H143919   4.957   1.083  11.226 -0.6841 -1.6413  0.9461
 7476TIP3    H243920   4.847   1.169  11.284 -0.2463 -0.6083  0.2810
 7477TIP3   OH243921   1.556   0.945   0.944  0.3262 -0.6530  0.0125
 7477TIP3    H143922   1.494   0.897   0.890 -0.9076  0.5593  0.2817
 7477TIP3    H243923   1.501   0.996   1.003  1.5453  1.2969 -0.4464
 7478TIP3   OH243924   1.913   6.146   4.595  0.0997  0.1947 -0.5465
 7478TIP3    H143925   1.981   6.109   4.651 -0.9831  0.4031  0.9563
 7478TIP3    H243926   1.960   6.178   4.518  1.6639  0.1282  0.3421
 7479TIP3   OH243927   1.691   5.897   5.281 -0.0595 -0.5218 -0.0839
 7479TIP3    H143928   1.772   5.882   5.329  1.5171  1.2383 -1.9831
 7479TIP3    H243929   1.705   5.855   5.196 -2.1747 -2.2987  0.3713
 7480TIP3   OH243930   1.721   5.321   6.129 -0.8488 -0.2857  0.2052
 7480TIP3    H143931   1.709   5.354   6.217 -0.5886  1.0766 -0.2442
 7480TIP3    H243932   1.785   5.381   6.089 -1.7769 -0.2107 -1.2427
 7481TIP3   OH243933   1.398   5.661  14.299 -0.0995 -0.2345  0.5322
 7481TIP3    H143934   1.470   5.687  14.357 -0.1072  0.3496  0.2807
 7481TIP3    H243935   1.324   5.713  14.330 -0.2961 -0.4895  0.4861
 7482TIP3   OH243936   2.062   0.430  13.724 -0.2782  0.2771  0.3112
 7482TIP3    H143937   2.113   0.394  13.796 -1.1628 -0.2600  0.6924
 7482TIP3    H243938   2.016   0.354  13.687 -0.8960  0.7609  0.0649
 7483TIP3   OH243939   2.037   2.580   0.405  0.0949  0.0691 -0.7363
 7483TIP3    H143940   1.945   2.604   0.393 -0.1402 -0.0657  0.6577
 7483TIP3    H243941   2.043   2.491   0.370 -0.4936 -0.2032 -0.1743
 7484TIP3   OH243942   2.627   1.657  11.315 -0.8316  0.1723  0.2126
 7484TIP3    H143943   2.553   1.628  11.368 -0.3665  0.4967  1.0804
 7484TIP3    H243944   2.703   1.645  11.373  0.1895 -2.6346 -1.5196
 7485TIP3   OH243945   4.233   2.938  13.380  0.3199 -0.0961 -0.1791
 7485TIP3    H143946   4.315   2.903  13.344  1.3242  0.2189  1.6759
 7485TIP3    H243947   4.166   2.876  13.352  1.4152 -1.1417 -0.5608
 7486TIP3   OH243948   2.186   1.426  15.166  0.4010 -0.1692 -0.5746
 7486TIP3    H143949   2.248   1.499  15.170  0.4732 -0.2830  0.4665
 7486TIP3    H243950   2.191   1.385  15.252 -1.5885  0.2085 -0.2217
 7487TIP3   OH243951   4.934   3.469  15.646  0.0070  0.0101 -0.1292
 7487TIP3    H143952   4.877   3.411  15.595  0.5487 -2.1093  1.5112
 7487TIP3    H243953   4.978   3.410  15.708  2.1885  1.9139  0.2563
 7488TIP3   OH243954   6.085   6.814  13.432  0.4051 -0.0960 -0.4650
 7488TIP3    H143955   6.156   6.781  13.378  0.3718 -0.9780  0.0255
 7488TIP3    H243956   6.090   6.910  13.422  1.3161 -0.1761 -0.8459
 7489TIP3   OH243957   3.120   1.074  15.892  0.2248 -0.2933  0.6499
 7489TIP3    H143958   3.212   1.099  15.885 -0.3918  2.0432  0.0983
 7489TIP3    H243959   3.071   1.148  15.855 -1.9495 -0.6685  2.4936
 7490TIP3   OH243960   6.737   6.844   0.984 -0.0429 -0.1832  0.6182
 7490TIP3    H143961   6.685   6.912   0.941  1.9684  0.1062 -1.5668
 7490TIP3    H243962   6.673   6.782   1.018 -1.8687  1.7566  0.8754
 7491TIP3   OH243963   5.698   5.241  14.956 -0.0314  0.2146  0.0899
 7491TIP3    H143964   5.635   5.312  14.967 -0.8422 -0.5863  0.8056
 7491TIP3    H243965   5.725   5.246  14.865 -1.9359 -0.0773 -0.5174
 7492TIP3   OH243966   5.296   0.944  16.687 -0.2921 -0.0045  0.0697
 7492TIP3    H143967   5.341   1.000  16.750  0.8696 -0.6964 -0.1039
 7492TIP3    H243968   5.345   0.862  16.689 -0.0024  0.0607 -1.9612
 7493TIP3   OH243969   5.990   0.900  15.054  0.4287  0.3260  0.2952
 7493TIP3    H143970   5.963   0.849  14.978  0.5884 -1.0715  1.1535
 7493TIP3    H243971   6.067   0.855  15.089  0.0359  0.6015  1.6011
 7494TIP3   OH243972   6.347   4.565  15.533 -0.7417 -0.3230 -0.2558
 7494TIP3    H143973   6.278   4.581  15.468 -0.4991  0.6533 -0.2887
 7494TIP3    H243974   6.410   4.508  15.488  0.2238  1.5913 -1.4650
 7495TIP3   OH243975   4.010   1.980   1.966 -0.4735 -0.2373  0.7019
 7495TIP3    H143976   3.995   2.020   1.880 -0.9761 -1.0052  0.4134
 7495TIP3    H243977   4.028   2.053   2.024 -1.7442  0.4509  0.2746
 7496TIP3   OH243978   0.610   0.542   4.896 -0.0759 -0.3927  0.0473
 7496TIP3    H143979   0.538   0.492   4.858  0.3925 -2.3801  1.5722
 7496TIP3    H243980   0.682   0.479   4.902  0.9573  0.8251  0.9007
 7497TIP3   OH243981   2.810   0.638  12.863 -0.0171  0.0892 -0.0707
 7497TIP3    H143982   2.788   0.647  12.771 -1.1535 -2.4763 -0.1269
 7497TIP3    H243983   2.726   0.626  12.907  0.6327 -0.5011  1.0460
 7498TIP3   OH243984   3.688   1.838  14.347 -0.0019  0.2117 -0.6138
 7498TIP3    H143985   3.688   1.880  14.433  0.2685 -0.5532 -0.2334
 7498TIP3    H243986   3.673   1.745  14.365  0.7809 -0.0663 -1.3252
 7499TIP3   OH243987   5.341   3.388   1.179  0.3698 -0.0588  0.0037
 7499TIP3    H143988   5.288   3.387   1.258 -1.1757  2.8686 -0.8494
 7499TIP3    H243989   5.388   3.471   1.182  0.6837 -0.1156 -1.8628
 7500TIP3   OH243990   6.809   2.740  15.840  0.0491 -0.0561  0.4374
 7500TIP3    H143991   6.715   2.754  15.832  0.0621 -0.6916 -1.1873
 7500TIP3    H243992   6.823   2.724  15.933 -1.5122 -0.4429  0.6358
 7501TIP3   OH243993   0.213   3.833   3.628 -1.4282  0.3660  0.2112
 7501TIP3    H143994   0.171   3.865   3.549  0.5180  0.3031 -0.9053
 7501TIP3    H243995   0.295   3.883   3.634  0.9912 -3.0900 -0.7081
 7502TIP3   OH243996   1.356   5.820  13.723 -0.3387 -0.2726  0.6318
 7502TIP3    H143997   1.264   5.822  13.695 -0.0930 -0.4494 -0.1957
 7502TIP3    H243998   1.351   5.805  13.818 -1.1706 -0.0139  0.6397
 7503TIP3   OH243999   6.628   4.441  13.952  0.0036 -0.4302 -0.0187
 7503TIP3    H144000   6.557   4.463  13.892  1.1671 -0.1827 -1.3662
 7503TIP3    H244001   6.702   4.420  13.895  1.3819  0.5301  1.3313
 7504TIP3   OH244002   5.571   5.790  15.178  0.2027  0.0184 -0.0765
 7504TIP3    H144003   5.534   5.776  15.265 -0.8472 -2.4362 -0.8242
 7504TIP3    H244004   5.496   5.810  15.123  0.5747 -0.4488 -0.7659
 7505TIP3   OH244005   6.252   4.482  12.633 -0.2959 -0.2691  0.0962
 7505TIP3    H144006   6.217   4.564  12.669 -0.1500 -0.0081 -0.3445
 7505TIP3    H244007   6.344   4.483  12.658  0.0241  0.3564 -1.0428
 7506TIP3   OH244008   6.782   0.709   5.598  0.5828  0.4495  0.2917
 7506TIP3    H144009   6.700   0.758   5.595  0.7967  0.7835 -2.4040
 7506TIP3    H244010   6.840   0.755   5.537  3.0419  0.5619  2.5214
 7507TIP3   OH244011   3.268   4.004  16.974  0.3252  0.1651  0.4362
 7507TIP3    H144012   3.228   3.924  17.009  0.7703 -0.7533 -1.0176
 7507TIP3    H244013   3.194   4.059  16.949 -0.1282 -1.2075 -1.5490
 7508TIP3   OH244014   6.034   5.233  13.263  0.2345 -0.2105  0.7660
 7508TIP3    H144015   5.961   5.285  13.230  0.8686  0.5168  0.4576
 7508TIP3    H244016   6.082   5.292  13.321  0.3063 -0.8331  1.3575
 7509TIP3   OH244017   5.921   2.733   0.293  0.2230  0.0413  0.3363
 7509TIP3    H144018   5.999   2.787   0.306  2.1999 -2.6590  0.5309
 7509TIP3    H244019   5.905   2.737   0.198 -0.9199  2.4168  0.5398
 7510TIP3   OH244020   3.372   0.836   5.285  0.3845  0.1258 -0.0654
 7510TIP3    H144021   3.277   0.840   5.288  0.2916 -1.7141  0.4828
 7510TIP3    H244022   3.401   0.921   5.320 -1.0298  0.3759  0.5525
 7511TIP3   OH244023   0.975   6.841  16.861  0.2888 -0.2082  0.2241
 7511TIP3    H144024   1.043   6.841  16.794 -0.3440  0.3488 -0.4292
 7511TIP3    H244025   0.959   6.748  16.880  1.9478 -0.3400  1.1386
 7512TIP3   OH244026   6.162   6.043  16.923 -0.7199 -0.0996  0.0060
 7512TIP3    H144027   6.110   6.112  16.964 -0.0456 -0.3266  1.2929
 7512TIP3    H244028   6.099   5.974  16.901 -1.0335 -0.1827  1.1272
 7513TIP3   OH244029   5.936   5.008   3.548 -0.1227  0.3919 -0.2891
 7513TIP3    H144030   5.937   5.060   3.629 -1.0604 -1.0181  0.6864
 7513TIP3    H244031   6.022   4.965   3.547  0.4604  1.5275 -0.8376
 7514TIP3   OH244032   1.656   3.657   5.444 -0.2176  0.5742 -0.0627
 7514TIP3    H144033   1.633   3.569   5.416 -1.1037 -0.5976  3.7746
 7514TIP3    H244034   1.742   3.673   5.405 -1.2990 -0.6601 -3.2659
 7515TIP3   OH244035   0.690   4.340  14.301  0.1512  0.2514 -0.4277
 7515TIP3    H144036   0.643   4.276  14.249  0.5417  0.3544 -0.9202
 7515TIP3    H244037   0.622   4.390  14.345 -0.1598 -0.4122 -0.1389
 7516TIP3   OH244038   3.797   0.800   1.050  0.7409 -0.2684 -0.1483
 7516TIP3    H144039   3.776   0.756   1.132 -1.3861  0.4421 -0.2675
 7516TIP3    H244040   3.722   0.857   1.033  0.1707 -1.8080 -3.5710
 7517TIP3   OH244041   2.872   3.073   1.506  0.3685 -0.4555 -0.2774
 7517TIP3    H144042   2.781   3.055   1.528  0.0853 -0.7085 -1.5699
 7517TIP3    H244043   2.916   3.081   1.591 -0.9274  0.1090  0.3707
 7518TIP3   OH244044   4.553   0.555   2.694 -0.1492  0.5986 -0.0904
 7518TIP3    H144045   4.589   0.504   2.767  0.4555  0.3689 -0.5419
 7518TIP3    H244046   4.544   0.492   2.623 -1.3546  0.6797 -0.0284
 7519TIP3   OH244047   4.717   3.194   2.945 -0.1475  0.1061  0.2871
 7519TIP3    H144048   4.708   3.101   2.922 -1.3247 -0.3743  2.3779
 7519TIP3    H244049   4.753   3.235   2.866 -1.8751 -1.6946 -1.5673
 7520TIP3   OH244050   4.253   1.483  13.379 -0.0342 -0.3484  0.0404
 7520TIP3    H144051   4.271   1.564  13.331 -0.0517 -0.1983  0.2870
 7520TIP3    H244052   4.338   1.438  13.382  0.3803  0.4613  1.3915
 7521TIP3   OH244053   1.831   5.318  16.427  0.2168 -0.0716  0.0345
 7521TIP3    H144054   1.900   5.354  16.484 -0.1111  0.5512  0.0468
 7521TIP3    H244055   1.842   5.365  16.344 -0.8418  0.7839  0.3676
 7522TIP3   OH244056   1.551   0.635  16.332  0.1979  0.2034  0.2930
 7522TIP3    H144057   1.549   0.539  16.335 -2.1854  0.2261  1.6384
 7522TIP3    H244058   1.625   0.659  16.388 -0.3586 -0.8445  1.5256
 7523TIP3   OH244059   3.820   2.125  12.886 -0.3429 -0.3511 -0.2643
 7523TIP3    H144060   3.852   2.152  12.800 -1.0522  0.1455 -0.3855
 7523TIP3    H244061   3.736   2.084  12.868 -1.3601  1.3720  0.3369
 7524TIP3   OH244062   0.556   1.500   3.162  0.0786  0.0650 -0.4921
 7524TIP3    H144063   0.626   1.474   3.103 -1.1776 -0.7492 -1.6769
 7524TIP3    H244064   0.534   1.589   3.136 -0.6522 -0.3875 -1.4625
 7525TIP3   OH244065   4.785   5.275  13.481  0.3540  0.4633  0.7766
 7525TIP3    H144066   4.869   5.241  13.450  0.0137 -1.2902  1.6200
 7525TIP3    H244067   4.739   5.303  13.402  1.4480  0.8005  0.2429
 7526TIP3   OH244068   2.964   0.556   2.744  0.1488  0.1027 -0.1790
 7526TIP3    H144069   3.011   0.478   2.715 -0.8688 -1.0531  1.1839
 7526TIP3    H244070   3.033   0.621   2.759  0.9179 -0.1144 -2.4269
 7527TIP3   OH244071   6.123   3.948   5.288 -0.5310  0.6368  0.3283
 7527TIP3    H144072   6.061   3.922   5.220 -1.7474 -0.1201  1.6673
 7527TIP3    H244073   6.174   3.869   5.306  0.0620  0.9432  0.0430
 7528TIP3   OH244074   0.191   4.926   3.954 -0.3386  0.3207 -0.0481
 7528TIP3    H144075   0.277   4.970   3.959 -0.4810  0.4797  1.4713
 7528TIP3    H244076   0.131   4.987   3.997 -1.4079  0.5645 -1.7798
 7529TIP3   OH244077   0.664   6.708  16.750 -0.3143  0.3550  0.5808
 7529TIP3    H144078   0.631   6.768  16.682 -0.8118 -0.2196  0.3117
 7529TIP3    H244079   0.588   6.656  16.775  0.6686 -2.1429 -1.2313
 7530TIP3   OH244080   6.785   2.221   0.848  0.0391  0.0306  0.2804
 7530TIP3    H144081   6.781   2.156   0.917  1.5055 -0.3393  0.0603
 7530TIP3    H244082   6.780   2.171   0.767 -0.6777  0.3715  0.1050
 7531TIP3   OH244083   1.690   0.974   2.812  0.2981 -0.4286 -0.2173
 7531TIP3    H144084   1.629   0.942   2.879  2.5436 -0.5204  1.9243
 7531TIP3    H244085   1.731   0.895   2.777  0.6735 -0.2603 -0.1573
 7532TIP3   OH244086   6.806   1.283   1.790 -0.8170 -0.1873  0.3439
 7532TIP3    H144087   6.853   1.334   1.855 -1.8923  0.0574  0.9514
 7532TIP3    H244088   6.768   1.210   1.839  0.9436 -1.8064 -0.5491
 7533TIP3   OH244089   3.097   2.893  16.376  0.0891 -0.6017  0.1420
 7533TIP3    H144090   3.193   2.888  16.371  0.1793 -0.8909  1.6585
 7533TIP3    H244091   3.074   2.834  16.447 -1.1034  0.4454  0.6644
 7534TIP3   OH244092   0.246   5.494  11.591  0.4152 -0.6562 -0.1940
 7534TIP3    H144093   0.336   5.467  11.607  0.3384 -1.5974 -1.2479
 7534TIP3    H244094   0.208   5.422  11.541 -0.8909 -0.2174  0.1224
 7535TIP3   OH244095   5.747   4.494  13.365  0.2907  0.4675 -0.3003
 7535TIP3    H144096   5.712   4.524  13.281 -3.0686 -1.5451  0.1632
 7535TIP3    H244097   5.687   4.530  13.430  0.7481 -0.8603  0.9047
 7536TIP3   OH244098   2.686   6.131   2.652  0.0153 -0.1560 -0.0972
 7536TIP3    H144099   2.645   6.105   2.570 -1.0382  1.2481 -0.0527
 7536TIP3    H244100   2.716   6.220   2.637  1.5716 -0.5639  0.4381
 7537TIP3   OH244101   0.742   2.351  13.441  0.0243 -0.2555  0.1017
 7537TIP3    H144102   0.732   2.329  13.348 -2.2975  0.6669  0.0476
 7537TIP3    H244103   0.780   2.272  13.480 -1.5961 -1.8033 -1.1945
 7538TIP3   OH244104   0.453   4.974   2.488 -0.4170 -0.4385  0.6594
 7538TIP3    H144105   0.503   4.895   2.505 -0.5174 -1.1570 -1.9461
 7538TIP3    H244106   0.519   5.042   2.472 -0.3235 -0.4115  1.1485
 7539TIP3   OH244107   6.566   1.235  10.958 -0.1338 -0.9255  0.0295
 7539TIP3    H144108   6.483   1.278  10.938 -0.4703 -1.6868 -0.2488
 7539TIP3    H244109   6.604   1.215  10.873  0.1787 -0.8694  0.1556
 7540TIP3   OH244110   1.567   2.460  15.144 -0.3251 -0.2804 -0.4901
 7540TIP3    H144111   1.485   2.508  15.146  0.4141  1.0295 -0.3353
 7540TIP3    H244112   1.635   2.528  15.142  0.8012 -1.3018  0.7920
 7541TIP3   OH244113   6.218   1.717   4.750 -0.1479 -0.3151 -0.2711
 7541TIP3    H144114   6.262   1.648   4.700 -0.5956  0.8529 -2.4062
 7541TIP3    H244115   6.289   1.765   4.793  0.3549 -0.7032 -0.6588
 7542TIP3   OH244116   1.269   0.231   2.817  0.7232 -0.2634 -0.4344
 7542TIP3    H144117   1.269   0.140   2.845  1.6857 -0.1982 -0.1938
 7542TIP3    H244118   1.254   0.281   2.898  1.7565 -0.1527 -0.2945
 7543TIP3   OH244119   6.255   2.911  10.371 -0.1091  0.1274 -0.2164
 7543TIP3    H144120   6.164   2.891  10.347  0.5623 -1.3254 -1.7402
 7543TIP3    H244121   6.280   2.982  10.312 -0.4139  0.9830  0.6464
 7544TIP3   OH244122   5.414   6.631   4.744 -0.2840 -0.1525 -0.5296
 7544TIP3    H144123   5.401   6.606   4.835  1.2908 -2.1257 -0.7665
 7544TIP3    H244124   5.328   6.619   4.703 -0.9165  0.4155  0.6020
 7545TIP3   OH244125   1.731   2.021  12.449 -0.4021 -0.2152 -0.3639
 7545TIP3    H144126   1.695   2.109  12.442 -2.2415 -0.9683 -0.9541
 7545TIP3    H244127   1.718   1.997  12.542 -0.8144 -0.2076 -0.4153
 7546TIP3   OH244128   0.733   6.820  17.032  0.2752 -0.6447  0.5277
 7546TIP3    H144129   0.820   6.852  17.005 -0.7201  0.6892 -1.3463
 7546TIP3    H244130   0.716   6.746  16.973  0.1796 -1.0088  1.0024
 7547TIP3   OH244131   0.176   1.995   0.749 -0.1900 -0.2260 -0.4395
 7547TIP3    H144132   0.091   1.962   0.777 -0.1495 -0.9894 -1.1730
 7547TIP3    H244133   0.156   2.053   0.675 -0.0369 -0.9970 -1.1070
 7548TIP3   OH244134   5.568   3.190   3.216 -0.1059 -0.1840  0.0466
 7548TIP3    H144135   5.581   3.104   3.176  1.0212  0.5116 -1.1444
 7548TIP3    H244136   5.655   3.219   3.241 -0.4647  0.6505  0.3830
 7549TIP3   OH244137   4.853   1.713   0.607 -0.1309 -0.4192  0.1342
 7549TIP3    H144138   4.932   1.660   0.619  1.4170  1.8717  0.8148
 7549TIP3    H244139   4.879   1.801   0.637 -2.8851  0.4752  0.1446
 7550TIP3   OH244140   5.792   5.573  15.742  0.5674  0.2534 -0.3914
 7550TIP3    H144141   5.781   5.665  15.766  0.6607  0.4077 -0.9267
 7550TIP3    H244142   5.715   5.529  15.779  1.5148  0.1686  1.6602
 7551TIP3   OH244143   6.630   5.019  14.789  0.1738 -0.3594  0.1235
 7551TIP3    H144144   6.645   5.037  14.882  0.6378  1.1511 -0.2251
 7551TIP3    H244145   6.535   5.012  14.781 -0.0295  1.6976  0.3568
 7552TIP3   OH244146   2.207   5.286   5.271 -0.1119  0.5007  0.4803
 7552TIP3    H144147   2.154   5.347   5.220 -0.1950  0.6032  0.6896
 7552TIP3    H244148   2.276   5.259   5.211 -1.2162 -0.7392 -0.2642
 7553TIP3   OH244149   0.410   2.166  12.191 -0.1195 -0.2045 -0.4224
 7553TIP3    H144150   0.499   2.168  12.227 -0.4259 -0.3084  0.3470
 7553TIP3    H244151   0.389   2.258  12.176  0.2096 -0.1933 -0.8488
 7554TIP3   OH244152   5.882   6.214  14.546  0.2563  0.2141 -0.4723
 7554TIP3    H144153   5.832   6.135  14.527  0.0708  0.0884  0.5183
 7554TIP3    H244154   5.816   6.278  14.573  0.4027  0.7258 -1.2980
 7555TIP3   OH244155   0.391   4.849   4.677 -0.3222 -0.1669 -0.7493
 7555TIP3    H144156   0.428   4.762   4.689  2.8746  1.0221 -0.8648
 7555TIP3    H244157   0.374   4.881   4.765 -1.5767 -0.8886 -0.7108
 7556TIP3   OH244158   3.989   5.732   0.110  0.4026 -0.3129  0.6929
 7556TIP3    H144159   4.037   5.697   0.034 -1.1368 -0.0747 -0.4422
 7556TIP3    H244160   3.991   5.660   0.174  0.7605 -0.9465 -0.0085
 7557TIP3   OH244161   0.844   3.393   0.232 -0.0723 -0.7161 -0.5360
 7557TIP3    H144162   0.899   3.471   0.240  0.3116 -0.9855 -0.5131
 7557TIP3    H244163   0.828   3.386   0.137  0.2770 -0.8705 -0.5851
 7558TIP3   OH244164   5.832   5.940  16.650 -0.1832  0.0528  0.5839
 7558TIP3    H144165   5.751   5.984  16.625  0.0935  0.2643  0.0285
 7558TIP3    H244166   5.875   5.920  16.567  0.2724 -0.1697  0.8679
 7559TIP3   OH244167   2.836   1.684  13.323  0.8013 -0.3767 -0.5677
 7559TIP3    H144168   2.877   1.659  13.240  2.1267  0.9553 -0.3463
 7559TIP3    H244169   2.904   1.668  13.389 -0.1119 -1.0653  0.2264
 7560TIP3   OH244170   4.483   1.610   0.134 -0.7243 -0.5463 -0.6043
 7560TIP3    H144171   4.532   1.675   0.183 -1.7472 -0.8765  0.9153
 7560TIP3    H244172   4.518   1.616   0.045 -1.8850  3.2609 -0.9775
 7561TIP3   OH244173   1.744   6.224  14.200 -0.3181 -0.2983 -0.7425
 7561TIP3    H144174   1.667   6.168  14.212 -0.9812  0.8320  0.4737
 7561TIP3    H244175   1.709   6.307  14.169  0.0028  1.1941  2.4780
 7562TIP3   OH244176   2.599   5.050  11.795  0.0675  0.1276 -0.0174
 7562TIP3    H144177   2.640   4.968  11.824 -3.3665 -1.2193  1.5621
 7562TIP3    H244178   2.576   5.096  11.875 -0.3006  1.4512 -0.8475
 7563TIP3   OH244179   5.737   5.131  11.316  0.7926 -0.2257 -0.4152
 7563TIP3    H144180   5.829   5.103  11.323  0.6656 -0.2177  2.1312
 7563TIP3    H244181   5.738   5.224  11.337  0.2872 -0.0115 -1.2897
 7564TIP3   OH244182   2.490   5.025  15.844  0.4047  0.2797  0.4843
 7564TIP3    H144183   2.453   4.981  15.921  1.6483 -1.3673  0.1619
 7564TIP3    H244184   2.469   5.118  15.859 -2.3177 -0.3582  1.1432
 7565TIP3   OH244185   3.123   5.188   2.271  0.0613  0.0247 -0.5858
 7565TIP3    H144186   3.118   5.093   2.258  1.1983  0.0597 -1.3803
 7565TIP3    H244187   3.051   5.207   2.332  0.1118 -1.4074 -0.0276
 7566TIP3   OH244188   6.198   2.924  15.365  0.3565  0.2448  0.5668
 7566TIP3    H144189   6.262   2.992  15.389 -0.1521  0.7414  0.5247
 7566TIP3    H244190   6.239   2.878  15.292 -0.0256  1.6309 -0.5741
 7567TIP3   OH244191   4.500   4.031  16.088  0.0564  0.0445  0.2336
 7567TIP3    H144192   4.415   4.054  16.051 -0.8359  0.5898  2.5139
 7567TIP3    H244193   4.506   4.080  16.169  2.4766 -0.1713  0.2636
 7568TIP3   OH244194   5.224   5.035  11.547  0.3199 -0.4853 -0.1063
 7568TIP3    H144195   5.283   5.107  11.571  1.2928 -0.6300 -1.9309
 7568TIP3    H244196   5.162   5.031  11.620 -0.1951  2.6370 -0.2262
 7569TIP3   OH244197   1.748   2.102   4.469  0.1962 -0.6992 -0.2557
 7569TIP3    H144198   1.840   2.080   4.453  0.5471  0.2122  0.4467
 7569TIP3    H244199   1.712   2.122   4.383  0.4817 -1.6794 -0.6149
 7570TIP3   OH244200   2.730   2.336   0.390  0.1377  0.3868 -0.2520
 7570TIP3    H144201   2.702   2.400   0.325 -1.0867  0.3110  0.1649
 7570TIP3    H244202   2.763   2.262   0.338 -0.4410  0.4945 -0.7886
 7571TIP3   OH244203   1.241   5.625   2.372 -0.1846  0.1435 -0.3029
 7571TIP3    H144204   1.268   5.709   2.410 -3.4034  0.9333  0.5319
 7571TIP3    H244205   1.234   5.566   2.447 -0.3432 -0.1726 -0.5640
 7572TIP3   OH244206   0.914   3.174   5.814  0.6961 -0.2238  0.3845
 7572TIP3    H144207   0.962   3.237   5.867 -1.0362  1.7232 -0.2367
 7572TIP3    H244208   0.858   3.127   5.876  0.9728 -0.1743  0.6727
 7573TIP3   OH244209   3.788   5.814  11.277 -0.2344  0.1021  0.2974
 7573TIP3    H144210   3.796   5.735  11.329  1.1108  0.1609  0.2205
 7573TIP3    H244211   3.750   5.785  11.194 -0.1821 -0.3770  0.4394
 7574TIP3   OH244212   5.454   2.394  13.437 -0.5199 -0.0873  0.2077
 7574TIP3    H144213   5.417   2.482  13.433  2.7888  1.4742 -0.4079
 7574TIP3    H244214   5.472   2.379  13.530  0.4309  0.6617  0.1585
 7575TIP3   OH244215   3.763   5.627   2.757 -0.4631 -0.1085  0.2663
 7575TIP3    H144216   3.736   5.681   2.832 -0.2859  1.1382 -0.5251
 7575TIP3    H244217   3.684   5.580   2.731 -0.6536 -0.1520  0.9106
 7576TIP3   OH244218   6.697   3.002  11.230  0.4677 -0.8502 -0.1752
 7576TIP3    H144219   6.617   2.954  11.207 -0.7943  0.7625  0.6445
 7576TIP3    H244220   6.736   3.025  11.146 -0.7143 -0.4309 -0.6305
 7577TIP3   OH244221   3.967   5.692   1.701 -1.1540  0.6570 -0.1772
 7577TIP3    H144222   3.980   5.772   1.651 -0.1462 -0.0695 -1.1525
 7577TIP3    H244223   4.008   5.709   1.786  2.5352 -0.0054 -1.6332
 7578TIP3   OH244224   4.281   4.804   4.203  0.2436  0.4855  0.0045
 7578TIP3    H144225   4.247   4.715   4.195  0.7237  0.3969 -1.3536
 7578TIP3    H244226   4.203   4.860   4.210 -0.0651 -0.0007  0.5170
 7579TIP3   OH244227   2.492   0.817   4.265  0.2751 -0.8127 -0.0169
 7579TIP3    H144228   2.560   0.766   4.222  1.2424 -0.3308  0.8936
 7579TIP3    H244229   2.420   0.755   4.276  0.8065 -1.5190 -0.4012
 7580TIP3   OH244230   6.575   5.572  17.044 -0.3785 -0.2136 -0.0664
 7580TIP3    H144231   6.630   5.641  17.081  0.3554 -2.3748  3.1919
 7580TIP3    H244232   6.633   5.498  17.032 -1.7993 -1.3369 -0.2592
 7581TIP3   OH244233   3.669   2.518   3.667  0.0366  0.1477  0.1312
 7581TIP3    H144234   3.669   2.439   3.614 -1.1592  0.3345 -0.1653
 7581TIP3    H244235   3.761   2.545   3.670  0.4563 -1.2146  0.2064
 7582TIP3   OH244236   1.776   0.851  12.941 -0.0218  0.9220  0.0678
 7582TIP3    H144237   1.831   0.830  13.017 -0.9085 -2.6748 -0.1242
 7582TIP3    H244238   1.696   0.887  12.979  0.7081  2.0941  0.5823
 7583TIP3   OH244239   5.300   5.568  12.075 -0.5048 -0.0509 -0.0682
 7583TIP3    H144240   5.314   5.474  12.083 -0.1223 -0.0310 -0.4437
 7583TIP3    H244241   5.302   5.600  12.165 -2.0517 -0.5788  0.1760
 7584TIP3   OH244242   5.408   5.862  14.100 -0.4288  0.0742  0.2058
 7584TIP3    H144243   5.447   5.775  14.091 -1.2621 -0.2031 -0.9217
 7584TIP3    H244244   5.483   5.920  14.112  0.5582 -0.2671 -3.1998
 7585TIP3   OH244245   2.181   5.801   3.285  0.5030 -0.4464 -0.0133
 7585TIP3    H144246   2.214   5.727   3.235 -0.8843 -2.2235  1.5349
 7585TIP3    H244247   2.086   5.794   3.277  0.3374  0.9700  0.4656
 7586TIP3   OH244248   2.944   6.573   3.985 -0.1172  0.4217  0.7623
 7586TIP3    H144249   2.927   6.488   4.026  0.2836 -0.3901 -0.7168
 7586TIP3    H244250   3.020   6.559   3.929 -0.5553  1.5326 -0.1613
 7587TIP3   OH244251   0.739   0.375  11.359  0.1023  0.1266  0.3810
 7587TIP3    H144252   0.799   0.443  11.389  0.8814  0.0177 -0.8390
 7587TIP3    H244253   0.675   0.421  11.305  0.3655 -0.0328 -0.0749
 7588TIP3   OH244254   4.499   1.567  14.086  0.0121 -0.0460 -0.1881
 7588TIP3    H144255   4.471   1.646  14.040 -0.6449 -0.9364 -1.3696
 7588TIP3    H244256   4.587   1.587  14.117  0.3510  0.7071 -1.5655
 7589TIP3   OH244257   0.510   3.285   2.464  0.4445  0.2587  0.3172
 7589TIP3    H144258   0.444   3.302   2.397 -0.2206  0.3506  0.9742
 7589TIP3    H244259   0.459   3.271   2.544  1.1861 -0.5653  0.6586
 7590TIP3   OH244260   0.207   0.857  12.440  0.6084  0.4525  0.4854
 7590TIP3    H144261   0.284   0.837  12.492  0.1132 -1.2501  0.6051
 7590TIP3    H244262   0.184   0.774  12.397 -0.0782  1.3606 -0.9933
 7591TIP3   OH244263   5.126   4.696   1.072  0.5201 -0.0157  0.1895
 7591TIP3    H144264   5.100   4.611   1.108 -0.4153  0.4368  0.6320
 7591TIP3    H244265   5.105   4.690   0.979 -0.2437 -0.0221  0.3542
 7592TIP3   OH244266   4.567   6.557   3.329 -0.1945  0.5963 -0.0446
 7592TIP3    H144267   4.623   6.581   3.402 -0.0538 -1.7042  0.6988
 7592TIP3    H244268   4.622   6.569   3.251  1.1244 -0.9172  0.6124
 7593TIP3   OH244269   4.142   5.805   2.493  0.0092 -0.2714 -0.8256
 7593TIP3    H144270   4.218   5.857   2.520 -1.8750  3.3042 -1.7493
 7593TIP3    H244271   4.167   5.766   2.409  0.6939  1.2311 -1.3442
 7594TIP3   OH244272   2.281   1.559   5.325 -0.3427  0.3778  0.0144
 7594TIP3    H144273   2.199   1.580   5.369 -1.0251 -1.2148 -0.4103
 7594TIP3    H244274   2.255   1.503   5.251  1.1896 -1.1868  0.5705
 7595TIP3   OH244275   1.490   0.042   1.752  0.3710  0.2590  0.5362
 7595TIP3    H144276   1.481   0.126   1.798 -0.5924 -0.0146  0.8615
 7595TIP3    H244277   1.567   0.054   1.696 -1.4906  2.4952 -1.8226
 7596TIP3   OH244278   3.743   5.333   1.926  0.2125  0.0150 -0.1841
 7596TIP3    H144279   3.746   5.421   1.889  1.0591  0.7745  1.5723
 7596TIP3    H244280   3.796   5.280   1.866  1.1199  1.0833 -0.3669
 7597TIP3   OH244281   5.313   0.935  12.914 -0.1146  0.2450 -0.0254
 7597TIP3    H144282   5.288   0.921  13.006 -0.5483  1.5777  0.0785
 7597TIP3    H244283   5.365   1.015  12.916  0.8016 -0.3126 -0.8107
 7598TIP3   OH244284   5.117   3.878  14.467 -0.4270  0.2274  0.0186
 7598TIP3    H144285   5.150   3.946  14.526 -1.2531  0.3890  0.3071
 7598TIP3    H244286   5.032   3.910  14.437 -0.7995 -0.6350  0.1044
 7599TIP3   OH244287   6.190   3.810   0.377  0.5223 -0.0195 -0.5831
 7599TIP3    H144288   6.226   3.781   0.293  0.5823 -0.4838 -0.3960
 7599TIP3    H244289   6.250   3.776   0.443  0.2769  0.0317 -0.3283
 7600TIP3   OH244290   5.439   5.139   3.108  0.5865  0.1482  0.2506
 7600TIP3    H144291   5.368   5.148   3.171  0.7835  0.7940  0.3794
 7600TIP3    H244292   5.458   5.045   3.107 -0.2164 -0.0225  0.2646
 7601TIP3   OH244293   2.668   4.530  13.835  0.3309 -0.2206 -0.9773
 7601TIP3    H144294   2.686   4.505  13.745  1.2677  0.7506 -1.0776
 7601TIP3    H244295   2.753   4.549  13.873 -0.0496 -0.6880  0.1396
 7602TIP3   OH244296   3.142   6.029  15.627 -0.4112  0.1773  0.0552
 7602TIP3    H144297   3.193   6.092  15.678 -0.3764  0.2825 -0.1104
 7602TIP3    H244298   3.129   5.955  15.687  1.1254 -0.4494 -0.3446
 7603TIP3   OH244299   1.457   1.456   0.123 -0.4034  0.4227 -0.1869
 7603TIP3    H144300   1.494   1.371   0.097 -0.5889  0.6060 -1.0859
 7603TIP3    H244301   1.518   1.520   0.086 -0.8643  0.7003 -0.4643
 7604TIP3   OH244302   6.600   5.610   0.719 -0.7894  0.6401 -0.1831
 7604TIP3    H144303   6.598   5.618   0.814  0.0116 -0.6570 -0.0371
 7604TIP3    H244304   6.546   5.532   0.700  0.9612 -0.5370 -0.5707
 7605TIP3   OH244305   5.492   1.789  14.492  0.0333  0.0597  1.1452
 7605TIP3    H144306   5.550   1.759  14.422 -1.6878 -0.6097 -0.0630
 7605TIP3    H244307   5.521   1.740  14.569  0.8440 -0.5142  0.5041
 7606TIP3   OH244308   0.581   1.965   4.276  0.3284 -0.8576  0.8613
 7606TIP3    H144309   0.534   1.937   4.198  1.1875 -0.7203  0.2716
 7606TIP3    H244310   0.523   2.029   4.318  0.4759  0.2141 -0.4993
 7607TIP3   OH244311   2.614   1.427  14.679  0.6465 -0.7226  0.1788
 7607TIP3    H144312   2.703   1.397  14.665  0.9447  0.5887 -0.9606
 7607TIP3    H244313   2.588   1.466  14.595 -0.3310  0.5595  1.0244
 7608TIP3   OH244314   4.414   6.819  12.203  0.3622 -0.6445 -0.0655
 7608TIP3    H144315   4.505   6.808  12.174  0.1153 -1.3827 -0.6056
 7608TIP3    H244316   4.373   6.871  12.134 -0.0840 -1.9182 -0.7975
 7609TIP3   OH244317   1.226   6.368  13.274  0.7153 -0.1968 -0.0536
 7609TIP3    H144318   1.198   6.381  13.364 -1.2138 -0.2264 -0.6187
 7609TIP3    H244319   1.222   6.454  13.234  0.0256 -0.4378 -0.5181
 7610TIP3   OH244320   4.136   1.946   1.066 -0.0069  0.0727 -0.2474
 7610TIP3    H144321   4.131   1.912   1.155  2.5246 -2.7674 -1.0265
 7610TIP3    H244322   4.064   1.903   1.019  0.9501 -1.4535 -0.3742
 7611TIP3   OH244323   6.652   3.329   0.473 -0.4059  0.5985  0.0028
 7611TIP3    H144324   6.746   3.344   0.486 -0.3349 -0.3231  0.6674
 7611TIP3    H244325   6.642   3.314   0.379  0.0036  1.3561 -0.1698
 7612TIP3   OH244326   2.970   2.206  11.752 -0.3311 -0.5098 -0.0623
 7612TIP3    H144327   2.889   2.202  11.803 -0.7601  1.3601 -0.5435
 7612TIP3    H244328   3.039   2.186  11.815 -0.8204  1.8856  1.3353
 7613TIP3   OH244329   5.555   2.085  14.478 -0.0628 -0.7380  0.3830
 7613TIP3    H144330   5.545   2.107  14.386  1.6010 -0.1031  0.3266
 7613TIP3    H244331   5.581   1.993  14.479  0.6648 -0.5431  0.1560
 7614TIP3   OH244332   0.769   5.811  14.573  0.5320 -0.3689 -0.9491
 7614TIP3    H144333   0.757   5.901  14.542  0.4785 -0.2460 -0.5734
 7614TIP3    H244334   0.767   5.818  14.668 -1.6611 -1.0622 -0.9017
 7615TIP3   OH244335   4.791   0.246  13.259 -0.2062 -0.0897 -0.0752
 7615TIP3    H144336   4.884   0.231  13.272  0.5364  3.9598  0.6665
 7615TIP3    H244337   4.760   0.279  13.344 -1.5853  1.4588 -1.1220
 7616TIP3   OH244338   1.485   6.812   4.740 -0.1404 -0.2559  0.1640
 7616TIP3    H144339   1.570   6.848   4.765 -0.7546  1.0796  0.3840
 7616TIP3    H244340   1.421   6.872   4.776 -1.2061 -1.3253  0.1284
 7617TIP3   OH244341   3.088   2.263   3.470  0.5007 -0.4371  0.0632
 7617TIP3    H144342   3.157   2.266   3.404  0.7263  1.5148  0.3122
 7617TIP3    H244343   3.118   2.324   3.538 -1.0438 -0.2324  0.5914
 7618TIP3   OH244344   4.015   1.939   3.361  0.4486  0.2151  0.0115
 7618TIP3    H144345   4.023   1.939   3.457 -0.9343 -1.3382  0.1560
 7618TIP3    H244346   3.955   2.011   3.342 -0.5405 -0.4646  0.4687
 7619TIP3   OH244347   4.835   4.771  15.972 -0.3867  0.1081  0.1764
 7619TIP3    H144348   4.784   4.743  15.897 -1.2942 -0.1814  0.8941
 7619TIP3    H244349   4.802   4.719  16.045  2.0189 -1.2759  0.3857
 7620TIP3   OH244350   6.147   5.169  15.851 -0.3577 -0.3575 -0.1693
 7620TIP3    H144351   6.133   5.127  15.936 -0.8921 -2.1150 -1.0613
 7620TIP3    H244352   6.236   5.203  15.855 -0.0442 -1.2307  0.7785
 7621TIP3   OH244353   0.718   0.110  13.877 -0.1654 -0.1331 -0.1499
 7621TIP3    H144354   0.627   0.089  13.856 -0.0317 -0.6864 -0.1897
 7621TIP3    H244355   0.718   0.205  13.893 -1.2981 -0.5069  2.5579
 7622TIP3   OH244356   6.684   5.657   1.351  0.4732  0.2689 -0.0789
 7622TIP3    H144357   6.605   5.693   1.311  0.7014  0.2295 -0.5707
 7622TIP3    H244358   6.703   5.717   1.423  0.1734  0.4564 -0.1507
 7623TIP3   OH244359   4.682   1.239  13.863  0.0642  0.1641  0.5369
 7623TIP3    H144360   4.747   1.304  13.890 -0.4898  1.3028 -0.7481
 7623TIP3    H244361   4.604   1.290  13.844 -0.4908 -0.9227 -0.1943
 7624TIP3   OH244362   6.154   0.801   6.207  0.1485 -0.2860  0.0358
 7624TIP3    H144363   6.101   0.733   6.166 -1.7882 -0.6712  2.8993
 7624TIP3    H244364   6.222   0.753   6.254  1.1872  0.0468 -1.0721
 7625TIP3   OH244365   5.193   0.322   5.955 -0.2619  0.6804 -0.3220
 7625TIP3    H144366   5.214   0.409   5.989 -1.6190  0.8390  0.2048
 7625TIP3    H244367   5.109   0.301   5.996  0.4236 -1.2402  0.1989
 7626TIP3   OH244368   6.057   2.301   4.923 -0.4513  0.0427  0.3224
 7626TIP3    H144369   6.047   2.368   4.991 -0.7710 -0.3706  0.6862
 7626TIP3    H244370   5.976   2.251   4.926 -0.4358 -0.0324 -0.3146
 7627TIP3   OH244371   3.827   2.085   3.900  0.6021  0.7130 -0.3787
 7627TIP3    H144372   3.824   2.070   3.994  0.1983  0.8711 -0.3658
 7627TIP3    H244373   3.785   2.009   3.861 -1.2653  1.6665 -0.3206
 7628TIP3   OH244374   4.954   6.149   0.434  0.5041 -0.1875  0.2190
 7628TIP3    H144375   5.041   6.137   0.398  0.2473 -0.8491 -0.2036
 7628TIP3    H244376   4.907   6.069   0.411 -0.1795  0.1096  0.5405
 7629TIP3   OH244377   4.468   1.603  10.497 -0.1990  0.3360  0.0239
 7629TIP3    H144378   4.519   1.523  10.497 -0.0651  0.4178 -0.4674
 7629TIP3    H244379   4.406   1.592  10.425 -1.4063 -0.0914  1.0872
 7630TIP3   OH244380   1.239   0.950  11.527 -0.1890  0.3127  0.0710
 7630TIP3    H144381   1.218   0.939  11.434 -0.3206 -1.6149  0.2899
 7630TIP3    H244382   1.324   0.993  11.528  0.1492 -0.3013 -0.9664
 7631TIP3   OH244383   0.838   2.545   1.894  0.3128  0.2955  0.0998
 7631TIP3    H144384   0.892   2.610   1.849  1.6790  0.0023  1.2138
 7631TIP3    H244385   0.759   2.537   1.841 -0.2620  3.4043  0.3048
 7632TIP3   OH244386   1.414   0.218  11.193 -0.3309 -0.3037 -0.1961
 7632TIP3    H144387   1.490   0.244  11.245 -1.1764  0.4477  0.6855
 7632TIP3    H244388   1.393   0.296  11.141 -2.2832  0.5627  1.7491
 7633TIP3   OH244389   1.323   6.032  14.140  0.1625  0.0773 -0.0414
 7633TIP3    H144390   1.271   6.013  14.062 -1.6997  1.4658  0.7924
 7633TIP3    H244391   1.321   6.127  14.149  1.7598  0.0716  0.7881
 7634TIP3   OH244392   2.601   3.445  11.225  0.5855  0.0460  0.0300
 7634TIP3    H144393   2.530   3.504  11.251 -2.0413 -2.0519 -1.8240
 7634TIP3    H244394   2.630   3.477  11.140  0.7356 -0.0475  0.0455
 7635TIP3   OH244395   3.110   2.518  11.195  0.0309  0.7113  0.0607
 7635TIP3    H144396   3.083   2.569  11.271  0.4296  0.2825  0.4967
 7635TIP3    H244397   3.061   2.555  11.122 -2.0180 -0.2405  0.8655
 7636TIP3   OH244398   4.222   1.160  15.461  0.5811  0.1114 -0.1332
 7636TIP3    H144399   4.193   1.174  15.371 -3.3307  0.1395  0.9514
 7636TIP3    H244400   4.196   1.070  15.481 -2.3173  1.2554  2.0158
 7637TIP3   OH244401   2.380   0.070   0.567 -0.3520  0.0935  0.5737
 7637TIP3    H144402   2.398   0.071   0.661  2.4783 -1.1399  0.1255
 7637TIP3    H244403   2.458   0.032   0.528 -1.3049  0.9037 -2.3423
 7638TIP3   OH244404   3.706   6.827  15.850 -0.0539 -0.1537 -0.6152
 7638TIP3    H144405   3.717   6.922  15.859  0.2338 -0.0273 -2.0799
 7638TIP3    H244406   3.613   6.812  15.868 -0.0957  0.3959 -0.3562
 7639TIP3   OH244407   3.148   1.605   4.339 -0.4509 -0.1704  0.1111
 7639TIP3    H144408   3.164   1.700   4.342  0.2263 -0.1759 -1.7948
 7639TIP3    H244409   3.236   1.567   4.336 -0.7091 -0.9098  1.3718
 7640TIP3   OH244410   0.608   4.637  13.346  0.0509 -0.0094 -0.2710
 7640TIP3    H144411   0.632   4.545  13.330 -1.1019 -0.4320  0.2998
 7640TIP3    H244412   0.679   4.671  13.400 -0.5964 -1.2465  1.4553
 7641TIP3   OH244413   2.212   2.045   2.553  0.3118 -0.2144 -0.3903
 7641TIP3    H144414   2.214   2.113   2.619 -0.6555 -1.2107  0.7077
 7641TIP3    H244415   2.221   2.092   2.470  0.7662  1.1269  0.3896
 7642TIP3   OH244416   5.503   1.407  14.784  0.2135  0.3761  0.1672
 7642TIP3    H144417   5.416   1.366  14.789  0.1170  0.4195 -0.8852
 7642TIP3    H244418   5.563   1.341  14.820 -0.1700  0.0437  0.2036
 7643TIP3   OH244419   1.426   4.544  14.343  0.1074 -0.3287  0.4972
 7643TIP3    H144420   1.397   4.487  14.272 -0.7562  0.0123  0.5764
 7643TIP3    H244421   1.376   4.516  14.419 -0.4665  0.6554  0.4966
 7644TIP3   OH244422   1.362   2.786   0.325  0.2993  0.4697  0.6023
 7644TIP3    H144423   1.269   2.800   0.304  0.1519  0.3173  1.1396
 7644TIP3    H244424   1.393   2.872   0.352  0.5989  0.7602 -0.6329
 7645TIP3   OH244425   4.905   5.865  16.567  1.0082 -0.0470  0.0940
 7645TIP3    H144426   4.913   5.875  16.662  0.1522 -1.9186  0.4049
 7645TIP3    H244427   4.823   5.908  16.545  0.2757 -1.1797  0.5142
 7646TIP3   OH244428   1.052   1.827   3.418  0.3237 -0.5366 -0.2588
 7646TIP3    H144429   1.073   1.756   3.479  1.6375  0.2162  0.2172
 7646TIP3    H244430   1.115   1.896   3.439  0.5216 -0.0657 -2.1750
 7647TIP3   OH244431   1.439   3.306  13.998 -0.1912 -0.4301  0.2887
 7647TIP3    H144432   1.407   3.362  14.069 -0.0893  0.1023 -0.0816
 7647TIP3    H244433   1.364   3.249  13.977 -0.9762  0.8800 -0.6434
 7648TIP3   OH244434   1.154   2.938  13.197  0.8599  0.1863  0.0184
 7648TIP3    H144435   1.080   2.877  13.202  0.9270  0.1057  0.0358
 7648TIP3    H244436   1.114   3.022  13.173  0.6696  0.3195  0.7798
 7649TIP3   OH244437   2.013   0.701  14.932 -0.8257  0.0483 -0.9185
 7649TIP3    H144438   2.026   0.728  14.841 -2.0206  2.2050 -0.5159
 7649TIP3    H244439   1.920   0.712  14.948 -0.8514 -1.5506  0.2149
 7650TIP3   OH244440   0.658   5.131  14.878  0.4677  0.1751 -0.5115
 7650TIP3    H144441   0.604   5.107  14.803 -1.0433 -0.1837  0.6434
 7650TIP3    H244442   0.640   5.063  14.944  0.9631  1.0415  0.5515
 7651TIP3   OH244443   6.445   2.208  13.791 -0.2867  0.3920  0.0361
 7651TIP3    H144444   6.433   2.273  13.859  0.7111  1.4043 -0.7190
 7651TIP3    H244445   6.495   2.253  13.723 -2.1201 -0.2596 -1.8492
 7652TIP3   OH244446   3.577   0.107  15.384  0.2282 -0.5359  0.0327
 7652TIP3    H144447   3.494   0.060  15.393  0.3746 -0.7297  0.4502
 7652TIP3    H244448   3.613   0.079  15.300 -0.9890  0.9632 -1.0398
 7653TIP3   OH244449   0.511   1.032  16.213 -0.4246  0.2724  0.1277
 7653TIP3    H144450   0.461   1.084  16.275 -2.2173 -0.8427 -0.3101
 7653TIP3    H244451   0.560   1.097  16.161  0.3677  1.2632  2.0040
 7654TIP3   OH244452   1.843   1.249  11.389 -0.2224 -0.0998 -0.0438
 7654TIP3    H144453   1.858   1.221  11.480 -0.3094  0.9145  0.2898
 7654TIP3    H244454   1.749   1.240  11.376 -0.1247 -0.8663 -0.2474
 7655TIP3   OH244455   4.063   3.053  14.008  0.3425 -0.3261 -0.6053
 7655TIP3    H144456   4.033   2.995  14.078  0.5539 -0.3641 -0.5453
 7655TIP3    H244457   4.103   2.995  13.944  4.7114 -0.0203  1.4596
 7656TIP3   OH244458   1.871   3.210  12.192 -0.1948 -0.4957 -0.8753
 7656TIP3    H144459   1.800   3.229  12.132  0.4530  0.5399 -1.3476
 7656TIP3    H244460   1.829   3.198  12.277 -0.9732 -0.4600 -1.2507
 7657TIP3   OH244461   4.503   5.587   0.375 -0.2421 -0.0263  0.1293
 7657TIP3    H144462   4.552   5.595   0.292  0.4998 -1.6680  0.3643
 7657TIP3    H244463   4.542   5.653   0.432 -1.0850  1.4626 -0.9391
 7658TIP3   OH244464   5.901   3.132  11.762 -1.0942 -0.6438 -0.3275
 7658TIP3    H144465   5.905   3.041  11.792  1.1060 -0.7762 -0.8077
 7658TIP3    H244466   5.811   3.143  11.731 -2.0880 -1.9157  1.8521
 7659TIP3   OH244467   2.995   0.869  10.732 -0.6461 -0.3852  0.1723
 7659TIP3    H144468   3.077   0.830  10.702  0.7034  2.5205 -0.2080
 7659TIP3    H244469   2.934   0.854  10.660  0.6646  0.6639 -1.2124
 7660TIP3   OH244470   2.883   5.256   2.449  0.5608 -0.7020 -0.3539
 7660TIP3    H144471   2.906   5.196   2.520  0.2603 -0.5946 -0.1624
 7660TIP3    H244472   2.791   5.236   2.430  0.4385 -0.2652 -0.2445
 7661TIP3   OH244473   4.708   4.629   6.017  0.3035 -0.2341 -0.6446
 7661TIP3    H144474   4.613   4.623   6.026  0.3539 -0.5251 -0.2389
 7661TIP3    H244475   4.741   4.585   6.096  0.7803 -1.0530 -1.2905
 7662TIP3   OH244476   1.983   5.875   3.560 -0.5708 -0.0888 -0.3724
 7662TIP3    H144477   1.940   5.933   3.623  0.1863  0.5749 -0.4531
 7662TIP3    H244478   2.012   5.933   3.490  0.4015 -0.5247 -0.3477
 7663TIP3   OH244479   2.914   1.102   3.579 -0.2944 -0.2080  0.2828
 7663TIP3    H144480   2.845   1.146   3.530 -0.5579 -0.6711  0.2277
 7663TIP3    H244481   2.905   1.135   3.669 -0.6692 -0.3638  0.3021
 7664TIP3   OH244482   0.043   5.101  12.665 -0.7867 -0.1704  0.4696
 7664TIP3    H144483   0.019   5.178  12.716 -0.5066  1.2191 -1.3920
 7664TIP3    H244484   0.136   5.113  12.645 -1.0054 -0.3898 -0.7807
 7665TIP3   OH244485   4.197   3.619   1.666  0.0680  0.3529  0.0530
 7665TIP3    H144486   4.237   3.704   1.685  0.3255  0.2658 -0.0975
 7665TIP3    H244487   4.182   3.621   1.571  0.1775  0.1863  0.0321
 7666TIP3   OH244488   0.773   5.383  12.008  0.0042 -0.1446  0.0985
 7666TIP3    H144489   0.740   5.472  12.014  1.1711  0.3043  0.0966
 7666TIP3    H244490   0.705   5.329  12.048  0.1756  0.9701  2.0020
 7667TIP3   OH244491   4.767   1.196   2.448  0.0598  0.2270  0.1596
 7667TIP3    H144492   4.758   1.236   2.361  1.4036 -0.0007 -0.1186
 7667TIP3    H244493   4.741   1.265   2.509 -0.2908  0.6002 -0.4049
 7668TIP3   OH244494   2.766   2.649  12.655 -0.0398  0.2106  0.6293
 7668TIP3    H144495   2.766   2.745  12.656  0.3373  0.4840 -3.6735
 7668TIP3    H244496   2.858   2.625  12.645 -0.1752 -0.5676  1.2255
 7669TIP3   OH244497   6.671   0.048   3.145  0.2685  0.2202 -0.5481
 7669TIP3    H144498   6.645  -0.016   3.211  1.7395  1.6422  1.5356
 7669TIP3    H244499   6.589   0.082   3.110 -0.6072  0.2047  1.3705
 7670TIP3   OH244500   1.040   3.349   4.881 -0.4368  0.3273 -0.1124
 7670TIP3    H144501   1.021   3.443   4.889  0.0466  0.3013  1.9134
 7670TIP3    H244502   0.958   3.306   4.904  0.1210  0.2752  1.9888
 7671TIP3   OH244503   2.282   5.457  15.120 -0.4367 -0.1245 -0.6032
 7671TIP3    H144504   2.295   5.546  15.152  0.9309 -0.5106  0.0016
 7671TIP3    H244505   2.314   5.401  15.191 -3.8295 -1.2306  0.2626
 7672TIP3   OH244506   5.373   2.828  11.116  0.2538  0.5290 -0.1575
 7672TIP3    H144507   5.383   2.908  11.168  1.1601  2.0382 -2.5070
 7672TIP3    H244508   5.317   2.772  11.169 -1.5627  3.2491  1.0280
 7673TIP3   OH244509   6.440   1.711   6.528 -0.3428  0.7296 -0.5860
 7673TIP3    H144510   6.492   1.777   6.573  1.1102 -0.7491  0.0083
 7673TIP3    H244511   6.418   1.750   6.443  3.0952  0.8735 -1.5243
 7674TIP3   OH244512   0.060   3.132   5.774 -0.5182 -0.3598  0.3064
 7674TIP3    H144513  -0.030   3.106   5.795 -0.7542 -1.2671 -1.6060
 7674TIP3    H244514   0.070   3.112   5.681  1.3203  0.7826  0.2011
 7675TIP3   OH244515   5.905   0.360  13.033  0.3162  0.2248  0.0489
 7675TIP3    H144516   5.839   0.317  12.979 -1.2786  3.2759 -0.7039
 7675TIP3    H244517   5.888   0.327  13.122 -1.2258 -0.2359 -0.3791
 7676TIP3   OH244518   4.604   0.213  11.261  0.0144  0.4803 -0.1690
 7676TIP3    H144519   4.522   0.214  11.311  0.2422  2.4463  0.2169
 7676TIP3    H244520   4.618   0.304  11.236  3.1157  0.5995  1.5251
 7677TIP3   OH244521   4.657   0.775   0.968  0.0664 -0.5382 -0.0281
 7677TIP3    H144522   4.568   0.744   0.984 -0.3961  1.5388  1.8300
 7677TIP3    H244523   4.706   0.748   1.046  0.7716 -0.5127 -0.4504
 7678TIP3   OH244524   1.140   1.360  13.557 -0.4062  0.3558  0.2038
 7678TIP3    H144525   1.230   1.393  13.564 -0.6158  0.6753  1.6386
 7678TIP3    H244526   1.090   1.417  13.615 -0.9897 -1.7555  1.8775
 7679TIP3   OH244527   4.244   5.408  11.439 -0.1784 -0.2227  0.4026
 7679TIP3    H144528   4.269   5.337  11.380  0.2648 -1.6126  2.1753
 7679TIP3    H244529   4.185   5.463  11.387 -1.9227 -2.8000 -0.5701
 7680TIP3   OH244530   2.529   6.498  14.676 -0.1212  0.0491  0.4157
 7680TIP3    H144531   2.599   6.440  14.647 -0.1528 -0.2155  0.8702
 7680TIP3    H244532   2.571   6.559  14.736 -0.2340  0.0259  0.5200
 7681TIP3   OH244533   4.894   4.374  11.003  0.2261  0.6472 -0.2831
 7681TIP3    H144534   4.990   4.378  11.008  0.2632  0.8779 -0.9677
 7681TIP3    H244535   4.868   4.322  11.079  1.0612 -1.2493 -1.2052
 7682TIP3   OH244536   1.318   5.434   5.646  0.3414  0.2756 -0.2663
 7682TIP3    H144537   1.353   5.477   5.568 -0.5275  1.9716  0.2375
 7682TIP3    H244538   1.223   5.427   5.630 -0.0561  1.8280  1.1308
 7683TIP3   OH244539   2.582   2.832  15.229 -0.0843  0.4150 -0.0905
 7683TIP3    H144540   2.552   2.743  15.214  0.8151 -0.1211  1.1320
 7683TIP3    H244541   2.651   2.846  15.165  1.2221 -0.5459  1.0563
 7684TIP3   OH244542   5.967   5.641  13.505 -0.2264  0.2272  0.1913
 7684TIP3    H144543   5.886   5.693  13.502  0.7007  1.6907 -0.6620
 7684TIP3    H244544   6.008   5.665  13.588  0.3263  1.1154 -0.3164
 7685TIP3   OH244545   2.967   0.509   6.070 -0.2002 -0.5854 -0.1484
 7685TIP3    H144546   2.991   0.597   6.040 -0.5572 -0.0333  1.1328
 7685TIP3    H244547   2.964   0.516   6.165  0.2824 -2.1264  0.0105
 7686TIP3   OH244548   1.058   0.302  15.476  0.2986 -0.1374  0.1907
 7686TIP3    H144549   1.093   0.248  15.405  1.4098 -1.1020  1.4213
 7686TIP3    H244550   1.133   0.355  15.505 -0.4149  1.0470 -0.0470
 7687TIP3   OH244551   1.211   1.146   0.790  0.1901 -0.7117 -0.3152
 7687TIP3    H144552   1.177   1.060   0.813 -0.2143 -1.0955 -2.1529
 7687TIP3    H244553   1.138   1.206   0.807  0.2531 -0.8108  0.3398
 7688TIP3   OH244554   5.064   1.986   1.231 -0.5520 -0.1066 -0.0454
 7688TIP3    H144555   5.145   2.036   1.223  0.5324 -1.4074  1.9576
 7688TIP3    H244556   5.092   1.895   1.229 -1.9713 -0.5894  0.6354
 7689TIP3   OH244557   0.413   2.484   5.401 -0.4793 -0.4919 -0.0665
 7689TIP3    H144558   0.398   2.568   5.357 -1.3208 -1.4350 -1.6829
 7689TIP3    H244559   0.373   2.494   5.487  0.6721  1.2142  0.3325
 7690TIP3   OH244560   6.189   3.942  11.437 -0.1465  0.0834 -0.0753
 7690TIP3    H144561   6.276   3.932  11.476  0.1042  2.0928  0.0012
 7690TIP3    H244562   6.204   3.937  11.343 -0.3623 -2.1176 -0.0352
 7691TIP3   OH244563   3.308   0.481  12.711 -0.5909  0.2104  0.3714
 7691TIP3    H144564   3.270   0.508  12.628  0.0814 -0.0726 -0.0397
 7691TIP3    H244565   3.282   0.550  12.773  2.8840  3.1940 -1.0898
 7692TIP3   OH244566   1.658   4.586   4.932 -1.0323 -0.5108 -0.0145
 7692TIP3    H144567   1.701   4.663   4.969 -0.5766  0.0410 -1.6266
 7692TIP3    H244568   1.576   4.579   4.981 -0.0820 -0.3780  1.7089
 7693TIP3   OH244569   5.323   5.020   5.603 -0.9030  0.1260  0.2022
 7693TIP3    H144570   5.276   4.937   5.604  1.4469 -1.3597 -1.3412
 7693TIP3    H244571   5.356   5.029   5.692  1.1734 -2.1825 -0.2107
 7694TIP3   OH244572   6.107   5.065   5.179  1.0618  0.4246 -0.1264
 7694TIP3    H144573   6.025   5.053   5.227  0.7123  1.5593 -0.4083
 7694TIP3    H244574   6.080   5.072   5.087  1.4549  0.9137 -0.2080
 7695TIP3   OH244575   3.322   4.681  15.604 -0.4240  0.5138 -0.1734
 7695TIP3    H144576   3.326   4.589  15.631 -0.0885  0.3429 -0.8005
 7695TIP3    H244577   3.340   4.730  15.685  1.4121 -0.0107 -0.2290
 7696TIP3   OH244578   2.938   3.968   3.715  0.1218 -0.1757  0.0256
 7696TIP3    H144579   2.916   4.060   3.698  1.2865  0.4826  1.7632
 7696TIP3    H244580   3.034   3.966   3.715  0.1404 -1.0168  1.6672
 7697TIP3   OH244581   2.267   0.151   1.294  0.4472  0.3484 -0.1832
 7697TIP3    H144582   2.236   0.073   1.249  0.3087 -0.1238  0.7077
 7697TIP3    H244583   2.325   0.118   1.363  0.3667  1.0190  0.2219
 7698TIP3   OH244584   0.270   4.043  11.087  0.0184 -0.4408  0.7683
 7698TIP3    H144585   0.364   4.037  11.068 -0.0295 -2.4375  0.8750
 7698TIP3    H244586   0.232   3.968  11.040 -1.2547 -0.6890  2.1272
 7699TIP3   OH244587   0.572   0.492  12.250 -0.0975 -0.3822  0.2328
 7699TIP3    H144588   0.488   0.534  12.229  0.1903  0.3808  0.5857
 7699TIP3    H244589   0.600   0.455  12.166 -0.3212  0.2067 -0.1168
 7700TIP3   OH244590   0.939   6.017   5.368 -0.0828 -0.1682  0.0366
 7700TIP3    H144591   0.905   6.091   5.317 -1.3361 -1.0643 -0.4757
 7700TIP3    H244592   0.888   5.941   5.338  1.3826 -1.3127  0.3095
 7701TIP3   OH244593   3.015   1.891  16.119 -0.1057 -0.0164 -0.2656
 7701TIP3    H144594   3.092   1.859  16.166  0.7898 -0.7590 -2.1309
 7701TIP3    H244595   2.960   1.930  16.187  1.5982 -0.0606  1.2167
 7702TIP3   OH244596   5.973   6.089   2.022  0.2078  0.3786  0.1778
 7702TIP3    H144597   5.972   6.034   2.100  0.8194  0.0426 -0.0452
 7702TIP3    H244598   6.052   6.143   2.032  0.2081  0.4380 -0.1361
 7703TIP3   OH244599   6.139   6.656   1.252 -0.4856 -0.0821  0.1341
 7703TIP3    H144600   6.094   6.601   1.317  0.3600  0.8876  1.5854
 7703TIP3    H244601   6.178   6.726   1.303  0.6045  0.4626 -1.3968
 7704TIP3   OH244602   4.870   1.019  12.793 -0.3509 -0.1768 -0.4445
 7704TIP3    H144603   4.789   1.000  12.746 -1.3532 -0.0064  1.1349
 7704TIP3    H244604   4.902   1.100  12.756 -1.9671  0.7955  0.1882
 7705TIP3   OH244605   0.132   5.872   4.126 -0.3735 -0.2130 -0.4138
 7705TIP3    H144606   0.219   5.881   4.088 -0.7075  0.0404 -1.1501
 7705TIP3    H244607   0.104   5.961   4.146 -0.6383 -0.2520 -0.5949
 7706TIP3   OH244608   2.929   5.436   3.647  0.1933  0.0962 -0.1471
 7706TIP3    H144609   2.857   5.409   3.704 -0.8938  1.7795 -0.6696
 7706TIP3    H244610   2.998   5.372   3.664 -1.8592 -2.3489 -0.6179
 7707TIP3   OH244611   2.207   3.477  13.375 -0.2549  0.1336 -0.3177
 7707TIP3    H144612   2.217   3.475  13.470  1.2204 -1.7491 -0.4502
 7707TIP3    H244613   2.151   3.553  13.358  2.1664  2.5834  1.7757
 7708TIP3   OH244614   5.891   5.266  12.304  0.5998  0.0925  0.3582
 7708TIP3    H144615   5.818   5.293  12.359  0.1667 -0.0778 -0.1193
 7708TIP3    H244616   5.850   5.240  12.221  1.3132  1.2453 -0.3872
 7709TIP3   OH244617   4.430   0.889   2.803  0.1139 -0.6249  0.1764
 7709TIP3    H144618   4.491   0.883   2.729 -0.2483  0.7476 -0.2721
 7709TIP3    H244619   4.487   0.889   2.881  0.7976  1.4416 -0.2669
 7710TIP3   OH244620   3.598   4.105  16.552  0.2426  0.1538  0.6313
 7710TIP3    H144621   3.549   4.092  16.633 -2.3259 -0.4589 -0.9263
 7710TIP3    H244622   3.542   4.161  16.498  1.0798 -0.8377 -1.3787
 7711TIP3   OH244623   0.642   5.244   5.422  0.9351  0.2568  0.3158
 7711TIP3    H144624   0.612   5.316   5.478  0.2071  0.3881 -0.2293
 7711TIP3    H244625   0.561   5.202   5.391  1.3464 -1.1897  1.1097
 7712TIP3   OH244626   1.690   0.126   4.803  0.5065  0.4457  0.0605
 7712TIP3    H144627   1.785   0.122   4.807  0.8046  1.5299 -3.1965
 7712TIP3    H244628   1.671   0.214   4.770 -1.5847  0.0151 -0.0294
 7713TIP3   OH244629   1.805   5.723  13.692  0.1731 -0.2385 -0.2841
 7713TIP3    H144630   1.772   5.811  13.708 -3.2467 -1.0777 -1.7939
 7713TIP3    H244631   1.887   5.736  13.645 -0.7263  2.1698 -1.3437
 7714TIP3   OH244632   2.234   0.469   5.373  0.0789  0.3626  0.1429
 7714TIP3    H144633   2.199   0.386   5.405 -0.6203  0.4497 -0.3846
 7714TIP3    H244634   2.224   0.464   5.278 -0.0932  1.1141  0.1183
 7715TIP3   OH244635   0.530   6.420  11.078 -0.1350  0.1634  0.2245
 7715TIP3    H144636   0.434   6.420  11.083 -0.3523 -0.6561 -2.5428
 7715TIP3    H244637   0.553   6.327  11.069  0.7379  0.5052 -1.2222
 7716TIP3   OH244638   1.159   6.313   0.259  0.4229 -0.1545  0.6153
 7716TIP3    H144639   1.162   6.341   0.167  1.0234 -1.7033  0.1264
 7716TIP3    H244640   1.209   6.232   0.260  0.4100 -0.1651  2.3308
 7717TIP3   OH244641   5.550   1.828  13.551  0.7012  0.5482 -0.1206
 7717TIP3    H144642   5.537   1.855  13.641  0.1392  0.8816 -0.2940
 7717TIP3    H244643   5.467   1.788  13.526  1.2441 -0.6163 -0.1267
 7718TIP3   OH244644   6.761   2.861  14.492  0.1725 -0.2928  0.6970
 7718TIP3    H144645   6.703   2.917  14.542 -1.5040 -1.3214 -0.0138
 7718TIP3    H244646   6.728   2.772  14.507 -1.5001 -0.6054 -3.3332
 7719TIP3   OH244647   4.159   6.786   5.542 -0.3947  0.2589 -0.5274
 7719TIP3    H144648   4.216   6.863   5.550 -1.5013  1.0694 -0.0530
 7719TIP3    H244649   4.114   6.798   5.459 -1.4476  0.7851  0.0875
 7720TIP3   OH244650   1.332   6.410  12.442 -0.1874 -0.1693 -0.1989
 7720TIP3    H144651   1.379   6.366  12.371  3.0799 -0.4666  1.9010
 7720TIP3    H244652   1.341   6.503  12.423 -1.1052 -0.2589 -1.1531
 7721TIP3   OH244653   1.322   0.013   3.500  0.0618 -0.1772  0.0374
 7721TIP3    H144654   1.295   0.097   3.537 -0.2640  0.2218 -1.0568
 7721TIP3    H244655   1.377  -0.027   3.568 -0.5274  0.5031  0.9414
 7722TIP3   OH244656   3.677   4.438  14.192 -0.9152  0.0409  0.3456
 7722TIP3    H144657   3.698   4.363  14.137 -2.8998  0.9444 -1.7954
 7722TIP3    H244658   3.752   4.497  14.182  0.7010 -1.5711  2.1187
 7723TIP3   OH244659   0.588   5.957  14.270 -0.7065 -0.4308 -0.0956
 7723TIP3    H144660   0.570   5.866  14.247  1.3715 -0.8234 -0.3409
 7723TIP3    H244661   0.547   6.008  14.201 -0.0073 -1.2989 -1.1799
 7724TIP3   OH244662   2.005   6.568  15.035 -0.1616 -1.0980 -0.1019
 7724TIP3    H144663   1.964   6.488  15.066  1.0536 -1.9281 -0.5425
 7724TIP3    H244664   1.934   6.619  14.997 -1.1750 -1.3808  1.3348
 7725TIP3   OH244665   6.746   1.813   4.674 -0.2682 -0.1051 -0.0148
 7725TIP3    H144666   6.817   1.758   4.641 -0.6363 -0.2884 -0.5088
 7725TIP3    H244667   6.768   1.826   4.767  0.7297  0.3499 -0.2961
 7726TIP3   OH244668   0.263   0.449  11.642  0.2723 -0.9813 -0.3663
 7726TIP3    H144669   0.354   0.421  11.638 -0.1417 -2.8787  1.5043
 7726TIP3    H244670   0.227   0.430  11.556  1.5298 -0.5914 -0.9906
 7727TIP3   OH244671   3.256   4.096   1.568 -0.8131 -0.0563 -0.3777
 7727TIP3    H144672   3.302   4.108   1.485 -0.9634 -1.3456 -0.6598
 7727TIP3    H244673   3.295   4.018   1.607 -1.0436  0.2818  0.5677
 7728TIP3   OH244674   2.351   2.177   1.956  0.3302 -0.1557  0.3843
 7728TIP3    H144675   2.367   2.251   1.896 -1.0389  0.1169  0.3202
 7728TIP3    H244676   2.415   2.189   2.026 -0.8460  2.0074  1.1706
 7729TIP3   OH244677   6.789   0.184   5.910  0.5082 -0.6588  0.0826
 7729TIP3    H144678   6.868   0.208   5.863  0.4889  0.2343  0.4827
 7729TIP3    H244679   6.721   0.239   5.873  0.5326  0.2037  1.2555
 7730TIP3   OH244680   3.526   5.159   0.847  0.1982 -0.4449  0.4173
 7730TIP3    H144681   3.494   5.245   0.875  0.1518 -0.2761 -0.1272
 7730TIP3    H244682   3.603   5.143   0.900 -1.6064 -1.5458  2.8939
 7731TIP3   OH244683   4.375   5.408   2.557 -0.3243  0.3950 -0.4072
 7731TIP3    H144684   4.381   5.417   2.462  0.1132  0.3607 -0.3836
 7731TIP3    H244685   4.431   5.478   2.591 -0.8535  0.7129 -0.1665
 7732TIP3   OH244686   6.564   3.777  11.220  0.0344  0.8145  0.9910
 7732TIP3    H144687   6.558   3.848  11.156 -2.3800  0.2684  0.4902
 7732TIP3    H244688   6.556   3.697  11.168  1.3754  0.2120  1.6771
 7733TIP3   OH244689   4.419   3.711   0.087  0.2634  0.6683 -0.3086
 7733TIP3    H144690   4.478   3.647   0.047  1.4451  1.3794  0.2801
 7733TIP3    H244691   4.464   3.795   0.079 -1.1849  1.4419 -0.9115
 7734TIP3   OH244692   2.686   5.135   0.057 -0.4287 -0.1127  0.0769
 7734TIP3    H144693   2.760   5.177   0.100  0.3351 -0.7223 -0.6036
 7734TIP3    H244694   2.652   5.073   0.121 -0.9281  0.8059  0.7185
 7735TIP3   OH244695   4.802   4.737  10.577 -0.2604 -0.0444 -0.2567
 7735TIP3    H144696   4.891   4.709  10.601 -0.4633 -0.3780  0.1327
 7735TIP3    H244697   4.803   4.832  10.588  0.3829  0.0927 -1.4046
 7736TIP3   OH244698   1.159   6.609  15.113 -0.1811  0.0157 -0.0866
 7736TIP3    H144699   1.236   6.653  15.148  0.3798 -1.2282  0.3287
 7736TIP3    H244700   1.086   6.642  15.165  0.1278  0.9169 -0.2220
 7737TIP3   OH244701   3.950   4.418  11.910  0.6337  0.7648  0.6571
 7737TIP3    H144702   3.884   4.482  11.936 -1.2149 -1.0330  0.7248
 7737TIP3    H244703   3.899   4.338  11.892  1.7605  1.0073 -6.5386
 7738TIP3   OH244704   2.910   3.594   1.234 -0.3284 -0.3875 -0.0454
 7738TIP3    H144705   2.836   3.563   1.181 -0.7695 -0.5550  0.6604
 7738TIP3    H244706   2.928   3.521   1.294 -2.2126  1.1255  2.5370
 7739TIP3   OH244707   2.918   1.964  10.739  0.4190  0.7562  0.0946
 7739TIP3    H144708   2.884   2.041  10.692  0.2512  2.2523  2.4742
 7739TIP3    H244709   3.010   1.984  10.753  0.3279  0.6466  0.8995
 7740TIP3   OH244710   6.239   2.033  14.354  0.4355 -0.7423  0.2349
 7740TIP3    H144711   6.274   2.056  14.440 -0.8735  1.7342  0.1924
 7740TIP3    H244712   6.158   1.987  14.372 -1.1990  1.9990  0.4754
 7741TIP3   OH244713   5.130   4.710   0.333  0.4307  0.3652  0.0712
 7741TIP3    H144714   5.098   4.631   0.290 -0.2688  0.2946  0.6996
 7741TIP3    H244715   5.224   4.698   0.340  0.1189 -1.3150  1.9687
 7742TIP3   OH244716   0.883   1.133  12.144 -0.3399  0.1102  0.5587
 7742TIP3    H144717   0.835   1.215  12.138 -0.6300  0.0099  1.3967
 7742TIP3    H244718   0.911   1.128  12.235 -0.3646 -0.7414  0.5292
 7743TIP3   OH244719   0.073   6.556   2.049 -0.1550 -0.0123 -0.2813
 7743TIP3    H144720  -0.008   6.585   2.090  1.4477  1.9127  1.8044
 7743TIP3    H244721   0.102   6.483   2.105  0.3936  0.4498  0.0454
 7744TIP3   OH244722   0.503   1.718  10.084  0.0968  0.3091  0.5806
 7744TIP3    H144723   0.479   1.776  10.156  2.2288  0.4592  1.2546
 7744TIP3    H244724   0.587   1.680  10.112  0.2576 -0.7422 -1.2037
 7745TIP3   OH244725   3.749   3.140   4.098 -0.2962 -0.2054  0.8232
 7745TIP3    H144726   3.655   3.134   4.116 -0.6896 -0.3219 -1.0280
 7745TIP3    H244727   3.770   3.058   4.053  0.4442  0.2721  0.2663
 7746TIP3   OH244728   0.996   2.076  11.500 -0.3602  0.0201  0.1646
 7746TIP3    H144729   0.909   2.075  11.542  0.3158 -1.4095  1.6160
 7746TIP3    H244730   1.032   2.162  11.523 -0.9887  0.2384  0.3768
 7747TIP3   OH244731   6.594   3.562  15.733 -0.0296  0.0343  0.4210
 7747TIP3    H144732   6.593   3.652  15.699  0.9503  0.5231  1.6146
 7747TIP3    H244733   6.556   3.569  15.820  1.6114 -0.3830  1.2152
 7748TIP3   OH244734   5.902   3.492   2.244  0.0624  0.0414 -0.1390
 7748TIP3    H144735   5.974   3.455   2.295 -0.6490  0.0861  0.9330
 7748TIP3    H244736   5.823   3.456   2.285 -0.5573  0.8368 -0.6145
 7749TIP3   OH244737   3.495   2.550  12.044 -0.2136  0.1845 -0.3176
 7749TIP3    H144738   3.464   2.621  12.101  0.0317 -1.1508  1.5888
 7749TIP3    H244739   3.586   2.537  12.071  0.7016  1.0704 -2.7344
 7750TIP3   OH244740   1.678   1.765   6.072  0.0571  0.2080 -0.4529
 7750TIP3    H144741   1.701   1.681   6.112 -2.1781  1.1728  3.3611
 7750TIP3    H244742   1.624   1.743   5.997 -0.9250 -1.8228  0.7793
 7751TIP3   OH244743   4.230   5.631  14.840  0.0243  0.5730  0.3607
 7751TIP3    H144744   4.253   5.723  14.828 -0.7544  0.4773 -2.4930
 7751TIP3    H244745   4.135   5.629  14.835  0.0636 -0.6942 -3.7498
 7752TIP3   OH244746   0.266   2.960  15.613  0.7034 -0.2437 -0.2639
 7752TIP3    H144747   0.225   2.983  15.529  0.5221  0.3245 -0.0262
 7752TIP3    H244748   0.191   2.944  15.671  0.8311 -0.3997 -0.1425
 7753TIP3   OH244749   6.479   1.678   5.302  0.0282  0.0173 -0.3028
 7753TIP3    H144750   6.408   1.739   5.322  0.2483  0.0649  0.3683
 7753TIP3    H244751   6.491   1.628   5.383  0.5579 -0.1951 -0.5068
 7754TIP3   OH244752   1.764   0.331  15.021 -0.4707 -0.5303  0.1453
 7754TIP3    H144753   1.803   0.277  15.090 -1.0019 -0.5875  0.4050
 7754TIP3    H244754   1.739   0.412  15.065 -1.3994 -0.8212  0.1609
 7755TIP3   OH244755   6.473   5.589   5.465  0.2800 -0.0525 -1.0330
 7755TIP3    H144756   6.408   5.520   5.479  0.9507 -0.4627  0.2008
 7755TIP3    H244757   6.493   5.583   5.371 -0.7712 -0.5238 -1.2448
 7756TIP3   OH244758   2.368   3.406   2.086  0.2396 -0.5950  0.4561
 7756TIP3    H144759   2.314   3.477   2.119  1.4174 -0.8831  3.3079
 7756TIP3    H244760   2.322   3.326   2.112  1.6181 -0.8358  2.3915
 7757TIP3   OH244761   2.723   6.365   3.933  0.6370 -0.2984  0.1472
 7757TIP3    H144762   2.692   6.442   3.981 -0.7020 -0.8494  0.2169
 7757TIP3    H244763   2.731   6.297   4.000 -0.9877 -0.9997 -0.3316
 7758TIP3   OH244764   3.294   3.147  13.303  0.1098  0.0308  0.3196
 7758TIP3    H144765   3.378   3.123  13.343 -0.1723  0.3244  1.0943
 7758TIP3    H244766   3.230   3.090  13.345 -0.0732 -0.2642 -0.3486
 7759TIP3   OH244767   6.432   1.242  11.567 -0.2461  0.6774  0.1277
 7759TIP3    H144768   6.413   1.199  11.484  1.6040  0.0147  0.0149
 7759TIP3    H244769   6.362   1.213  11.626 -0.4267 -0.4823 -0.6408
 7760TIP3   OH244770   2.886   0.474  15.372  0.3285  0.0132 -0.2215
 7760TIP3    H144771   2.924   0.487  15.459  0.8470 -0.7343 -0.3232
 7760TIP3    H244772   2.801   0.435  15.388  0.4295 -0.1351 -0.0523
 7761TIP3   OH244773   4.789   2.389   2.764 -0.0015  0.2574  0.2406
 7761TIP3    H144774   4.843   2.352   2.834 -0.0311  2.1467  1.3381
 7761TIP3    H244775   4.718   2.434   2.811 -0.1234  1.4148 -1.0095
 7762TIP3   OH244776   2.167   5.012   0.242  0.0920 -0.5522  0.2000
 7762TIP3    H144777   2.137   4.926   0.270 -2.1374 -0.2592 -1.0686
 7762TIP3    H244778   2.090   5.054   0.203  1.2535  1.7864  0.2008
 7763TIP3   OH244779   6.533   5.524  12.170  0.3766 -0.0751 -0.1277
 7763TIP3    H144780   6.621   5.498  12.146  0.2700 -0.7652  0.2105
 7763TIP3    H244781   6.533   5.620  12.162  1.4486  0.0196  0.8657
 7764TIP3   OH244782   6.241   3.052   1.671  0.0595  0.0288 -0.2322
 7764TIP3    H144783   6.330   3.082   1.652 -0.6996  1.4356 -1.8398
 7764TIP3    H244784   6.218   3.097   1.753  1.1050 -1.0708  0.7113
 7765TIP3   OH244785   6.465   2.301   1.960 -0.6248  0.8327  0.2149
 7765TIP3    H144786   6.552   2.317   1.996 -0.4255 -1.1466  0.7156
 7765TIP3    H244787   6.413   2.376   1.989  0.5106  1.2220  1.3193
 7766TIP3   OH244788   3.201   4.036  12.689  0.3167 -0.3018 -0.0484
 7766TIP3    H144789   3.184   4.097  12.617  0.4844 -1.1574 -0.8386
 7766TIP3    H244790   3.289   4.003  12.673  0.2380 -0.7389  0.3647
 7767TIP3   OH244791   4.989   6.772  13.728  0.3246  0.2262 -0.2898
 7767TIP3    H144792   5.010   6.758  13.820 -1.1796  3.3206  0.6327
 7767TIP3    H244793   5.071   6.800  13.688  0.5346  0.9329  0.6200
 7768TIP3   OH244794   0.322   6.107  14.714  0.2275  0.4116  0.1707
 7768TIP3    H144795   0.353   6.029  14.668  0.3437  1.2440 -1.2087
 7768TIP3    H244796   0.398   6.166  14.716 -0.5191  1.4680 -1.0221
 7769TIP3   OH244797   1.501   4.405   0.108 -0.1801 -0.0966  0.0474
 7769TIP3    H144798   1.449   4.473   0.150 -0.2347  0.7139 -1.2964
 7769TIP3    H244799   1.438   4.339   0.080 -0.2611 -0.0709  0.1680
 7770TIP3   OH244800   0.291   3.074  10.523  0.0884  0.3342 -0.7364
 7770TIP3    H144801   0.324   3.153  10.565  1.5166  0.7358 -2.4644
 7770TIP3    H244802   0.322   3.002  10.578 -1.7719  0.9339  1.2052
 7771TIP3   OH244803   1.174   4.145   0.507  0.3756 -0.5839  0.2607
 7771TIP3    H144804   1.145   4.209   0.572 -1.6698  0.7862 -1.8115
 7771TIP3    H244805   1.269   4.142   0.517  0.3711  1.5369  1.5660
 7772TIP3   OH244806   2.548   0.355  15.017 -0.9038 -0.4927 -0.3273
 7772TIP3    H144807   2.557   0.450  15.013  0.8009 -0.5696  0.8925
 7772TIP3    H244808   2.488   0.339  15.090  1.6103 -0.3961  1.8928
 7773TIP3   OH244809   0.634   4.136   2.348 -0.2822 -0.5192 -0.3285
 7773TIP3    H144810   0.590   4.051   2.335 -0.3099 -0.2745 -2.0453
 7773TIP3    H244811   0.575   4.200   2.308  0.6022  0.0761 -0.7095
 7774TIP3   OH244812   0.676   3.684  16.633  0.0302  0.7869 -0.0203
 7774TIP3    H144813   0.648   3.747  16.567 -0.9182 -0.4037 -0.8010
 7774TIP3    H244814   0.659   3.599  16.593  0.4440  0.0324  1.3527
 7775TIP3   OH244815   3.845   4.520  11.254  0.2823  0.6402 -0.0236
 7775TIP3    H144816   3.919   4.576  11.231  0.7695 -0.1543 -0.4477
 7775TIP3    H244817   3.873   4.432  11.228 -0.7400  0.3016 -0.0179
 7776TIP3   OH244818   0.686   0.649  15.592  0.1975  0.2583 -0.1920
 7776TIP3    H144819   0.626   0.720  15.571  1.2672  0.9251 -1.0938
 7776TIP3    H244820   0.772   0.679  15.560  0.5547 -1.7213 -1.3152
 7777TIP3   OH244821   3.493   6.722   3.107 -0.2173  0.0351  0.1621
 7777TIP3    H144822   3.541   6.642   3.087  0.8906  0.8686 -0.6957
 7777TIP3    H244823   3.477   6.718   3.202 -0.5560 -1.3729  0.0570
 7778TIP3   OH244824   1.625   1.936  12.713  0.1294 -0.6490  0.2028
 7778TIP3    H144825   1.550   1.925  12.771  0.2037 -1.2670  0.1849
 7778TIP3    H244826   1.627   1.857  12.660 -1.2789  0.8435 -2.2477
 7779TIP3   OH244827   5.015   4.984  14.488 -0.1957  0.1471  0.8229
 7779TIP3    H144828   4.955   5.028  14.428  0.0842 -0.7164 -0.1260
 7779TIP3    H244829   4.996   4.890  14.478  1.8373 -0.2289 -0.1456
 7780TIP3   OH244830   3.573   5.259  16.419  0.1525 -0.2656 -0.3988
 7780TIP3    H144831   3.520   5.257  16.339 -1.8672 -1.7832  0.8867
 7780TIP3    H244832   3.537   5.331  16.470  2.1254  1.3922 -1.1895
 7781TIP3   OH244833   5.555   3.373   5.638  0.4336  0.2346  0.0583
 7781TIP3    H144834   5.565   3.333   5.552 -0.8276  0.5900 -0.2679
 7781TIP3    H244835   5.529   3.301   5.695  1.0687  0.0373  0.1013
 7782TIP3   OH244836   2.515   0.352   2.196  0.4834  0.0097  0.5316
 7782TIP3    H144837   2.548   0.439   2.217  1.0847 -0.3620  1.1536
 7782TIP3    H244838   2.465   0.365   2.116 -1.3602  1.3572  1.8052
 7783TIP3   OH244839   0.434   5.676  14.272 -0.2895  0.0430  0.1699
 7783TIP3    H144840   0.431   5.585  14.243  1.7666 -0.4125  1.2084
 7783TIP3    H244841   0.343   5.698  14.291 -0.9201 -1.5408 -0.7902
 7784TIP3   OH244842   0.302   3.770   4.624  0.1217 -0.1840  0.5546
 7784TIP3    H144843   0.316   3.697   4.685  1.9328 -0.3988 -0.0519
 7784TIP3    H244844   0.275   3.729   4.542  1.6224 -0.2596  0.0665
 7785TIP3   OH244845   5.345   0.810   5.694 -0.0326 -0.1133  0.2120
 7785TIP3    H144846   5.359   0.741   5.759 -0.2605  1.2090  1.6977
 7785TIP3    H244847   5.251   0.828   5.698 -0.4119 -1.3181 -1.8768
 7786TIP3   OH244848   6.085   0.598   1.495 -0.4078  0.1821 -0.3042
 7786TIP3    H144849   6.172   0.577   1.531 -1.0927  0.4302  1.5990
 7786TIP3    H244850   6.028   0.530   1.532 -1.7284  2.2900  1.8054
 7787TIP3   OH244851   6.799   2.361  10.962  0.5738  0.3743 -0.2042
 7787TIP3    H144852   6.848   2.433  11.002  1.5509 -0.5591  0.3381
 7787TIP3    H244853   6.860   2.320  10.902  0.7269 -1.2061  0.9540
 7788TIP3   OH244854   0.593   2.582   6.235  0.7137  0.2439  0.4213
 7788TIP3    H144855   0.523   2.647   6.244  0.6362  0.0838  0.9692
 7788TIP3    H244856   0.674   2.634   6.240  0.6504  0.6114 -1.5350
 7789TIP3   OH244857   2.060   6.623   2.776 -0.3013 -0.2543 -0.0523
 7789TIP3    H144858   2.107   6.703   2.752 -1.0950 -0.2013 -1.5148
 7789TIP3    H244859   2.011   6.647   2.854  0.9793  0.0934  0.6882
 7790TIP3   OH244860   0.354   0.125   2.236  1.1389  0.0597 -0.5760
 7790TIP3    H144861   0.335   0.176   2.157  3.8011  1.4236 -0.4622
 7790TIP3    H244862   0.363   0.191   2.305 -0.6706 -1.0826  0.8046
 7791TIP3   OH244863   4.646   3.040  13.407 -0.1721  0.2833 -0.0965
 7791TIP3    H144864   4.697   2.994  13.473  0.8550  1.3953 -0.0994
 7791TIP3    H244865   4.566   3.066  13.453  1.1662  2.3633  1.1813
 7792TIP3   OH244866   1.112   1.857   5.718 -0.1129  0.5272 -0.2693
 7792TIP3    H144867   1.081   1.934   5.767  0.1126  1.3543 -1.3814
 7792TIP3    H244868   1.176   1.816   5.776 -1.4117  0.2433  1.0138
 7793TIP3   OH244869   4.606   6.092   2.508  0.5230  0.2783 -0.2338
 7793TIP3    H144870   4.548   6.168   2.508 -2.2995 -1.7351 -0.1592
 7793TIP3    H244871   4.649   6.095   2.422  0.9767  2.2541  0.0192
 7794TIP3   OH244872   3.722   2.599   6.210 -0.4482 -0.8398  0.3879
 7794TIP3    H144873   3.706   2.642   6.126 -2.0093 -0.5042  0.8374
 7794TIP3    H244874   3.782   2.527   6.188  1.6426  1.0409 -0.4985
 7795TIP3   OH244875   5.701   6.463   1.839  0.2256  0.0054 -0.0516
 7795TIP3    H144876   5.656   6.385   1.807  1.7600 -0.6217 -0.7870
 7795TIP3    H244877   5.759   6.431   1.908  1.4116  0.3428 -0.8643
 7796TIP3   OH244878   2.684   2.520   0.204  0.1518  0.1102 -0.4489
 7796TIP3    H144879   2.668   2.614   0.215  1.4407  0.5445 -1.8167
 7796TIP3    H244880   2.706   2.511   0.111 -0.2070 -1.5953 -0.3918
 7797TIP3   OH244881   3.569   0.998   0.924 -0.3799  0.2090 -0.1296
 7797TIP3    H144882   3.542   0.943   0.850 -1.7325 -2.1841  1.9756
 7797TIP3    H244883   3.540   0.949   1.001  1.7007  2.1838  2.0360
 7798TIP3   OH244884   4.698   1.631  13.260 -0.0923 -0.0766 -0.0449
 7798TIP3    H144885   4.731   1.556  13.310  2.6471  1.9008  1.3577
 7798TIP3    H244886   4.645   1.680  13.324  0.0058  0.3420 -0.2845
 7799TIP3   OH244887   4.208   6.281  15.004 -0.6484 -0.1390  0.0165
 7799TIP3    H144888   4.132   6.302  15.059 -0.4834  0.9841 -0.1567
 7799TIP3    H244889   4.266   6.231  15.061 -0.9233  0.1615  0.5718
 7800TIP3   OH244890   3.092   1.961   3.396 -0.1259 -0.2506  0.2558
 7800TIP3    H144891   3.074   1.953   3.489 -1.1043  0.4087  0.1284
 7800TIP3    H244892   3.181   1.997   3.391 -0.0320 -0.3849  0.9207
 7801TIP3   OH244893   2.733   4.824   3.237 -0.0960  0.7755 -0.2897
 7801TIP3    H144894   2.789   4.901   3.252 -0.3069  0.5734  1.8266
 7801TIP3    H244895   2.661   4.834   3.299 -0.1884 -1.0679 -0.0372
 7802TIP3   OH244896   0.194   2.882   1.108 -0.4150 -0.5390  0.2078
 7802TIP3    H144897   0.245   2.897   1.029 -1.6954  0.5976 -0.4342
 7802TIP3    H244898   0.111   2.926   1.092 -2.2206 -3.5536  0.5944
 7803TIP3   OH244899   5.960   3.747   3.490 -0.5701 -0.2483  0.1299
 7803TIP3    H144900   5.895   3.811   3.461 -0.7144 -0.7605 -0.6989
 7803TIP3    H244901   5.910   3.683   3.540 -0.9149 -1.2076 -1.3715
 7804TIP3   OH244902   3.111   1.530   1.735 -0.2913 -0.0368  0.1132
 7804TIP3    H144903   3.103   1.584   1.814  1.5553 -1.3133  1.2496
 7804TIP3    H244904   3.153   1.450   1.765  0.1040 -0.7355 -2.1326
 7805TIP3   OH244905   2.185   4.732  13.460  0.2312 -0.5502 -0.4709
 7805TIP3    H144906   2.151   4.787  13.390  0.7460  0.3446 -0.0412
 7805TIP3    H244907   2.221   4.794  13.524 -1.8480 -1.2149  1.4826
 7806TIP3   OH244908   1.673   0.965   5.028 -0.7255  0.1305 -0.5088
 7806TIP3    H144909   1.614   1.014   5.086  0.4080 -0.0274  0.8167
 7806TIP3    H244910   1.700   1.029   4.963 -2.4797  0.1649 -1.2757
 7807TIP3   OH244911   2.117   3.460   3.676 -0.6281 -0.3415 -0.5517
 7807TIP3    H144912   2.150   3.495   3.759 -0.8878 -3.1997  0.8614
 7807TIP3    H244913   2.196   3.438   3.627 -0.4275 -0.7999 -0.0445
 7808TIP3   OH244914   5.142   1.350  15.156  0.0226  0.1471  0.5832
 7808TIP3    H144915   5.129   1.328  15.248 -0.2766 -0.2864  0.4387
 7808TIP3    H244916   5.116   1.271  15.108  0.5227  0.2407  0.1443
 7809TIP3   OH244917   5.035   4.103   1.545  0.2430  0.2322  0.1780
 7809TIP3    H144918   5.124   4.136   1.532  1.2333 -1.9639  0.8406
 7809TIP3    H244919   5.018   4.050   1.468  0.1490 -0.6236  0.7777
 7810TIP3   OH244920   6.603   6.305  16.746 -0.6795  0.5062  0.3735
 7810TIP3    H144921   6.639   6.352  16.821 -1.7330  0.0538  1.1928
 7810TIP3    H244922   6.600   6.213  16.775  0.2061  0.1071 -0.7476
 7811TIP3   OH244923   0.122   1.527   0.337 -0.3635  0.1910  0.6848
 7811TIP3    H144924   0.195   1.466   0.336 -0.6812 -0.1801 -0.4071
 7811TIP3    H244925   0.156   1.603   0.384  1.1232  0.5032 -0.7908
 7812TIP3   OH244926   2.049   3.309  14.309  0.3562 -0.3773 -0.6213
 7812TIP3    H144927   2.019   3.360  14.384  1.4812  0.6559 -0.8360
 7812TIP3    H244928   2.067   3.374  14.241  1.1192 -1.1227 -1.1610
 7813TIP3   OH244929   4.319   5.109   2.590  0.1581  0.6073 -0.1550
 7813TIP3    H144930   4.344   5.065   2.671 -0.1202  1.1545  0.2349
 7813TIP3    H244931   4.351   5.199   2.601 -0.1897  0.7763 -0.4987
 7814TIP3   OH244932   3.157   4.177   4.745 -0.5342  0.3462 -0.5653
 7814TIP3    H144933   3.069   4.140   4.739  0.1793 -1.8994  1.2729
 7814TIP3    H244934   3.167   4.229   4.665 -3.8619  1.5508 -0.3390
 7815TIP3   OH244935   5.689   3.029  11.286 -0.1313 -0.3511 -0.5444
 7815TIP3    H144936   5.693   2.992  11.198 -0.4157 -2.8222  0.3954
 7815TIP3    H244937   5.778   3.059  11.304  0.3645 -1.4668 -1.0369
 7816TIP3   OH244938   3.330   2.557   1.880  0.2103  0.2183 -0.3229
 7816TIP3    H144939   3.421   2.583   1.894  0.9039 -1.6656 -0.9016
 7816TIP3    H244940   3.336   2.463   1.860 -1.7477  0.3173 -1.5983
 7817TIP3   OH244941   2.224   5.670  15.281  0.1630 -0.4693 -0.1993
 7817TIP3    H144942   2.201   5.758  15.311  1.7922 -0.0744  0.0206
 7817TIP3    H244943   2.267   5.631  15.357  1.5222 -0.5981 -1.0121
 7818TIP3   OH244944   0.346   4.051   1.748  0.0250 -0.2362  0.0245
 7818TIP3    H144945   0.386   3.980   1.798  0.5398  0.5380  0.7201
 7818TIP3    H244946   0.420   4.100   1.711 -0.1631  1.8249  2.1675
 7819TIP3   OH244947   4.041   5.767  13.887 -0.0515  0.1241  1.1017
 7819TIP3    H144948   4.019   5.729  13.802 -2.4048 -2.1043  2.5398
 7819TIP3    H244949   4.135   5.783  13.883 -0.2026  0.8846 -2.1446
 7820TIP3   OH244950   6.076   5.420   5.487 -0.4804  0.2077 -0.0843
 7820TIP3    H144951   6.041   5.341   5.529 -0.4501  0.8333  1.1561
 7820TIP3    H244952   6.171   5.412   5.497 -0.5059  0.6898  0.6035
 7821TIP3   OH244953   6.620   5.065  14.197 -0.2526  0.3621  0.3633
 7821TIP3    H144954   6.616   4.974  14.168  0.3694  0.2626  0.5606
 7821TIP3    H244955   6.590   5.116  14.121 -0.4291  0.0026  0.1891
 7822TIP3   OH244956   2.763   3.865  16.355  0.1746  0.2915  0.0941
 7822TIP3    H144957   2.852   3.896  16.374  0.7924 -1.8088  0.9092
 7822TIP3    H244958   2.739   3.909  16.274  1.1625  2.4177  0.8956
 7823TIP3   OH244959   3.498   6.743  16.421  0.2262  0.3076  0.2594
 7823TIP3    H144960   3.527   6.833  16.434 -1.9562  0.7854  3.1145
 7823TIP3    H244961   3.403   6.747  16.434 -0.0725 -2.2447 -0.6246
 7824TIP3   OH244962   0.294   2.907  17.124  0.8750  0.4009 -0.3894
 7824TIP3    H144963   0.385   2.882  17.136  0.9889  0.7114 -0.5712
 7824TIP3    H244964   0.263   2.929  17.212  0.9971  0.3659 -0.3377
 7825TIP3   OH244965   2.339   3.782   2.285 -0.1313  0.3096  0.3773
 7825TIP3    H144966   2.317   3.689   2.290  0.1741  0.2165  0.0968
 7825TIP3    H244967   2.261   3.828   2.316 -0.4720 -0.0261  0.0278
 7826TIP3   OH244968   6.824   0.414  12.082 -0.5370  0.4020  0.5240
 7826TIP3    H144969   6.835   0.497  12.037 -1.5809 -0.6195 -1.7904
 7826TIP3    H244970   6.899   0.361  12.055 -0.9164 -0.0601  0.3603
 7827TIP3   OH244971   3.735   5.854   0.080  0.0873  0.0973  0.4024
 7827TIP3    H144972   3.810   5.794   0.088 -2.1046 -2.8577  0.4336
 7827TIP3    H244973   3.734   5.902   0.163  2.4817  1.0311 -0.0103
 7828TIP3   OH244974   1.290   0.308   0.385  0.0651 -0.0705 -0.0772
 7828TIP3    H144975   1.239   0.339   0.460 -0.2830  1.3746 -0.8673
 7828TIP3    H244976   1.225   0.296   0.315  0.2119 -2.4572  0.0982
 7829TIP3   OH244977   3.021   6.064  14.013 -0.3715 -0.2781  0.6032
 7829TIP3    H144978   3.001   5.970  14.017  0.0348 -0.3769  0.4032
 7829TIP3    H244979   3.002   6.096  14.101  0.0258 -0.6640  0.8375
 7830TIP3   OH244980   5.716   4.547   3.262 -0.1961 -0.5091  0.3224
 7830TIP3    H144981   5.648   4.569   3.198 -0.9319 -0.1009  1.2292
 7830TIP3    H244982   5.687   4.588   3.343  1.6506  0.5371  0.4924
 7831TIP3   OH244983   2.301   2.715   2.542 -0.3867  0.5330 -0.1440
 7831TIP3    H144984   2.356   2.791   2.526  1.7445 -0.7486  0.7208
 7831TIP3    H244985   2.295   2.709   2.637  3.3410 -2.8473  0.1197
 7832TIP3   OH244986   1.588   6.228   4.232  0.0557  0.1512 -0.3355
 7832TIP3    H144987   1.659   6.244   4.169  0.3271  0.3383  0.0092
 7832TIP3    H244988   1.539   6.155   4.195  0.0933  0.3833 -0.8618
 7833TIP3   OH244989   6.471   1.974  13.437  0.4105 -0.0805  0.0633
 7833TIP3    H144990   6.405   2.042  13.449  0.2561 -0.4208  1.1927
 7833TIP3    H244991   6.426   1.904  13.390 -0.3283 -0.7265  1.6822
 7834TIP3   OH244992   2.934   6.326   1.800  0.3297 -0.5933 -0.3704
 7834TIP3    H144993   2.926   6.352   1.708 -1.9508  0.2110 -0.0071
 7834TIP3    H244994   2.926   6.231   1.799 -1.7273 -0.4718 -0.9118
 7835TIP3   OH244995   3.878   2.723   1.779 -0.9118 -0.3582 -0.2116
 7835TIP3    H144996   3.804   2.783   1.786  0.6006  1.7104 -0.8018
 7835TIP3    H244997   3.872   2.667   1.857 -2.3412  0.6263  0.4194
 7836TIP3   OH244998   5.783   3.138   0.390 -0.4004 -0.3285 -0.1327
 7836TIP3    H144999   5.809   3.088   0.312 -0.1475  1.9426 -1.5885
 7836TIP3    H245000   5.861   3.141   0.444 -0.3604 -1.2760 -0.1141
 7837TIP3   OH245001   2.255   1.197   1.779  0.2766  0.6440  0.9004
 7837TIP3    H145002   2.314   1.130   1.814 -0.3791  0.0049  0.8099
 7837TIP3    H245003   2.168   1.156   1.781 -0.2766  1.7793  1.6083
 7838TIP3   OH245004   5.683   0.806   4.632  0.1082 -0.0519 -0.1282
 7838TIP3    H145005   5.728   0.721   4.636  0.4555  0.0212 -1.6201
 7838TIP3    H245006   5.747   0.865   4.591 -0.0766  0.9839  1.0294
 7839TIP3   OH245007   5.612   3.425   4.093 -0.0657  0.1449 -0.2476
 7839TIP3    H145008   5.615   3.510   4.136  0.0653 -0.0726  0.1772
 7839TIP3    H245009   5.594   3.363   4.164  0.3683 -0.2417 -0.4739
 7840TIP3   OH245010   1.373   6.243  16.502  0.3551 -0.4452 -0.1169
 7840TIP3    H145011   1.344   6.329  16.532 -2.0514 -1.1197 -0.3204
 7840TIP3    H245012   1.445   6.220  16.561 -0.4664  0.7174  1.4032
 7841TIP3   OH245013   6.399   3.333  14.124  0.3665 -0.2220 -0.0542
 7841TIP3    H145014   6.469   3.297  14.178 -0.6484 -0.2541  1.2901
 7841TIP3    H245015   6.321   3.328  14.179 -0.9089 -1.0415 -1.8362
 7842TIP3   OH245016   0.970   2.336  12.085  0.4721  0.1362 -0.1416
 7842TIP3    H145017   1.019   2.406  12.129 -0.9972  0.6997  0.6672
 7842TIP3    H245018   0.971   2.263  12.147 -0.2426  0.3759  0.1623
 7843TIP3   OH245019   0.639   0.086   3.025  0.4543  0.3579 -0.0868
 7843TIP3    H145020   0.618   0.139   2.947 -1.4565 -0.3033 -0.0658
 7843TIP3    H245021   0.592   0.129   3.096 -0.9800 -1.2014 -0.0346
 7844TIP3   OH245022   0.546   4.008   3.929  0.1272  0.4788 -0.1323
 7844TIP3    H145023   0.482   4.078   3.914 -0.7794  0.2038  2.0195
 7844TIP3    H245024   0.543   3.994   4.024  0.5346 -2.2305 -0.4587
 7845TIP3   OH245025   0.680   0.726  11.223  0.1485  0.5045  0.3710
 7845TIP3    H145026   0.728   0.783  11.162  0.8562 -1.4033 -0.9638
 7845TIP3    H245027   0.685   0.639  11.183 -0.9815 -0.4953  2.2647
 7846TIP3   OH245028   1.337   5.684   2.984  0.3500  0.0006 -0.5266
 7846TIP3    H145029   1.341   5.770   3.024 -0.0232 -0.2539  0.0659
 7846TIP3    H245030   1.345   5.622   3.056  0.1884 -0.4619 -0.8937
 7847TIP3   OH245031   2.533   5.138  16.102 -0.2874 -0.0485  0.3596
 7847TIP3    H145032   2.617   5.135  16.148  0.0448 -0.6062 -0.2662
 7847TIP3    H245033   2.481   5.067  16.140 -0.4430  0.2396  0.6848
 7848TIP3   OH245034   2.552   5.476  16.668 -0.6719  0.1335  0.4733
 7848TIP3    H145035   2.512   5.537  16.606 -1.9227  0.9203  1.9793
 7848TIP3    H245036   2.484   5.411  16.684  0.2634 -1.0628 -0.2702
 7849TIP3   OH245037   3.566   1.709  16.050  0.3270  0.2119 -0.2284
 7849TIP3    H145038   3.483   1.699  16.004 -0.4956 -1.0028  1.4295
 7849TIP3    H245039   3.582   1.804  16.051 -0.9924  0.4529 -0.6631
 7850TIP3   OH245040   2.160   0.977   2.702  0.4430  0.7743 -0.4815
 7850TIP3    H145041   2.184   0.887   2.683  1.1399  0.9869 -0.6510
 7850TIP3    H245042   2.087   0.996   2.643 -1.1989 -0.3614  1.0961
 7851TIP3   OH245043   2.885   1.378   2.385  0.1266  0.0265 -0.2954
 7851TIP3    H145044   2.830   1.455   2.371  1.9662  1.4908  0.1511
 7851TIP3    H245045   2.899   1.342   2.297 -1.0372 -0.0527 -0.4664
 7852TIP3   OH245046   5.538   6.522   0.600 -0.0072 -0.6596  0.0126
 7852TIP3    H145047   5.622   6.515   0.555 -0.8591 -2.4319 -1.4413
 7852TIP3    H245048   5.520   6.616   0.602  0.8846 -0.4098 -1.8617
 7853TIP3   OH245049   4.659   2.043  14.649 -0.4797  0.5186 -0.3376
 7853TIP3    H145050   4.585   2.059  14.590 -1.0821  1.7331  0.7114
 7853TIP3    H245051   4.701   2.128  14.658  0.5885 -0.0037 -0.3051
 7854TIP3   OH245052   6.386   2.278   4.470 -0.3424  0.1441 -0.5584
 7854TIP3    H145053   6.429   2.224   4.537  0.7206 -0.2469 -1.5310
 7854TIP3    H245054   6.298   2.291   4.504  0.0872 -0.2732  0.7952
 7855TIP3   OH245055   5.650   2.904   3.138  0.4403 -0.2333 -0.1811
 7855TIP3    H145056   5.651   2.862   3.224  1.9403  1.0379  0.4843
 7855TIP3    H245057   5.736   2.946   3.131 -0.5409  1.7831 -1.2359
 7856TIP3   OH245058   3.401   4.085  11.275 -0.0261 -0.2404 -0.4439
 7856TIP3    H145059   3.391   4.068  11.181  0.8382  0.1457 -0.6211
 7856TIP3    H245060   3.468   4.154  11.279 -0.9076  0.6014  0.3967
 7857TIP3   OH245061   0.747   4.287  11.542 -0.6756 -0.2691  0.7438
 7857TIP3    H145062   0.820   4.225  11.541 -0.8822 -0.5154  0.0082
 7857TIP3    H245063   0.737   4.314  11.450 -1.1596  0.1706  0.9208
 7858TIP3   OH245064   0.971   0.404  14.499 -0.3562  0.1078  0.0320
 7858TIP3    H145065   0.933   0.447  14.422  0.3785  0.3532 -0.2037
 7858TIP3    H245066   1.024   0.473  14.541 -0.4964 -0.1106  0.5791
 7859TIP3   OH245067   6.720   4.475  11.901 -0.2710  0.3292  0.6342
 7859TIP3    H145068   6.691   4.437  11.984  1.0778  0.8976  1.4007
 7859TIP3    H245069   6.795   4.421  11.874 -0.4932  0.3530 -0.0410
 7860TIP3   OH245070   5.819   6.302   2.037 -0.1338  0.5953  0.2367
 7860TIP3    H145071   5.762   6.302   2.113  0.3328  0.8918  0.5860
 7860TIP3    H245072   5.815   6.212   2.004  0.8446  0.0610  1.5074
 7861TIP3   OH245073   1.133   2.445  16.608  0.4928  0.0083 -0.2760
 7861TIP3    H145074   1.089   2.395  16.539 -0.9422  1.4506 -0.4585
 7861TIP3    H245075   1.113   2.398  16.689  0.6112 -0.6447 -0.6137
 7862TIP3   OH245076   5.547   3.240   4.282  0.2144  0.5552 -0.3709
 7862TIP3    H145077   5.621   3.180   4.275 -0.2186  0.1688 -1.9586
 7862TIP3    H245078   5.563   3.288   4.363  1.3709 -0.6231  0.1301
 7863TIP3   OH245079   5.629   2.536   4.223  0.4433  0.2531 -0.1273
 7863TIP3    H145080   5.655   2.566   4.310  0.2149  0.9615 -0.2950
 7863TIP3    H245081   5.539   2.505   4.235  0.2121  0.8763 -0.2221
 7864TIP3   OH245082   2.687   3.774   2.837 -0.8728 -0.0848 -0.2109
 7864TIP3    H145083   2.685   3.765   2.932 -0.2383 -1.6915 -0.3102
 7864TIP3    H245084   2.623   3.710   2.805  0.1993 -0.8843 -0.8864
 7865TIP3   OH245085   4.596   4.287  13.119 -0.4689  0.3214  0.3134
 7865TIP3    H145086   4.566   4.348  13.052 -1.1881  0.8392  1.0703
 7865TIP3    H245087   4.635   4.214  13.071 -0.1110  1.1143 -0.6249
 7866TIP3   OH245088   0.479   4.899  14.885 -0.0288 -0.6500 -0.6226
 7866TIP3    H145089   0.453   4.900  14.793  0.7497  0.6112 -0.8395
 7866TIP3    H245090   0.531   4.820  14.894  2.6360  0.8237 -2.0813
 7867TIP3   OH245091   4.877   3.576  12.264 -0.0741 -0.5407  0.1253
 7867TIP3    H145092   4.884   3.518  12.189 -1.8201 -0.7521  0.0789
 7867TIP3    H245093   4.967   3.603  12.283  0.7137 -2.7679 -0.2206
 7868TIP3   OH245094   6.846   5.008   5.607 -0.6991 -0.3271  0.0948
 7868TIP3    H145095   6.814   5.098   5.609 -1.2664 -0.5279  0.3023
 7868TIP3    H245096   6.844   4.980   5.699 -2.6143 -1.2635 -0.1944
 7869TIP3   OH245097   4.882   5.780   1.146  0.1343 -0.2543 -0.3281
 7869TIP3    H145098   4.871   5.856   1.089 -2.7484 -0.1241  0.2622
 7869TIP3    H245099   4.867   5.814   1.234  0.0920 -1.2677  0.0632
 7870TIP3   OH245100   4.032   1.546   3.034 -0.1947 -0.3675 -0.3986
 7870TIP3    H145101   4.000   1.584   3.116 -1.0582 -1.1449 -0.3650
 7870TIP3    H245102   3.980   1.467   3.022 -0.5535  0.0900 -2.0494
 7871TIP3   OH245103   1.155   0.532  13.685  0.1092  0.8204 -0.3052
 7871TIP3    H145104   1.237   0.546  13.638  0.4996  1.8118  0.6263
 7871TIP3    H245105   1.090   0.581  13.635  0.4125  1.4123 -0.1190
 7872TIP3   OH245106   4.548   5.767   5.088 -0.6774 -0.1025 -0.1002
 7872TIP3    H145107   4.466   5.720   5.072  1.0117 -3.3372  0.0171
 7872TIP3    H245108   4.585   5.725   5.165  2.2734 -0.5611 -1.6098
 7873TIP3   OH245109   6.824   5.624  16.615 -0.2132 -0.1730  0.2305
 7873TIP3    H145110   6.737   5.637  16.651 -0.5621  0.4455 -0.7901
 7873TIP3    H245111   6.811   5.564  16.542 -0.3549  2.3413 -1.9592
 7874TIP3   OH245112   3.182   1.299  13.316 -0.0912 -0.4359 -0.1487
 7874TIP3    H145113   3.196   1.234  13.386 -0.0301 -0.9563 -0.6352
 7874TIP3    H245114   3.114   1.260  13.261 -1.7292  0.9501  0.8051
 7875TIP3   OH245115   0.843   4.346  11.239 -0.8331 -0.5564  0.2776
 7875TIP3    H145116   0.819   4.274  11.182 -2.0328 -0.2652  0.3870
 7875TIP3    H245117   0.794   4.421  11.205  1.8666  0.7408 -1.0616
 7876TIP3   OH245118   4.982   6.648   1.535 -0.1376 -0.3969 -0.4462
 7876TIP3    H145119   5.010   6.731   1.571 -0.7415 -0.8996  1.2619
 7876TIP3    H245120   4.976   6.663   1.440  0.7894  1.1696 -0.2750
 7877TIP3   OH245121   0.537   3.260  16.175 -0.0661  0.3393 -0.1658
 7877TIP3    H145122   0.530   3.352  16.201 -1.6976 -0.3115  1.9536
 7877TIP3    H245123   0.496   3.258  16.088  2.1130  1.9303 -1.3487
 7878TIP3   OH245124   5.003   5.724  15.840  0.0938 -0.3213 -0.0440
 7878TIP3    H145125   5.017   5.819  15.840  0.3171 -0.3517 -0.1049
 7878TIP3    H245126   5.092   5.687  15.847 -0.0536 -0.5181  0.9111
 7879TIP3   OH245127   4.156   4.236   4.935  0.1216 -0.6452 -0.5035
 7879TIP3    H145128   4.180   4.265   4.847  0.1910 -0.2447 -0.3556
 7879TIP3    H245129   4.061   4.222   4.930 -0.7500  3.4354  0.3935
 7880TIP3   OH245130   4.667   1.660  15.223  0.2069 -0.2690 -0.2771
 7880TIP3    H145131   4.712   1.678  15.140 -0.4336 -0.7686 -0.7398
 7880TIP3    H245132   4.708   1.720  15.286  0.5380  0.2850 -1.0068
 7881TIP3   OH245133   3.399   3.063   2.216 -0.1849 -0.0997 -0.3228
 7881TIP3    H145134   3.413   2.986   2.271  2.4579  0.2974 -0.3245
 7881TIP3    H245135   3.343   3.120   2.268 -0.3990 -1.1076  0.5813
 7882TIP3   OH245136   2.014   4.178  13.734 -0.1897  0.7735  0.3130
 7882TIP3    H145137   1.990   4.134  13.653  0.4952  0.0529  0.4975
 7882TIP3    H245138   1.982   4.120  13.803 -0.4002  1.1833  0.5665
 7883TIP3   OH245139   0.321   3.007   5.376 -0.3426 -0.0612 -0.7278
 7883TIP3    H145140   0.350   3.079   5.320  2.3104  0.6067  1.2808
 7883TIP3    H245141   0.239   3.039   5.415  0.8869  2.1037  0.3154
 7884TIP3   OH245142   1.714   4.828  11.003  0.3657 -0.6801  0.7250
 7884TIP3    H145143   1.769   4.757  10.970 -0.9796 -1.8493  0.8717
 7884TIP3    H245144   1.695   4.881  10.925  0.5757 -1.0541  0.4143
 7885TIP3   OH245145   6.333   4.683  11.295 -0.4294  0.1800  0.2405
 7885TIP3    H145146   6.392   4.749  11.332  1.2824 -2.3642  2.4698
 7885TIP3    H245147   6.373   4.658  11.212  1.2490 -0.8696  1.3081
 7886TIP3   OH245148   1.008   0.343   5.122  0.7374  0.6202  0.0717
 7886TIP3    H145149   1.014   0.420   5.178 -1.3000  1.2226 -0.4453
 7886TIP3    H245150   0.959   0.279   5.174  1.2337  0.1713 -0.0066
 7887TIP3   OH245151   3.804   6.031  16.020  0.0838  0.2497 -0.0814
 7887TIP3    H145152   3.738   6.097  16.041 -0.2467  0.2917 -1.2082
 7887TIP3    H245153   3.870   6.040  16.089 -2.0315 -1.1663  2.2794
 7888TIP3   OH245154   5.097   2.745  12.373 -0.0113 -0.2162  0.2292
 7888TIP3    H145155   5.010   2.718  12.401 -0.6244  1.1106 -0.3288
 7888TIP3    H245156   5.148   2.751  12.454 -0.8849  0.5303  0.7428
 7889TIP3   OH245157   6.639   1.300  11.743 -0.3804  0.7546  0.1783
 7889TIP3    H145158   6.725   1.300  11.700 -0.8959  1.2536 -0.8910
 7889TIP3    H245159   6.582   1.252  11.682 -0.7753  0.0457  1.0845
 7890TIP3   OH245160   5.024   1.828  10.539 -0.1377 -0.2906 -0.1589
 7890TIP3    H145161   5.096   1.781  10.497  1.7900  1.9943  0.3738
 7890TIP3    H245162   5.067   1.897  10.589 -2.7289  1.0580  0.3485
 7891TIP3   OH245163   5.160   2.468   1.638  0.2047 -0.2051  0.0569
 7891TIP3    H145164   5.092   2.443   1.576 -0.5622  1.1376  0.3176
 7891TIP3    H245165   5.136   2.557   1.666  2.1379  0.3719  0.0533
 7892TIP3   OH245166   4.737   0.274  13.524 -0.2783  0.2458 -0.7952
 7892TIP3    H145167   4.653   0.307  13.494 -1.4951 -0.0859  1.9478
 7892TIP3    H245168   4.721   0.182  13.546  0.3536  0.5767  1.2227
 7893TIP3   OH245169   4.565   4.600   0.964 -0.0336  0.1920  0.3547
 7893TIP3    H145170   4.492   4.627   0.909 -0.1495 -1.5343 -0.3723
 7893TIP3    H245171   4.524   4.557   1.039  0.1731  1.3902  1.1810
 7894TIP3   OH245172   3.766   6.013  13.138  0.0253 -0.5592 -0.4552
 7894TIP3    H145173   3.704   6.071  13.092 -0.2851  0.1997  0.8717
 7894TIP3    H245174   3.717   5.981  13.214  1.7865  1.6572  1.7879
 7895TIP3   OH245175   1.988   4.837   3.425 -0.6805 -0.2616  0.0339
 7895TIP3    H145176   1.900   4.818   3.459 -0.6332 -2.0193 -0.7445
 7895TIP3    H245177   2.042   4.845   3.504 -1.3212 -0.2224  0.4836
 7896TIP3   OH245178   5.077   3.078   6.814  0.0952  0.4286  0.0003
 7896TIP3    H145179   5.153   3.028   6.842  0.5252  0.9353 -0.2378
 7896TIP3    H245180   5.003   3.037   6.858  0.5765  0.2925  0.6926
 7897TIP3   OH245181   4.566   4.138   2.919 -0.0450 -0.2250  0.2343
 7897TIP3    H145182   4.644   4.082   2.917  0.0953 -0.0557  0.7479
 7897TIP3    H245183   4.514   4.103   2.991 -0.5487 -0.4644 -0.2344
 7898TIP3   OH245184   4.427   4.032  14.692 -0.8737  0.5523  0.4598
 7898TIP3    H145185   4.351   4.033  14.633 -0.7763  1.2840  0.3351
 7898TIP3    H245186   4.466   3.945  14.680 -0.2407  1.0499 -1.3507
 7899TIP3   OH245187   5.411   2.897  16.126 -0.3168  0.4910 -0.2643
 7899TIP3    H145188   5.468   2.974  16.122  0.7071 -0.2817 -0.9585
 7899TIP3    H245189   5.471   2.824  16.138 -1.3076 -0.1772  0.7627
 7900TIP3   OH245190   4.363   2.406  15.100  0.5721  0.1828 -0.5511
 7900TIP3    H145191   4.426   2.475  15.078  0.7267 -0.1474 -1.1821
 7900TIP3    H245192   4.387   2.333  15.042 -0.9340  0.3577 -1.4523
 7901TIP3   OH245193   3.418   4.773  11.023  0.4002 -0.1129  0.2684
 7901TIP3    H145194   3.471   4.852  11.018 -0.3090  0.3648  0.2829
 7901TIP3    H245195   3.455   4.716  10.954  0.2798  0.6096 -0.4089
 7902TIP3   OH245196   1.042   3.238  16.960  0.0845 -0.2235  0.4232
 7902TIP3    H145197   1.107   3.270  17.023  0.8251 -1.3587  0.2664
 7902TIP3    H245198   1.045   3.300  16.888 -0.1213  0.5837  1.0877
 7903TIP3   OH245199   0.985   1.283  16.723  0.0686 -0.1613  0.5313
 7903TIP3    H145200   0.904   1.332  16.740  0.2563  0.4179 -0.1944
 7903TIP3    H245201   0.976   1.251  16.634  0.4984 -0.3873  0.5656
 7904TIP3   OH245202   1.602   5.360  11.559  0.1020 -0.0999 -0.7271
 7904TIP3    H145203   1.595   5.446  11.600 -2.4410 -0.5021 -0.1674
 7904TIP3    H245204   1.648   5.306  11.624 -3.5017 -0.6260  1.6421
 7905TIP3   OH245205   1.131   3.876   1.759  0.7585  0.4215 -0.0902
 7905TIP3    H145206   1.099   3.855   1.847  0.0511 -0.7332 -0.5912
 7905TIP3    H245207   1.073   3.945   1.728  0.9229  0.7353  0.2834
 7906TIP3   OH245208   5.886   4.360  13.561 -0.3371  0.5167 -0.0418
 7906TIP3    H145209   5.980   4.372  13.570 -0.0201 -0.9460 -1.1447
 7906TIP3    H245210   5.864   4.403  13.478 -0.4439 -0.0943 -0.3356
 7907TIP3   OH245211   5.846   3.626  14.543  0.3872  0.5496 -0.5190
 7907TIP3    H145212   5.835   3.670  14.459 -0.8902  1.6060  0.1501
 7907TIP3    H245213   5.819   3.692  14.608  0.3930 -0.5552  0.6499
 7908TIP3   OH245214   3.184   5.044  14.415 -0.4542 -0.0676  0.2862
 7908TIP3    H145215   3.275   5.074  14.418  0.0874 -1.5598  0.1114
 7908TIP3    H245216   3.175   4.990  14.494 -0.6037 -1.4074 -0.6192
 7909TIP3   OH245217   1.702   3.625  12.379  0.2392 -0.0924 -0.1877
 7909TIP3    H145218   1.784   3.588  12.347  0.3694  0.0271  0.0008
 7909TIP3    H245219   1.660   3.554  12.427  0.6160  0.0747  0.4042
 7910TIP3   OH245220   4.380   2.315  16.038 -0.0352  0.1651  0.7616
 7910TIP3    H145221   4.294   2.327  16.080 -0.5016  0.8706 -0.3464
 7910TIP3    H245222   4.442   2.315  16.111 -0.9320  0.0331  1.5553
 7911TIP3   OH245223   5.520   0.047  16.274 -0.6506 -0.3511 -0.3750
 7911TIP3    H145224   5.425   0.049  16.285 -0.6267  1.1399 -0.3341
 7911TIP3    H245225   5.555   0.065  16.362 -0.2209 -3.7763  0.3304
 7912TIP3   OH245226   3.169   5.145  11.710  0.2681 -0.2552 -0.1797
 7912TIP3    H145227   3.219   5.064  11.708  0.2075 -0.2843 -0.6913
 7912TIP3    H245228   3.190   5.184  11.795 -0.1424 -1.0811  0.3177
 7913TIP3   OH245229   5.844   6.521   0.093 -0.5109 -0.0061  0.7482
 7913TIP3    H145230   5.895   6.602   0.094  1.9749 -1.4732  1.1909
 7913TIP3    H245231   5.823   6.508   0.000 -0.2788  0.7572  0.5799
 7914TIP3   OH245232   4.015   2.984  15.120 -0.1475 -0.0002 -0.3339
 7914TIP3    H145233   3.932   3.030  15.129  0.7476  1.7027 -0.4900
 7914TIP3    H245234   4.059   2.996  15.204 -0.7033 -2.3251  0.3702
 7915TIP3   OH245235   2.564   1.075   4.229  0.0500 -0.1207  0.8217
 7915TIP3    H145236   2.638   1.058   4.170 -0.2848  0.8722  0.0890
 7915TIP3    H245237   2.521   0.990   4.239 -0.0382 -0.2642 -0.5876
 7916TIP3   OH245238   2.149   4.514   4.543  0.6417  0.0502  0.3452
 7916TIP3    H145239   2.075   4.518   4.483  0.6793 -0.1152  0.2855
 7916TIP3    H245240   2.125   4.446   4.606  1.5708 -1.4188 -0.8187
 7917TIP3   OH245241   4.973   1.414  13.023 -0.0967  0.4335 -0.4381
 7917TIP3    H145242   5.014   1.327  13.013  0.6896  0.3991  2.3439
 7917TIP3    H245243   4.880   1.398  13.010 -0.2871 -1.3886  2.3358
 7918TIP3   OH245244   1.712   0.366  14.758 -0.0975  0.4519  0.3002
 7918TIP3    H145245   1.666   0.282  14.757 -1.0813  0.9637  0.5889
 7918TIP3    H245246   1.741   0.377  14.849  0.1427  0.3665  0.2343
 7919TIP3   OH245247   6.152   3.957  15.789 -0.3402 -0.1165  0.1139
 7919TIP3    H145248   6.184   3.999  15.869 -0.1512 -2.9469  1.6592
 7919TIP3    H245249   6.057   3.966  15.794 -0.2743  0.7443  0.0136
 7920TIP3   OH245250   3.109   1.921   1.219 -0.7436 -0.1887 -0.1130
 7920TIP3    H145251   3.070   2.008   1.207 -1.5484 -0.5532 -0.2090
 7920TIP3    H245252   3.104   1.881   1.132  0.3251 -0.0639 -0.2492
 7921TIP3   OH245253   4.923   0.100  15.477 -0.3289 -0.6415  0.1867
 7921TIP3    H145254   4.931   0.192  15.505  3.3820 -0.7111 -0.1219
 7921TIP3    H245255   4.878   0.057  15.550 -0.9580  1.1670  0.9398
 7922TIP3   OH245256   3.130   5.560   2.143 -0.0746  0.0869 -0.3463
 7922TIP3    H145257   3.174   5.507   2.076  0.2419 -1.2240  0.8410
 7922TIP3    H245258   3.171   5.532   2.225 -0.3783  1.7310  0.3929
 7923TIP3   OH245259   2.680   1.147  15.841  0.0246 -0.2961  0.5736
 7923TIP3    H145260   2.712   1.069  15.795 -0.2931  0.3630 -0.8406
 7923TIP3    H245261   2.757   1.201  15.855 -0.1106  0.3367 -0.9205
 7924TIP3   OH245262   6.557   0.768   3.643  0.0337 -0.3177 -0.3903
 7924TIP3    H145263   6.618   0.810   3.702 -0.5908 -0.5162  0.4143
 7924TIP3    H245264   6.481   0.746   3.697  0.2446 -2.2972 -0.8087
 7925TIP3   OH245265   2.226   6.620  10.382 -0.5436 -0.4474 -0.1719
 7925TIP3    H145266   2.200   6.695  10.436 -0.4762 -0.1233 -0.5897
 7925TIP3    H245267   2.316   6.601  10.409 -0.4999 -0.2669 -0.1895
 7926TIP3   OH245268   5.934   3.875  12.377  0.7092 -0.0194 -0.3875
 7926TIP3    H145269   5.856   3.909  12.335  1.1697  0.2041 -1.0892
 7926TIP3    H245270   5.968   3.810  12.315  0.1051 -1.4397  0.7149
 7927TIP3   OH245271   5.085   5.998   0.676 -0.1796 -0.6130 -0.3482
 7927TIP3    H145272   5.098   5.977   0.583 -1.5440 -1.7663 -0.3034
 7927TIP3    H245273   5.159   6.054   0.698  0.7065 -1.1186 -1.8861
 7928TIP3   OH245274   6.806   2.571  16.534  0.4265 -0.8168  0.7251
 7928TIP3    H145275   6.720   2.550  16.497  0.5668  0.6314 -0.4968
 7928TIP3    H245276   6.786   2.602  16.623 -0.5527  1.1970 -0.1321
 7929TIP3   OH245277   2.354   2.334   4.904 -0.2310  0.1423  0.5633
 7929TIP3    H145278   2.286   2.363   4.843  0.8035  3.2848  0.7287
 7929TIP3    H245279   2.419   2.292   4.848 -1.3104 -1.0770  0.1537
 7930TIP3   OH245280   1.103   4.573   3.142 -0.1648 -0.1533 -0.6363
 7930TIP3    H145281   1.130   4.628   3.215  2.8508 -0.0050 -1.7418
 7930TIP3    H245282   1.175   4.511   3.131 -0.6510 -0.3285 -3.3090
 7931TIP3   OH245283   0.402   0.978  11.123  0.3392  0.5062 -0.0879
 7931TIP3    H145284   0.339   1.030  11.173 -2.0000 -0.8220 -1.5039
 7931TIP3    H245285   0.480   0.976  11.179 -1.3215  1.0100  2.4342
 7932TIP3   OH245286   0.850   0.535   4.006 -0.0503 -0.1390 -0.6567
 7932TIP3    H145287   0.935   0.514   4.045 -0.5138  0.0337  0.4677
 7932TIP3    H245288   0.816   0.607   4.059 -0.5128  0.3949 -1.6480
 7933TIP3   OH245289   4.875   4.377  16.132  0.6657 -0.0007  0.3879
 7933TIP3    H145290   4.873   4.283  16.144  0.9164  0.0292  0.6743
 7933TIP3    H245291   4.829   4.392  16.050 -1.5929 -0.1794  1.5408
 7934TIP3   OH245292   1.711   0.761  13.332 -0.2801 -0.3230  0.1188
 7934TIP3    H145293   1.709   0.857  13.341 -2.7514 -0.3070  0.0754
 7934TIP3    H245294   1.733   0.729  13.419 -1.2826  0.2657  0.6000
 7935TIP3   OH245295   4.935   1.740  15.581  0.4464  0.3427  0.1899
 7935TIP3    H145296   5.011   1.798  15.580 -0.1656  1.1632  0.2300
 7935TIP3    H245297   4.910   1.731  15.489 -0.2739  1.2655  0.2739
 7936TIP3   OH245298   2.759   1.511  12.549 -0.2120 -0.4357 -0.2348
 7936TIP3    H145299   2.679   1.493  12.499 -0.7609  0.6955  0.1892
 7936TIP3    H245300   2.776   1.604  12.535  1.0583 -0.6622 -0.3293
 7937TIP3   OH245301   3.692   1.340   5.050  0.5665 -0.3483  0.2626
 7937TIP3    H145302   3.699   1.342   5.145 -0.6875 -2.4592  0.4531
 7937TIP3    H245303   3.598   1.335   5.033  0.8437 -2.1315 -0.9720
 7938TIP3   OH245304   5.916   5.469   2.862 -0.7355  0.5163  0.0960
 7938TIP3    H145305   5.914   5.430   2.774  0.6742  1.6189 -0.4584
 7938TIP3    H245306   5.914   5.394   2.921 -0.3701 -0.3083 -0.9080
 7939TIP3   OH245307   0.629   4.898   1.224 -0.5417 -0.4220  0.3335
 7939TIP3    H145308   0.716   4.937   1.228  0.3384 -2.3102  0.7262
 7939TIP3    H245309   0.570   4.968   1.252  0.5854  1.5266 -1.7924
 7940TIP3   OH245310   2.420   4.869  15.595 -0.1867 -0.2103 -0.8379
 7940TIP3    H145311   2.434   4.940  15.658 -1.4626  1.0445 -1.9054
 7940TIP3    H245312   2.414   4.790  15.649  1.1691  0.4809  0.3885
 7941TIP3   OH245313   0.037   2.629  12.494  0.1207  0.1063  0.5046
 7941TIP3    H145314   0.108   2.694  12.503  0.1679  0.5667 -2.2933
 7941TIP3    H245315  -0.033   2.663  12.549  1.6108  0.2424  2.4412
 7942TIP3   OH245316   5.908   0.636   0.902 -0.3735  0.0045 -0.2602
 7942TIP3    H145317   5.895   0.560   0.959  0.4314 -0.7085 -0.9874
 7942TIP3    H245318   5.893   0.712   0.958  1.3797 -0.6536  1.1671
 7943TIP3   OH245319   2.391   4.387  13.137 -0.5785  0.7212 -0.1943
 7943TIP3    H145320   2.457   4.448  13.104  0.9333 -0.4758  0.4772
 7943TIP3    H245321   2.335   4.441  13.193  0.0478  1.6967 -0.4772
 7944TIP3   OH245322   1.997   0.044   2.982 -0.3655 -0.6866  0.1723
 7944TIP3    H145323   2.026   0.051   3.073  0.7920 -2.1115 -0.0380
 7944TIP3    H245324   2.078   0.052   2.931 -0.8612 -0.9583 -0.6737
 7945TIP3   OH245325   0.913   4.289  15.807  0.4524 -0.2142 -0.3814
 7945TIP3    H145326   0.836   4.343  15.823  0.6169  0.6213 -2.1382
 7945TIP3    H245327   0.973   4.311  15.878  0.4944  1.9218 -1.0220
 7946TIP3   OH245328   6.367   4.562  14.539  0.0120 -0.2974 -0.6704
 7946TIP3    H145329   6.286   4.575  14.489  0.2551 -2.4336 -1.7284
 7946TIP3    H245330   6.417   4.498  14.487  2.3686  0.9037 -0.0216
 7947TIP3   OH245331   4.719   3.024  16.843  0.1122  0.2146 -0.0451
 7947TIP3    H145332   4.809   3.043  16.818  0.1467 -0.0733 -0.1424
 7947TIP3    H245333   4.694   3.097  16.901  0.8668 -0.4103  1.0938
 7948TIP3   OH245334   3.735   6.683   4.827  0.2309  0.0017 -0.0918
 7948TIP3    H145335   3.715   6.595   4.793  0.5077 -0.1604  0.1611
 7948TIP3    H245336   3.720   6.676   4.921  1.2411 -0.0676  0.0788
 7949TIP3   OH245337   0.519   6.303  12.447 -0.0804  0.6713 -0.9256
 7949TIP3    H145338   0.494   6.227  12.394 -0.8346  0.8157 -0.7821
 7949TIP3    H245339   0.558   6.265  12.526  1.3331  0.4520 -1.6816
 7950TIP3   OH245340   4.575   3.393   1.579 -0.0643  0.8777 -0.2732
 7950TIP3    H145341   4.616   3.470   1.617  0.5578  0.8948 -0.9704
 7950TIP3    H245342   4.640   3.323   1.588  1.1882  1.4655 -3.5593
 7951TIP3   OH245343   6.141   6.854   5.240 -0.3894 -0.6521 -0.2335
 7951TIP3    H145344   6.142   6.950   5.248  0.2838 -0.6706 -0.0700
 7951TIP3    H245345   6.048   6.833   5.230 -0.3787  0.3138 -4.0198
 7952TIP3   OH245346   1.718   5.228  11.790 -0.7382 -0.3463 -0.0041
 7952TIP3    H145347   1.701   5.154  11.847  0.8602  0.4608  1.6101
 7952TIP3    H245348   1.785   5.197  11.729  0.6682  0.0056  1.3062
 7953TIP3   OH245349   1.783   0.843  16.047  0.2144  0.2030 -0.5956
 7953TIP3    H145350   1.773   0.883  16.134 -0.1685 -1.1087 -0.0068
 7953TIP3    H245351   1.762   0.913  15.986 -0.5457  0.8776  0.3956
 7954TIP3   OH245352   3.215   0.793  10.538 -0.8878  0.2022 -0.3216
 7954TIP3    H145353   3.287   0.743  10.576 -0.1469  1.4376 -0.0372
 7954TIP3    H245354   3.243   0.813  10.449 -0.7172  0.9587 -0.1089
 7955TIP3   OH245355   5.570   2.991  13.739 -0.0841 -0.3905 -0.2751
 7955TIP3    H145356   5.525   2.965  13.819 -3.6175  3.0295 -0.8154
 7955TIP3    H245357   5.556   2.919  13.678 -0.2342 -1.6355  1.1908
 7956TIP3   OH245358   3.229   0.683  10.943 -0.2838  0.1306 -0.3724
 7956TIP3    H145359   3.273   0.648  11.020 -0.0142 -0.6496 -0.8672
 7956TIP3    H245360   3.227   0.610  10.881 -2.8983 -0.1197 -0.1244
 7957TIP3   OH245361   2.555   1.367   2.826 -0.2364  0.6087 -0.6071
 7957TIP3    H145362   2.520   1.294   2.774  0.3076  1.0619 -1.6392
 7957TIP3    H245363   2.588   1.326   2.906  1.2292 -0.4754 -1.7171
 7958TIP3   OH245364   4.221   2.329   5.600 -0.0212  0.2885 -0.3297
 7958TIP3    H145365   4.247   2.255   5.546  0.6544  0.8988 -0.8513
 7958TIP3    H245366   4.196   2.289   5.684  0.2343 -0.5391 -0.6342
 7959TIP3   OH245367   3.301   1.739  15.966 -0.1812 -0.5150 -0.2893
 7959TIP3    H145368   3.234   1.710  15.904 -1.1284  0.8704  0.0198
 7959TIP3    H245369   3.311   1.833  15.947  0.8024 -0.4523  0.4793
 7960TIP3   OH245370   1.575   5.303  16.219  0.2168  0.5750 -0.5658
 7960TIP3    H145371   1.656   5.310  16.269 -0.2495 -0.3553  0.3678
 7960TIP3    H245372   1.509   5.280  16.284 -0.3662 -0.8714 -1.6196
 7961TIP3   OH245373   2.328   2.417   4.448 -0.3368 -0.3023  0.5197
 7961TIP3    H145374   2.364   2.424   4.360 -0.3400 -1.7323  0.3875
 7961TIP3    H245375   2.324   2.323   4.465 -1.5877 -0.0908  1.5262
 7962TIP3   OH245376   5.233   6.459  16.025 -0.3767 -0.0394  0.3563
 7962TIP3    H145377   5.315   6.506  16.044 -0.6685  1.1906 -1.2200
 7962TIP3    H245378   5.166   6.527  16.027 -1.0264 -0.6373 -0.5691
 7963TIP3   OH245379   3.589   3.522   2.446 -0.1341  0.2750  0.2260
 7963TIP3    H145380   3.523   3.541   2.380 -0.8699  0.7535  1.0862
 7963TIP3    H245381   3.645   3.599   2.447  1.8732 -0.9904 -2.0917
 7964TIP3   OH245382   1.123   4.068   5.495 -0.0610  0.0191  0.0142
 7964TIP3    H145383   1.033   4.098   5.476 -0.1490 -1.7704 -2.9660
 7964TIP3    H245384   1.118   3.973   5.491  2.2960 -0.0971 -2.1641
 7965TIP3   OH245385   0.187   2.799  16.263 -0.0783  0.4349  0.3491
 7965TIP3    H145386   0.145   2.829  16.344 -1.0646  0.1564 -0.0482
 7965TIP3    H245387   0.281   2.808  16.280 -0.1929 -1.3017  2.1852
 7966TIP3   OH245388   0.062   0.985   2.245 -0.0306  0.3332 -0.2632
 7966TIP3    H145389   0.143   0.940   2.268 -0.5482 -1.7809 -2.2180
 7966TIP3    H245390   0.014   0.992   2.327  0.8551 -1.1142  0.4197
 7967TIP3   OH245391   0.031   2.613   1.096  0.5611 -0.5586  0.5083
 7967TIP3    H145392   0.043   2.669   1.019 -3.4610  1.6909  1.2515
 7967TIP3    H245393   0.031   2.674   1.170 -0.7611 -1.9684  1.7245
 7968TIP3   OH245394   1.263   4.553  12.474  0.2951  0.2316  0.0069
 7968TIP3    H145395   1.349   4.590  12.494  0.8703 -0.6237 -0.8232
 7968TIP3    H245396   1.250   4.571  12.381  0.3948 -1.2042 -0.3159
 7969TIP3   OH245397   6.002   4.738   4.321 -0.1643 -0.3445  0.0824
 7969TIP3    H145398   5.948   4.720   4.398 -0.0351 -2.1608 -0.2064
 7969TIP3    H245399   5.962   4.815   4.281 -1.4165 -0.5424  0.8931
 7970TIP3   OH245400   5.908   4.139  12.153  0.1177  0.2807  0.0136
 7970TIP3    H145401   5.932   4.219  12.106  0.4511 -0.4650 -1.0998
 7970TIP3    H245402   5.978   4.077  12.134 -1.0300 -0.8704 -0.6460
 7971TIP3   OH245403   3.310   0.891   2.831 -0.5645 -0.3159  0.4190
 7971TIP3    H145404   3.275   0.979   2.846 -1.1446 -0.3889 -0.3994
 7971TIP3    H245405   3.388   0.906   2.777  0.4367 -0.1870  1.8495
 7972TIP3   OH245406   6.265   4.832  15.074 -0.4849  0.7220 -0.3083
 7972TIP3    H145407   6.310   4.892  15.015  1.0781 -0.9498 -0.9096
 7972TIP3    H245408   6.172   4.855  15.065 -0.2772  0.8708 -3.0858
 7973TIP3   OH245409   3.403   5.750   6.478  0.1857 -0.6229 -0.4026
 7973TIP3    H145410   3.412   5.699   6.398 -1.0722  0.2863 -1.1546
 7973TIP3    H245411   3.390   5.840   6.449  0.9024 -0.0709  0.8647
 7974TIP3   OH245412   0.245   6.739   1.375 -0.6480  0.0580 -0.3612
 7974TIP3    H145413   0.295   6.756   1.456 -0.1971 -0.3123 -0.5598
 7974TIP3    H245414   0.170   6.799   1.381 -0.9455 -0.3901  0.6190
 7975TIP3   OH245415   0.224   3.895  15.523 -0.1996 -0.3913  0.1280
 7975TIP3    H145416   0.144   3.860  15.485  0.3087 -0.5609 -0.8136
 7975TIP3    H245417   0.250   3.965  15.463  1.3954 -1.6042 -0.6792
 7976TIP3   OH245418   1.852   6.598  10.592  0.2050  0.2107  0.0702
 7976TIP3    H145419   1.851   6.678  10.645  2.5944  0.5590 -0.2579
 7976TIP3    H245420   1.913   6.540  10.638 -0.9787 -1.1747 -0.0581
 7977TIP3   OH245421   6.824   0.639  17.107  0.2824  0.3655  0.1086
 7977TIP3    H145422   6.870   0.632  17.191  0.2022  1.0430  0.2096
 7977TIP3    H245423   6.801   0.731  17.100 -1.8394 -0.0930  0.4745
 7978TIP3   OH245424   3.630   3.752   3.347 -0.4223 -0.0166 -0.0005
 7978TIP3    H145425   3.557   3.801   3.384  0.7927  0.2303  2.2063
 7978TIP3    H245426   3.693   3.819   3.321  0.8325 -0.2998  2.1359
 7979TIP3   OH245427   0.134   6.437   2.887 -0.0731 -0.3593 -0.2767
 7979TIP3    H145428   0.148   6.458   2.794  2.2521  2.8302  0.6393
 7979TIP3    H245429   0.065   6.496   2.915 -2.3508 -2.8108 -0.3102
 7980TIP3   OH245430   6.050   0.309   4.840  0.4439  0.0719  0.0599
 7980TIP3    H145431   6.099   0.319   4.758  0.2672 -0.3741 -0.1013
 7980TIP3    H245432   5.970   0.264   4.814  0.4316 -0.1581  0.4987
 7981TIP3   OH245433   4.575   6.605  13.914 -0.8582  0.2193 -0.1237
 7981TIP3    H145434   4.544   6.606  14.004 -0.9032 -1.8248 -0.0748
 7981TIP3    H245435   4.671   6.600  13.922 -0.8395  0.4552 -0.1970
 7982TIP3   OH245436   1.451   0.700  17.044  0.5353 -0.6785  0.0381
 7982TIP3    H145437   1.501   0.640  16.988 -1.6960 -1.2530 -1.4836
 7982TIP3    H245438   1.431   0.649  17.122  2.3534 -0.3832  0.7581
 7983TIP3   OH245439   5.380   0.289  12.687  0.0696 -0.3707 -0.5099
 7983TIP3    H145440   5.373   0.359  12.752  0.7319 -0.5109 -0.2776
 7983TIP3    H245441   5.473   0.287  12.665  0.3268 -2.1282  0.5516
 7984TIP3   OH245442   3.036   2.052   4.669  0.2018  0.6609  0.0684
 7984TIP3    H145443   3.006   2.135   4.632  1.0548  0.6398 -0.7098
 7984TIP3    H245444   2.977   1.987   4.632  0.2143  0.8007 -0.2047
 7985TIP3   OH245445   0.991   6.465   3.685  0.3476  0.0601  0.1125
 7985TIP3    H145446   1.008   6.533   3.619 -1.0393  1.3861  1.0430
 7985TIP3    H245447   0.901   6.437   3.669  0.3878 -0.4453  0.7166
 7986TIP3   OH245448   2.809   5.728  13.718  0.1838  0.1043  0.4983
 7986TIP3    H145449   2.759   5.653  13.687 -1.5224  0.8263  1.3593
 7986TIP3    H245450   2.838   5.703  13.806 -0.1297  0.3063  0.6655
 7987TIP3   OH245451   3.641   3.217  16.319 -0.1199 -0.4713 -0.5691
 7987TIP3    H145452   3.685   3.287  16.271  0.8257 -1.0639 -0.5917
 7987TIP3    H245453   3.562   3.199  16.268 -0.1881  0.3215 -0.7602
 7988TIP3   OH245454   1.011   0.095  12.062 -0.6319 -0.4030 -0.2253
 7988TIP3    H145455   0.961   0.039  12.002  0.4358 -2.8233  0.9847
 7988TIP3    H245456   0.947   0.121  12.128 -0.8620 -1.4062 -0.0386
 7989TIP3   OH245457   1.724   2.727   2.548 -0.2357 -0.5986 -0.7503
 7989TIP3    H145458   1.705   2.808   2.594  2.9689 -0.5695  0.8108
 7989TIP3    H245459   1.663   2.663   2.584  0.4352  0.0417  1.6668
 7990TIP3   OH245460   6.061   2.899  10.927 -0.6392  0.2353  0.1372
 7990TIP3    H145461   5.973   2.925  10.899 -0.9500 -0.8468  0.0249
 7990TIP3    H245462   6.118   2.923  10.854 -1.3062 -1.7187 -1.1219
 7991TIP3   OH245463   0.113   6.417   0.667 -0.2642  0.8150  0.6204
 7991TIP3    H145464   0.206   6.428   0.689 -0.1298  0.2906  0.3153
 7991TIP3    H245465   0.072   6.499   0.696  0.2509  0.9512  0.9773
 7992TIP3   OH245466   4.587   2.334   4.591 -0.3947  0.3430 -0.3340
 7992TIP3    H145467   4.501   2.377   4.592 -0.8135 -0.4110 -1.5393
 7992TIP3    H245468   4.578   2.265   4.525  1.0556  0.0673 -0.2675
 7993TIP3   OH245469   1.962   0.122  14.860 -0.0559  0.1951 -0.2075
 7993TIP3    H145470   1.940   0.157  14.946  0.1617  0.4682 -0.2611
 7993TIP3    H245471   2.024   0.185  14.823 -1.3044  0.8790 -1.1881
 7994TIP3   OH245472   1.780   2.233  15.134 -0.3765 -0.4670  0.9809
 7994TIP3    H145473   1.872   2.260  15.133 -1.0774  2.1733 -0.5285
 7994TIP3    H245474   1.733   2.307  15.173 -1.9292 -1.6014  1.3801
 7995TIP3   OH245475   0.201   4.315  16.196  0.3014 -0.1268 -0.0612
 7995TIP3    H145476   0.282   4.275  16.164 -0.6490 -1.3203 -1.0888
 7995TIP3    H245477   0.205   4.405  16.163  1.7066  0.1699  0.8527
 7996TIP3   OH245478   0.167   3.042   2.181  0.2512 -0.4610  0.2344
 7996TIP3    H145479   0.125   3.001   2.257 -0.2056 -0.4405 -0.0051
 7996TIP3    H245480   0.168   3.135   2.201 -0.2884 -0.4037  0.0191
 7997TIP3   OH245481   4.417   5.522   3.168 -0.3932  0.5242  0.1732
 7997TIP3    H145482   4.425   5.431   3.137  2.8650 -0.3563  2.9521
 7997TIP3    H245483   4.406   5.573   3.088 -1.9356 -2.2104 -1.5507
 7998TIP3   OH245484   1.134   0.291  11.930 -0.1352 -1.2433 -0.0922
 7998TIP3    H145485   1.093   0.216  11.972 -1.4954 -1.9913 -2.5220
 7998TIP3    H245486   1.068   0.360  11.935  0.8420 -0.3707  1.5154
 7999TIP3   OH245487   3.072   5.294  16.461 -0.3353  0.3461  0.3444
 7999TIP3    H145488   3.031   5.380  16.475 -1.0953 -0.1337  1.0932
 7999TIP3    H245489   3.083   5.258  16.548  1.4228  0.3108  0.1508
 8000TIP3   OH245490   1.752   3.855  16.244 -0.9282  0.5450 -0.5387
 8000TIP3    H145491   1.813   3.791  16.281 -0.9995  0.9741  0.3438
 8000TIP3    H245492   1.806   3.933  16.230 -0.9102  0.3964 -1.3218
 8001TIP3   OH245493   1.476   2.024  12.235 -0.0972  0.4132  0.0504
 8001TIP3    H145494   1.437   2.110  12.217  0.9207  0.9783  0.4335
 8001TIP3    H245495   1.565   2.044  12.266  0.3851 -0.8121 -0.4671
 8002TIP3   OH245496   1.475   6.076   5.372 -0.4245  0.1245  0.3078
 8002TIP3    H145497   1.485   6.159   5.326  1.0562 -1.2948 -2.1468
 8002TIP3    H245498   1.553   6.026   5.349 -1.3697 -2.0576  1.5173
 8003TIP3   OH245499   0.713   5.519  16.570  0.3250 -0.4967  0.0560
 8003TIP3    H145500   0.714   5.485  16.659  1.1401 -0.2164  0.1591
 8003TIP3    H245501   0.804   5.511  16.540  0.3137  0.5825 -0.2961
 8004TIP3   OH245502   5.530   0.597   1.103  0.0819  0.1255  0.5416
 8004TIP3    H145503   5.545   0.503   1.104  2.1017  0.3898 -0.2143
 8004TIP3    H245504   5.570   0.627   1.021  2.9495  2.0898  2.4517
 8005TIP3   OH245505   6.270   6.359  13.382  0.2495  0.4772  0.3392
 8005TIP3    H145506   6.285   6.374  13.289  0.0483 -0.2272  0.1887
 8005TIP3    H245507   6.358   6.364  13.421  0.4766 -0.3165 -0.0515
 8006TIP3   OH245508   3.930   3.396  16.351 -0.5056  0.3520 -0.1785
 8006TIP3    H145509   3.849   3.399  16.300 -1.4369  0.5912  1.2719
 8006TIP3    H245510   3.970   3.482  16.336 -0.3511  0.1318 -1.1223
 8007TIP3   OH245511   4.950   5.613  11.166 -0.2548 -0.3592  0.1514
 8007TIP3    H145512   4.955   5.708  11.180 -0.9303 -0.2508 -0.3102
 8007TIP3    H245513   4.891   5.582  11.235  1.8219 -0.8047  1.8344
 8008TIP3   OH245514   0.924   4.518  14.025 -0.5471 -0.2055  0.4736
 8008TIP3    H145515   0.896   4.426  14.027 -2.1132  0.2601  1.1024
 8008TIP3    H245516   0.908   4.550  14.113  2.7369 -0.0411  1.1380
 8009TIP3   OH245517   1.090   3.255   3.788  0.5045  0.3714 -0.1264
 8009TIP3    H145518   1.150   3.282   3.857  1.3670 -2.4761  0.3869
 8009TIP3    H245519   1.123   3.296   3.708  2.5453 -0.2557  0.3435
 8010TIP3   OH245520   4.170   0.144   0.052  0.5634 -0.0390  0.3058
 8010TIP3    H145521   4.076   0.152   0.037  0.2455 -3.7901 -0.5346
 8010TIP3    H245522   4.211   0.169  -0.031  0.4568  2.3516  0.9054
 8011TIP3   OH245523   0.700   2.154  12.766  0.3578 -0.4470  0.3410
 8011TIP3    H145524   0.658   2.102  12.834  1.8181 -0.1366  1.5323
 8011TIP3    H245525   0.632   2.167  12.700 -0.6504 -2.0420  1.0149
 8012TIP3   OH245526   5.317   3.246  15.877  0.1269 -0.0508 -0.2964
 8012TIP3    H145527   5.336   3.267  15.968 -1.0463 -1.9357  0.4442
 8012TIP3    H245528   5.350   3.156  15.866 -0.1850 -0.0258 -1.5788
 8013TIP3   OH245529   1.167   4.475   3.834 -0.7568 -0.8118 -0.1850
 8013TIP3    H145530   1.144   4.509   3.747 -0.9747 -0.1228  0.1302
 8013TIP3    H245531   1.094   4.418   3.858 -0.3298 -1.6319 -0.7747
 8014TIP3   OH245532   1.464   5.496   1.947 -0.0837  0.2845 -0.6661
 8014TIP3    H145533   1.553   5.462   1.935  0.6203  2.2478 -1.4030
 8014TIP3    H245534   1.469   5.586   1.916 -1.6342  1.3328  1.8357
 8015TIP3   OH245535   0.165   6.476  12.220 -0.3414 -0.3329  0.3736
 8015TIP3    H145536   0.242   6.531  12.234 -0.8169  0.8829 -1.4201
 8015TIP3    H245537   0.103   6.504  12.288 -0.0405  0.3317  0.3819
 8016TIP3   OH245538   2.575   5.176   2.832 -0.6063  0.3391 -0.0872
 8016TIP3    H145539   2.652   5.233   2.834  0.8690 -1.5985  0.3891
 8016TIP3    H245540   2.520   5.213   2.762  0.8258  1.6431 -0.5763
 8017TIP3   OH245541   4.847   0.984  12.388  0.1191  0.2850 -0.4779
 8017TIP3    H145542   4.772   1.032  12.353 -1.2303  0.8042  2.7530
 8017TIP3    H245543   4.892   1.048  12.444  1.9011 -0.5679 -0.8796
 8018TIP3   OH245544   4.911   6.131  11.900 -0.2603 -0.1118 -0.0809
 8018TIP3    H145545   4.920   6.224  11.880 -2.1882  0.8124  2.7141
 8018TIP3    H245546   4.830   6.105  11.856  1.3290 -1.1394 -2.6105
 8019TIP3   OH245547   3.539   0.658   4.295 -0.2899 -0.0123  0.0027
 8019TIP3    H145548   3.571   0.670   4.384 -1.4081 -0.8845  0.5247
 8019TIP3    H245549   3.619   0.660   4.241  0.4772 -0.3498  1.0969
 8020TIP3   OH245550   0.272   0.722   1.156  0.5194  0.5371 -0.6175
 8020TIP3    H145551   0.346   0.774   1.125  0.5644 -0.4905 -2.3915
 8020TIP3    H245552   0.255   0.660   1.085  0.1747 -1.5612  1.1966
 8021TIP3   OH245553   5.554   5.346   0.116 -0.2077 -0.5441 -0.1415
 8021TIP3    H145554   5.516   5.285   0.179 -0.7083 -0.3647 -0.2718
 8021TIP3    H245555   5.573   5.292   0.039  1.0333 -0.9064  0.3956
 8022TIP3   OH245556   4.642   5.007   4.808 -0.2210 -0.1098 -0.1690
 8022TIP3    H145557   4.617   5.094   4.778  2.1361  1.3793  1.8206
 8022TIP3    H245558   4.620   5.006   4.901 -0.3833 -1.7469 -0.1890
 8023TIP3   OH245559   1.414   5.189   2.310 -0.6264 -0.0497  0.5730
 8023TIP3    H145560   1.335   5.138   2.290 -1.6289  1.8500 -0.5070
 8023TIP3    H245561   1.400   5.274   2.269  1.3893  0.8330  1.5509
 8024TIP3   OH245562   2.147   4.676   6.381  0.2900  0.0001 -0.2847
 8024TIP3    H145563   2.180   4.609   6.322  0.2970  1.2155 -1.7276
 8024TIP3    H245564   2.167   4.759   6.337 -1.5405  0.8901  0.4358
 8025TIP3   OH245565   2.360   4.876  12.038  0.8274 -0.2199 -0.1535
 8025TIP3    H145566   2.275   4.836  12.055  0.7834  0.2839  0.9667
 8025TIP3    H245567   2.422   4.819  12.084  0.8825  0.3912  0.5413
 8026TIP3   OH245568   3.125   1.386  10.990  0.3551 -0.3847 -0.2503
 8026TIP3    H145569   3.120   1.374  11.085  0.3995  0.6981 -0.0946
 8026TIP3    H245570   3.052   1.443  10.970  0.1788 -0.8415 -0.9161
 8027TIP3   OH245571   2.752   1.809   3.182  0.5689 -0.2139 -0.0079
 8027TIP3    H145572   2.733   1.744   3.114 -1.6425  0.9865 -0.6273
 8027TIP3    H245573   2.720   1.769   3.263 -0.3397 -0.1320 -0.3100
 8028TIP3   OH245574   3.341   6.445  12.444  0.2810 -0.2133  0.2594
 8028TIP3    H145575   3.389   6.524  12.417 -0.3725 -0.1333 -0.6974
 8028TIP3    H245576   3.369   6.377  12.383 -0.2038 -0.3687  0.2043
 8029TIP3   OH245577   2.587   1.239  13.950 -0.3422  0.0369 -0.2832
 8029TIP3    H145578   2.493   1.221  13.957 -0.2561 -1.0404 -1.5199
 8029TIP3    H245579   2.602   1.253  13.856  1.0411 -1.8620 -0.4212
 8030TIP3   OH245580   6.460   3.681   0.916 -0.2541 -0.0565  0.2253
 8030TIP3    H145581   6.517   3.667   0.992  0.5662 -1.0765 -0.5435
 8030TIP3    H245582   6.437   3.592   0.887  0.4426  0.2762 -1.4372
 8031TIP3   OH245583   4.154   5.019  11.815  0.4119  0.2518  0.0046
 8031TIP3    H145584   4.207   4.961  11.869 -0.1066  1.2373  1.6661
 8031TIP3    H245585   4.065   4.985  11.822  0.2239  0.8037  0.3887
 8032TIP3   OH245586   4.619   5.026  13.198  0.4228  0.2759 -0.1565
 8032TIP3    H145587   4.630   5.103  13.142  2.2674  0.3501  0.2221
 8032TIP3    H245588   4.680   4.961  13.161 -0.2893 -0.6096  0.1943
 8033TIP3   OH245589   2.685   1.978  14.894  0.3883 -0.2798 -0.1898
 8033TIP3    H145590   2.734   1.947  14.818 -0.7277 -0.5104 -0.8404
 8033TIP3    H245591   2.594   1.983  14.864 -0.2408 -1.2693  1.3874
 8034TIP3   OH245592   0.366   4.265   5.270  0.8261  0.2216 -0.2043
 8034TIP3    H145593   0.434   4.294   5.330  0.4128 -1.5337  1.1770
 8034TIP3    H245594   0.290   4.247   5.325  0.2374 -0.8591 -1.3043
 8035TIP3   OH245595   1.601   2.343  13.968 -0.2970 -0.0405  0.4704
 8035TIP3    H145596   1.655   2.283  14.020  2.5692  0.5450 -1.5768
 8035TIP3    H245597   1.583   2.295  13.887 -0.5154  0.7587  0.0345
 8036TIP3   OH245598   1.626   3.496   0.735  0.1686 -0.1954  0.3739
 8036TIP3    H145599   1.711   3.474   0.772  0.4956 -1.1582 -0.8931
 8036TIP3    H245600   1.633   3.590   0.715  2.0409 -0.7960 -2.3628
 8037TIP3   OH245601   2.818   1.557  15.979 -0.2506  0.1764  1.0953
 8037TIP3    H145602   2.849   1.644  15.952 -0.8327 -0.2708 -1.3030
 8037TIP3    H245603   2.726   1.557  15.954 -0.1590 -1.2360  0.6969
 8038TIP3   OH245604   6.656   2.444   1.484 -0.0801 -0.2880 -0.1146
 8038TIP3    H145605   6.568   2.437   1.520 -1.0084  2.4666 -1.5006
 8038TIP3    H245606   6.646   2.422   1.391  0.7629 -0.2881 -0.2134
 8039TIP3   OH245607   2.305   4.295  13.460 -0.5617 -0.2914  0.2217
 8039TIP3    H145608   2.336   4.281  13.370 -1.5575  0.5016 -0.2608
 8039TIP3    H245609   2.320   4.388  13.476  4.6206 -1.2223  2.8638
 8040TIP3   OH245610   2.993   5.553  16.242  0.3148  0.3047  0.4255
 8040TIP3    H145611   2.937   5.522  16.170  2.5178 -0.5332 -1.0269
 8040TIP3    H245612   2.937   5.546  16.319 -1.8272  0.2575 -1.0229
 8041TIP3   OH245613   1.563   3.802   3.994 -0.4875  0.1609 -0.1182
 8041TIP3    H145614   1.554   3.877   3.936 -0.7580  0.1377 -0.1111
 8041TIP3    H245615   1.618   3.833   4.066  1.3095 -0.3191 -1.2303
 8042TIP3   OH245616   5.325   6.803   4.012  0.1741 -0.3003  0.0163
 8042TIP3    H145617   5.327   6.882   3.958  0.0107 -1.4144 -1.6968
 8042TIP3    H245618   5.416   6.792   4.041  0.6578 -0.6489 -1.5519
 8043TIP3   OH245619   5.941   3.301   6.203 -0.6329 -0.0980 -0.6099
 8043TIP3    H145620   5.914   3.299   6.295  2.2231 -0.0084  0.3376
 8043TIP3    H245621   5.936   3.209   6.175  0.1212 -0.3931  0.1838
 8044TIP3   OH245622   5.627   3.623   0.476 -0.4581 -0.1893 -0.4328
 8044TIP3    H145623   5.545   3.673   0.481 -1.3664 -1.6667 -0.2051
 8044TIP3    H245624   5.667   3.635   0.563  0.6236  2.1630 -1.1478
 8045TIP3   OH245625   2.111   4.828  11.204 -0.6871 -0.4664 -0.4144
 8045TIP3    H145626   2.169   4.755  11.181 -0.3118 -0.6077  0.8889
 8045TIP3    H245627   2.170   4.903  11.212 -0.3496 -0.9124  2.4321
 8046TIP3   OH245628   2.525   0.322   4.032 -0.3462 -0.3918 -0.3695
 8046TIP3    H145629   2.582   0.298   4.105  0.6308  1.0851 -0.5937
 8046TIP3    H245630   2.523   0.244   3.977 -2.4555 -2.1606  1.9723
 8047TIP3   OH245631   3.631   2.685  12.857  0.0186 -0.0531 -0.1315
 8047TIP3    H145632   3.654   2.767  12.902  0.0795  0.0869 -0.4156
 8047TIP3    H245633   3.536   2.683  12.858 -0.0590  0.9710 -1.7932
 8048TIP3   OH245634   6.400   1.870   6.313 -0.5225 -0.2875 -0.0246
 8048TIP3    H145635   6.479   1.917   6.286 -0.6745 -0.3143 -0.5162
 8048TIP3    H245636   6.328   1.914   6.267 -0.9348  0.4342  1.2496
 8049TIP3   OH245637   1.520   6.840  15.891 -0.6535 -0.1036 -0.2772
 8049TIP3    H145638   1.480   6.803  15.969 -2.1873  0.0173 -0.9771
 8049TIP3    H245639   1.456   6.903  15.858 -0.0026 -0.0824 -1.5829
 8050TIP3   OH245640   4.654   2.907   1.939 -0.0783 -0.6156 -0.1382
 8050TIP3    H145641   4.625   2.911   1.848 -0.4390  0.1389  0.0026
 8050TIP3    H245642   4.701   2.989   1.953  0.4693 -0.9769  0.1965
 8051TIP3   OH245643   3.317   4.870   2.831 -0.5866  0.1235 -0.3080
 8051TIP3    H145644   3.308   4.963   2.852  0.4103  0.2745 -0.4621
 8051TIP3    H245645   3.249   4.853   2.766 -1.1214  0.6152  0.1137
 8052TIP3   OH245646   6.628   0.097  15.951 -0.2487 -0.0235  0.1507
 8052TIP3    H145647   6.539   0.105  15.917 -0.8223 -1.6550  1.1446
 8052TIP3    H245648   6.682   0.146  15.889 -1.9495  2.0591  0.1953
 8053TIP3   OH245649   2.446   3.342  10.908  0.3574 -0.2012  0.0241
 8053TIP3    H145650   2.400   3.402  10.967  1.2942 -1.2934  1.9588
 8053TIP3    H245651   2.532   3.381  10.895  0.7954 -0.8519  0.8878
 8054TIP3   OH245652   0.954   0.974   4.612  0.2634  0.1935  0.1676
 8054TIP3    H145653   0.913   0.890   4.635 -0.8173  0.6332 -0.0746
 8054TIP3    H245654   1.044   0.952   4.590 -0.2385 -1.0472 -0.7452
 8055TIP3   OH245655   0.519   5.466  15.775 -0.1897 -0.1884 -0.7108
 8055TIP3    H145656   0.590   5.458  15.711  1.1089  1.0582  0.4850
 8055TIP3    H245657   0.548   5.411  15.848  0.8776  2.2528  0.8395
 8056TIP3   OH245658   4.955   2.353   5.070 -0.1714 -0.6216 -0.2437
 8056TIP3    H145659   5.040   2.311   5.076  0.5012  0.8369  0.8483
 8056TIP3    H245660   4.892   2.282   5.086  0.9120 -1.2671  1.3224
 8057TIP3   OH245661   6.168   2.995  13.934 -0.3933  0.1863 -0.0955
 8057TIP3    H145662   6.204   3.035  13.855 -0.8593  0.3441 -0.2369
 8057TIP3    H245663   6.133   3.069  13.984 -1.7693 -0.0644 -0.6232
 8058TIP3   OH245664   1.736   4.820  13.586  0.3960  0.1574 -0.6902
 8058TIP3    H145665   1.811   4.833  13.643  1.3347 -0.1204 -1.8334
 8058TIP3    H245666   1.729   4.901  13.536 -0.5069  0.4523 -0.1276
 8059TIP3   OH245667   0.308   5.898  16.862  0.3025  0.4762 -0.2329
 8059TIP3    H145668   0.302   5.830  16.795  0.3491  0.6720 -0.4375
 8059TIP3    H245669   0.358   5.968  16.821  2.2542 -0.2789  0.7250
 8060TIP3   OH245670   5.278   2.911   3.201  0.3119 -0.5690 -0.2729
 8060TIP3    H145671   5.360   2.958   3.183 -0.0519 -0.3066 -1.3090
 8060TIP3    H245672   5.265   2.857   3.123 -1.9303  1.4474 -1.4019
 8061TIP3   OH245673   5.906   2.175  11.623  0.3991  0.3213  0.0105
 8061TIP3    H145674   5.918   2.088  11.660 -1.0815 -0.6515 -1.6736
 8061TIP3    H245675   5.983   2.190  11.569  1.3254  0.6779  1.3863
 8062TIP3   OH245676   4.419   2.666   1.679  0.0887 -0.4373  0.2203
 8062TIP3    H145677   4.372   2.710   1.608 -0.0736 -0.2640  0.4359
 8062TIP3    H245678   4.511   2.680   1.659  0.0449  1.1118  0.9803
 8063TIP3   OH245679   2.348   2.018   5.680 -0.0899 -0.3327 -0.4668
 8063TIP3    H145680   2.292   1.990   5.607  0.1205 -1.7326 -0.1038
 8063TIP3    H245681   2.337   1.950   5.746  2.0468 -0.6601 -0.3884
 8064TIP3   OH245682   1.656   5.000   2.317 -0.6037 -0.0493 -0.3090
 8064TIP3    H145683   1.590   5.069   2.322 -0.9773 -0.4799  1.2582
 8064TIP3    H245684   1.617   4.934   2.260  0.1658  1.3871 -2.6656
 8065TIP3   OH245685   2.651   2.889  13.632 -0.2902  0.2273  0.2828
 8065TIP3    H145686   2.598   2.952  13.681  1.4590  1.4795  0.6413
 8065TIP3    H245687   2.741   2.909  13.656  0.6019  0.2154 -2.6407
 8066TIP3   OH245688   3.771   3.321   5.980 -0.0985 -0.1347  0.3904
 8066TIP3    H145689   3.738   3.368   6.057  1.2537  1.2208  0.1727
 8066TIP3    H245690   3.695   3.314   5.922 -1.1755 -1.2730  1.8462
 8067TIP3   OH245691   6.551   0.323  17.090  0.1937  0.6813  0.2279
 8067TIP3    H145692   6.606   0.255  17.130 -0.1409  0.4175  0.2417
 8067TIP3    H245693   6.470   0.321  17.141 -0.0365  0.6994 -0.1354
 8068TIP3   OH245694   1.539   0.260   6.115 -0.7483  0.4934  0.7087
 8068TIP3    H145695   1.526   0.218   6.029 -1.8621 -1.3645  1.7142
 8068TIP3    H245696   1.633   0.252   6.131 -0.9268 -1.8529  0.9144
 8069TIP3   OH245697   4.894   6.183   2.866  0.4655  0.0165 -0.4418
 8069TIP3    H145698   4.924   6.151   2.781 -1.1893 -2.1695 -0.2982
 8069TIP3    H245699   4.852   6.107   2.906  2.6155  0.4162  3.0655
 8070TIP3   OH245700   3.270   2.060  16.622 -0.3635  0.0617 -0.0212
 8070TIP3    H145701   3.269   2.156  16.620  1.9131  0.1175 -0.7600
 8070TIP3    H245702   3.270   2.034  16.530  0.4538 -0.6091  0.1637
 8071TIP3   OH245703   0.057   4.068   1.668  0.0527 -0.7514 -0.1984
 8071TIP3    H145704   0.114   4.133   1.629  0.6850 -1.2571 -0.1389
 8071TIP3    H245705   0.116   4.013   1.721 -0.5099 -1.1822 -0.0073
 8072TIP3   OH245706   0.054   3.154   4.853 -0.6077 -0.8473 -0.6086
 8072TIP3    H145707  -0.008   3.140   4.781  0.0797 -0.9129 -1.1943
 8072TIP3    H245708   0.138   3.169   4.810 -0.3248 -0.1585  0.1664
 8073TIP3   OH245709   0.063   2.787   4.497  0.2983 -0.3906  0.0307
 8073TIP3    H145710   0.012   2.816   4.422  0.1899 -0.4659  0.0749
 8073TIP3    H245711   0.153   2.814   4.477 -0.1191  1.9919  1.0814
 8074TIP3   OH245712   1.186   2.296   3.801  0.5215  0.0260  0.0047
 8074TIP3    H145713   1.134   2.251   3.867  2.3093 -2.0350  0.1218
 8074TIP3    H245714   1.125   2.316   3.730 -1.3328  1.8396  1.9746
 8075TIP3   OH245715   6.371   5.388  16.274 -0.1312 -0.2499 -0.0192
 8075TIP3    H145716   6.333   5.449  16.337 -0.5502  0.0661 -0.5580
 8075TIP3    H245717   6.359   5.432  16.189  1.5167 -0.1054 -0.2121
 8076TIP3   OH245718   5.531   6.663  14.114 -0.5206  0.0061 -0.3554
 8076TIP3    H145719   5.615   6.633  14.078 -1.1433  0.7229 -2.5965
 8076TIP3    H245720   5.537   6.759  14.113 -0.9367  0.0514  0.5913
 8077TIP3   OH245721   1.250   3.238   1.746  0.0950 -0.4261 -0.4515
 8077TIP3    H145722   1.231   3.252   1.839 -1.5093  0.6152 -0.9065
 8077TIP3    H245723   1.287   3.149   1.742  1.5538  0.0304  1.3315
 8078TIP3   OH245724   2.911   3.296  11.735  0.1168  0.0590  0.0232
 8078TIP3    H145725   2.850   3.272  11.804 -0.8399  2.4020  0.0746
 8078TIP3    H245726   2.998   3.282  11.774 -0.3921 -0.4235  1.0241
 8079TIP3   OH245727   6.584   2.886  16.095 -0.7794 -0.7463 -0.1195
 8079TIP3    H145728   6.617   2.953  16.155 -0.5887 -0.7592 -0.2100
 8079TIP3    H245729   6.577   2.931  16.010  1.0676 -1.2819 -0.6138
 8080TIP3   OH245730   4.283   5.127   4.349 -0.1629 -0.4378 -0.0056
 8080TIP3    H145731   4.329   5.090   4.274 -2.1506 -0.7609 -1.1226
 8080TIP3    H245732   4.254   5.213   4.319 -0.5481 -0.3622  0.5673
 8081TIP3   OH245733   2.302   1.973  11.577  0.0229 -0.0255 -0.4154
 8081TIP3    H145734   2.285   1.936  11.490 -0.6379 -1.8688  0.4433
 8081TIP3    H245735   2.335   1.900  11.628  3.7043  1.7402  0.0772
 8082TIP3   OH245736   6.606   1.467  16.500  0.2926 -0.3975 -0.3125
 8082TIP3    H145737   6.602   1.491  16.408 -0.0938 -0.2359 -0.2544
 8082TIP3    H245738   6.649   1.540  16.543  2.6587 -1.4761 -0.7039
 8083TIP3   OH245739   0.984   5.140   3.181  0.0995 -0.0377  0.0745
 8083TIP3    H145740   0.941   5.055   3.189 -0.5551  0.2719 -0.0075
 8083TIP3    H245741   0.911   5.203   3.184  0.5377  0.4915 -0.2654
 8084TIP3   OH245742   3.961   0.754   6.371  0.2596  0.2801  0.4071
 8084TIP3    H145743   3.986   0.818   6.437  0.0404  0.6353  0.1466
 8084TIP3    H245744   3.867   0.741   6.383  0.4762 -0.7194  1.0910
 8085TIP3   OH245745   3.092   0.861   5.275  0.3161  1.0337 -0.2241
 8085TIP3    H145746   3.036   0.838   5.349  2.6919 -0.6152  1.1894
 8085TIP3    H245747   3.038   0.843   5.198 -1.1988 -0.2284  1.0591
 8086TIP3   OH245748   2.096   5.974   0.725  0.2576  0.4073 -0.5435
 8086TIP3    H145749   2.078   5.969   0.819  2.5389 -1.4949 -0.1118
 8086TIP3    H245750   2.156   6.047   0.716  0.3383  0.3500 -0.4681
 8087TIP3   OH245751   6.824   4.756  14.850 -0.3246 -0.3056  0.1415
 8087TIP3    H145752   6.829   4.850  14.832  0.6125 -0.5227 -0.7931
 8087TIP3    H245753   6.849   4.748  14.943 -2.4650  0.5443  0.8526
 8088TIP3   OH245754   0.361   6.839  15.687 -0.0853 -0.6993  1.0694
 8088TIP3    H145755   0.315   6.909  15.735 -1.0410 -1.1694  0.8665
 8088TIP3    H245756   0.453   6.856  15.703 -0.2254  1.2396  0.1853
 8089TIP3   OH245757   2.957   5.446   5.751  0.9298 -0.4030  0.0583
 8089TIP3    H145758   2.891   5.421   5.816  1.1397  0.3247  0.5587
 8089TIP3    H245759   2.981   5.536   5.774  0.2252  0.2618 -1.6876
 8090TIP3   OH245760   5.486   1.070  10.250  0.0411 -0.0373 -0.1301
 8090TIP3    H145761   5.452   0.986  10.280 -1.2040  0.5475  0.1635
 8090TIP3    H245762   5.427   1.097  10.180  0.5785  0.4772 -0.3978
 8091TIP3   OH245763   3.969   4.432  14.767  0.2313 -0.0219  0.0062
 8091TIP3    H145764   4.010   4.470  14.689  0.3622  1.3467  0.7200
 8091TIP3    H245765   4.011   4.475  14.840 -0.1893 -0.9899  0.8473
 8092TIP3   OH245766   5.239   0.237   5.378  0.1174 -0.2445 -0.2225
 8092TIP3    H145767   5.311   0.274   5.428  0.1826  0.7358 -1.0086
 8092TIP3    H245768   5.258   0.262   5.287 -0.6585 -0.8786 -0.5653
 8093TIP3   OH245769   3.350   4.811   1.417  0.3756  0.0567 -0.5631
 8093TIP3    H145770   3.311   4.884   1.465  0.9536 -0.3441  0.5659
 8093TIP3    H245771   3.420   4.850   1.365  1.2198  0.2310  0.6573
 8094TIP3   OH245772   3.805   2.127  11.165 -0.5828  0.1676 -0.1606
 8094TIP3    H145773   3.760   2.043  11.151 -0.9653  0.3932 -0.2995
 8094TIP3    H245774   3.811   2.135  11.261  1.4096 -1.0439 -0.1396
 8095TIP3   OH245775   6.149   0.295  15.892 -0.0562 -0.0804 -0.4054
 8095TIP3    H145776   6.076   0.271  15.950 -0.8759 -1.1639 -1.8073
 8095TIP3    H245777   6.138   0.389  15.877  0.3703  0.3067  1.3909
 8096TIP3   OH245778   5.744   1.233   2.910 -0.1938  0.4477  0.0138
 8096TIP3    H145779   5.807   1.295   2.873 -2.2761  3.2551  0.7545
 8096TIP3    H245780   5.791   1.189   2.980  1.6127  0.6046 -1.0529
 8097TIP3   OH245781   6.788   0.569   4.118  0.4826  0.7573 -0.6887
 8097TIP3    H145782   6.852   0.608   4.179  0.1349  1.7497 -0.9333
 8097TIP3    H245783   6.708   0.564   4.169  0.3643  0.9601 -0.8535
 8098TIP3   OH245784   6.700   4.755  15.173  0.0553  0.2385  0.1885
 8098TIP3    H145785   6.669   4.829  15.121  0.1006 -0.4372 -0.8283
 8098TIP3    H245786   6.635   4.686  15.158  0.7397 -0.3812 -0.0063
 8099TIP3   OH245787   1.853   1.247  16.187  0.4038  0.0522 -0.0090
 8099TIP3    H145788   1.782   1.194  16.150 -0.0704  1.2262 -0.8557
 8099TIP3    H245789   1.912   1.183  16.228 -2.4739 -0.8258  3.1583
 8100TIP3   OH245790   1.055   3.120   6.112 -0.1018  0.4900 -0.0460
 8100TIP3    H145791   1.080   3.044   6.164 -1.1865 -0.8117 -1.3428
 8100TIP3    H245792   0.966   3.101   6.082 -0.1312  1.9376 -1.0058
 8101TIP3   OH245793   4.152   1.577   3.571  0.0895  0.1068 -0.0306
 8101TIP3    H145794   4.072   1.569   3.622 -0.5857 -1.1885 -1.2176
 8101TIP3    H245795   4.194   1.656   3.604 -1.1808  0.2685  1.2904
 8102TIP3   OH245796   1.948   6.197  14.015 -0.4250 -0.1116  0.6950
 8102TIP3    H145797   1.895   6.208  13.936 -0.4818 -0.4146  0.6915
 8102TIP3    H245798   1.889   6.159  14.079 -0.2235 -0.4221  0.7001
 8103TIP3   OH245799   6.787   0.120   5.143 -0.0439 -0.0276 -0.1156
 8103TIP3    H145800   6.694   0.096   5.143  0.3600 -1.8637  1.6111
 8103TIP3    H245801   6.797   0.177   5.219  0.4240 -0.7079  0.3395
 8104TIP3   OH245802   6.555   4.507  11.697 -0.3377 -0.0981 -0.0474
 8104TIP3    H145803   6.485   4.509  11.762 -0.0913  0.5361  0.2008
 8104TIP3    H245804   6.635   4.496  11.748 -0.3633 -2.7221 -0.4231
 8105TIP3   OH245805   6.111   5.326   2.188  0.3011  0.2225 -0.6194
 8105TIP3    H145806   6.194   5.358   2.154  1.4270 -3.1571 -1.3668
 8105TIP3    H245807   6.047   5.348   2.120  0.8336  1.4197 -0.7594
 8106TIP3   OH245808   1.998   0.253  12.295 -0.1238 -0.0369  0.6580
 8106TIP3    H145809   2.063   0.183  12.294  0.3272  0.3666  0.9797
 8106TIP3    H245810   1.962   0.251  12.384 -0.1229  0.1240  0.6620
 8107TIP3   OH245811   2.531   2.943  16.032 -0.3106 -0.7706  0.1273
 8107TIP3    H145812   2.512   2.923  15.940  0.4013  1.6067 -0.6042
 8107TIP3    H245813   2.627   2.944  16.036 -0.3406 -0.6418  0.8635
 8108TIP3   OH245814   2.831   4.440  15.027  0.4946 -0.5280  0.1213
 8108TIP3    H145815   2.863   4.494  15.099  0.6342 -0.9879  0.4099
 8108TIP3    H245816   2.738   4.460  15.020  1.0224  1.7363 -1.5171
 8109TIP3   OH245817   4.959   5.797   4.416  0.8677 -0.3965  0.4397
 8109TIP3    H145818   4.883   5.781   4.472  1.2535  0.2908  1.1779
 8109TIP3    H245819   4.921   5.816   4.330  0.2246 -0.5408  0.6843
 8110TIP3   OH245820   3.496   1.163  14.657 -0.3938  0.0997  0.0734
 8110TIP3    H145821   3.453   1.113  14.588  1.1628 -0.4251 -0.5617
 8110TIP3    H245822   3.509   1.100  14.728  1.5743 -0.5028 -0.7297
 8111TIP3   OH245823   0.514   1.029   5.772 -0.1040 -0.1480 -0.0234
 8111TIP3    H145824   0.576   1.101   5.784 -0.1652  0.0900 -1.0185
 8111TIP3    H245825   0.429   1.071   5.762  0.1633 -0.0981 -3.1643
 8112TIP3   OH245826   3.258   5.490  12.221 -0.2216 -0.6037 -0.1391
 8112TIP3    H145827   3.226   5.566  12.270  0.6125 -1.3540  1.6449
 8112TIP3    H245828   3.315   5.528  12.154  0.3727  0.3730  0.8655
 8113TIP3   OH245829   2.273   5.534   6.105 -0.2281 -0.5790 -0.0205
 8113TIP3    H145830   2.326   5.550   6.027 -0.7767  0.0434 -0.2691
 8113TIP3    H245831   2.310   5.593   6.171 -0.0495 -0.7813  0.0599
 8114TIP3   OH245832   6.364   2.204   6.046 -0.3781 -0.3063  0.2407
 8114TIP3    H145833   6.333   2.161   6.126 -2.8624  0.9991  0.0527
 8114TIP3    H245834   6.285   2.236   6.004  1.1053  1.3501 -1.4262
 8115TIP3   OH245835   6.405   6.728  12.246  0.0260 -0.1578 -0.3624
 8115TIP3    H145836   6.448   6.649  12.278  3.7151  0.1722 -3.7622
 8115TIP3    H245837   6.326   6.697  12.202  0.4600 -1.7188 -0.0818
 8116TIP3   OH245838   4.601   1.607   4.683 -0.5360  0.2013  0.3281
 8116TIP3    H145839   4.661   1.645   4.618 -0.4279  3.1746  1.9933
 8116TIP3    H245840   4.514   1.623   4.647 -0.4430  0.4774  0.2203
 8117TIP3   OH245841   1.633   1.177  15.290  0.2092  0.0877 -0.2765
 8117TIP3    H145842   1.701   1.172  15.358  0.8177  1.2465 -0.7544
 8117TIP3    H245843   1.674   1.138  15.213  0.2472  0.5218 -0.4836
 8118TIP3   OH245844   1.711   0.788  16.668  0.6668  0.6524 -0.1796
 8118TIP3    H145845   1.617   0.798  16.682  0.7854 -1.0734  2.6456
 8118TIP3    H245846   1.719   0.701  16.627  1.0665  0.2098  0.8104
 8119TIP3   OH245847   5.720   5.023  13.802 -0.2372  0.0861 -0.0856
 8119TIP3    H145848   5.739   5.108  13.840 -2.5514  1.0889 -0.9988
 8119TIP3    H245849   5.776   4.962  13.850  1.5434  2.0979  0.5230
 8120TIP3   OH245850   0.231   1.976   4.521  0.2701 -0.1382 -0.0516
 8120TIP3    H145851   0.210   1.999   4.612  0.0182 -1.0309  0.1277
 8120TIP3    H245852   0.259   2.058   4.481  4.0799 -0.2762  1.8324
 8121TIP3   OH245853   6.440   0.307  11.291 -0.0265  0.6503  0.4959
 8121TIP3    H145854   6.398   0.387  11.258  0.2143  0.5505 -0.0808
 8121TIP3    H245855   6.382   0.277  11.361 -0.6193  0.8197  0.0946
 8122TIP3   OH245856   1.492   3.510  11.791  0.8151  0.3855  0.0554
 8122TIP3    H145857   1.455   3.594  11.764  0.7212  0.1922 -0.4179
 8122TIP3    H245858   1.573   3.533  11.836  0.7955  0.7297 -0.0836
 8123TIP3   OH245859   6.208   1.008   4.677 -0.2453  0.0046 -0.5081
 8123TIP3    H145860   6.252   0.990   4.760 -0.6190  0.9016 -0.1046
 8123TIP3    H245861   6.262   1.074   4.634 -0.2508 -0.1871 -0.8161
 8124TIP3   OH245862   2.658   5.603  12.986  0.4622  0.4641  0.2172
 8124TIP3    H145863   2.623   5.613  12.897  0.4284 -0.3994  0.1323
 8124TIP3    H245864   2.690   5.691  13.008  0.7812  0.6099 -0.7747
 8125TIP3   OH245865   2.531   5.487  14.277  0.2634 -0.0680  0.1992
 8125TIP3    H145866   2.465   5.519  14.338  0.8297 -1.6757  1.7498
 8125TIP3    H245867   2.486   5.483  14.193 -1.3794 -0.3187  1.0416
 8126TIP3   OH245868   5.408   4.165  12.326  0.4766 -0.2416  0.2735
 8126TIP3    H145869   5.401   4.109  12.249 -0.8571 -0.1874  0.3310
 8126TIP3    H245870   5.330   4.144  12.379  0.3140  1.1405  0.6328
 8127TIP3   OH245871   3.343   1.283  11.866 -0.4595 -0.0181 -0.0230
 8127TIP3    H145872   3.325   1.337  11.942  1.1605  1.1418 -0.4021
 8127TIP3    H245873   3.341   1.344  11.792 -2.0700 -1.1281 -0.9628
 8128TIP3   OH245874   5.704   3.331  12.158 -0.1552 -0.1685  0.5160
 8128TIP3    H145875   5.770   3.342  12.090 -0.5020 -0.1139  0.1869
 8128TIP3    H245876   5.754   3.326  12.240  0.5960 -3.8582  0.0109
 8129TIP3   OH245877   5.977   0.846   1.157 -0.3718 -0.4423 -0.0491
 8129TIP3    H145878   6.020   0.898   1.089  0.1293 -0.2311  0.4247
 8129TIP3    H245879   6.047   0.821   1.217 -0.7194 -1.0933  0.1002
 8130TIP3   OH245880   6.092   2.368   5.416 -0.2561 -0.4778  0.4795
 8130TIP3    H145881   6.146   2.363   5.338 -1.3119 -0.4814 -0.2696
 8130TIP3    H245882   6.148   2.409   5.482  1.1759 -1.8991  0.2057
 8131TIP3   OH245883   5.266   2.614   6.862 -0.6744  0.2294 -0.0306
 8131TIP3    H145884   5.187   2.594   6.813 -0.3365  1.9735 -1.4144
 8131TIP3    H245885   5.326   2.543   6.842 -1.2949 -0.1972 -0.3880
 8132TIP3   OH245886   2.375   1.439   4.205  0.0190  0.5453  0.4079
 8132TIP3    H145887   2.366   1.526   4.243 -0.9502  0.5379  0.2421
 8132TIP3    H245888   2.358   1.453   4.111 -0.9669  0.0700  0.5016
 8133TIP3   OH245889   4.034   0.134  13.279  0.2700  0.4125 -0.3524
 8133TIP3    H145890   4.082   0.162  13.357  0.4921 -1.3540  0.1905
 8133TIP3    H245891   4.101   0.094  13.223 -0.2625 -0.5124 -0.3511
 8134TIP3   OH245892   1.765   0.170   3.931  0.2650 -0.5365  0.5881
 8134TIP3    H145893   1.671   0.163   3.951  0.6782 -2.8771  2.0818
 8134TIP3    H245894   1.784   0.093   3.878  1.0489  0.8759 -1.2799
 8135TIP3   OH245895   5.323   0.536   6.360 -0.0907  0.7512 -0.7334
 8135TIP3    H145896   5.253   0.506   6.303 -0.3571  1.6844 -0.9206
 8135TIP3    H245897   5.279   0.586   6.429  0.2506 -0.1321  0.1591
 8136TIP3   OH245898   6.766   5.312  14.263 -0.3575 -0.0661  0.5764
 8136TIP3    H145899   6.828   5.332  14.192 -0.2850 -0.4532  0.5324
 8136TIP3    H245900   6.737   5.223  14.246 -0.2001 -0.2280  1.1367
 8137TIP3   OH245901   3.065   2.654  12.811 -0.0552 -0.1269 -0.1722
 8137TIP3    H145902   3.088   2.642  12.903  0.3800 -0.9065 -0.3692
 8137TIP3    H245903   3.095   2.573  12.768  0.2614  0.4624 -1.0941
 8138TIP3   OH245904   5.822   6.590  14.118  0.3050  0.2150  0.0589
 8138TIP3    H145905   5.914   6.601  14.094  0.8264 -2.4033  0.5753
 8138TIP3    H245906   5.811   6.644  14.196  1.0002  1.6247 -0.7698
 8139TIP3   OH245907   4.056   2.281   4.455 -1.1300  0.4250  0.3333
 8139TIP3    H145908   3.968   2.318   4.465 -1.6968 -0.4460 -1.0859
 8139TIP3    H245909   4.042   2.186   4.455 -0.0087  0.2302  1.3824
 8140TIP3   OH245910   3.580   6.274  15.058 -0.0256 -0.1731  0.0282
 8140TIP3    H145911   3.550   6.361  15.084  2.3865  0.5656  0.6562
 8140TIP3    H245912   3.609   6.285  14.967 -0.0057 -0.3812  0.0094
 8141TIP3   OH245913   6.379   4.037   2.526  0.6551 -0.1219  0.1964
 8141TIP3    H145914   6.456   4.014   2.473 -0.0941  1.6457 -1.8243
 8141TIP3    H245915   6.376   4.132   2.523 -1.1450 -0.1306  0.9356
 8142TIP3   OH245916   0.153   1.468   5.884 -0.8263  0.0449  0.1730
 8142TIP3    H145917   0.059   1.451   5.895 -1.0409 -0.1027 -1.5236
 8142TIP3    H245918   0.189   1.384   5.855 -0.7042  0.7217 -1.8261
 8143TIP3   OH245919   6.481   4.259   1.886 -0.3821 -0.4412 -0.4073
 8143TIP3    H145920   6.547   4.208   1.838  1.0333 -0.3820  1.3725
 8143TIP3    H245921   6.506   4.350   1.871 -2.5085 -0.1666 -3.0219
 8144TIP3   OH245922   1.815   6.288   1.120  0.8059 -0.2397  0.0984
 8144TIP3    H145923   1.832   6.251   1.206 -0.7785 -0.2538  0.4255
 8144TIP3    H245924   1.799   6.381   1.136 -0.4370 -0.4098 -0.0289
 8145TIP3   OH245925   3.435   0.037   0.988  0.5897 -0.2889 -0.1880
 8145TIP3    H145926   3.486   0.114   1.015 -0.6171  0.0901  1.1668
 8145TIP3    H245927   3.344   0.066   0.994  0.1494 -1.4840 -0.8080
 8146TIP3   OH245928   0.467   6.295   0.500  0.5610 -0.1848 -0.4409
 8146TIP3    H145929   0.549   6.247   0.513  1.8075  2.4634  2.7838
 8146TIP3    H245930   0.494   6.381   0.467 -1.0328  0.4166 -0.2863
 8147TIP3   OH245931   5.627   3.553   1.556  0.2883  0.1513 -0.1180
 8147TIP3    H145932   5.693   3.582   1.619  0.4096 -0.3842  0.0054
 8147TIP3    H245933   5.617   3.628   1.496 -0.1567  0.8425  0.7894
 8148TIP3   OH245934   2.636   4.214   1.175  0.6991  0.0007 -0.7338
 8148TIP3    H145935   2.661   4.237   1.265 -0.9976 -0.1917 -0.1702
 8148TIP3    H245936   2.701   4.150   1.148  0.8134 -0.5205  0.6617
 8149TIP3   OH245937   5.260   3.175  16.501  0.6228  0.1615 -0.4346
 8149TIP3    H145938   5.167   3.198  16.514  0.1017 -0.7115 -2.3481
 8149TIP3    H245939   5.303   3.260  16.490  0.0846  0.5869  0.5845
 8150TIP3   OH245940   3.734   0.893  10.653  0.2139  0.1880  0.4305
 8150TIP3    H145941   3.718   0.986  10.635 -0.2994  0.2852  1.3506
 8150TIP3    H245942   3.707   0.848  10.573  0.9611  0.8633 -0.2269
 8151TIP3   OH245943   3.793   6.051  12.759 -0.2687 -0.4619 -0.0608
 8151TIP3    H145944   3.822   6.044  12.668 -0.9255 -0.1411 -0.2984
 8151TIP3    H245945   3.861   6.104  12.801 -0.3971  0.1258 -0.5687
 8152TIP3   OH245946   6.250   5.620  11.251 -0.2853  0.6237 -0.0905
 8152TIP3    H145947   6.325   5.630  11.309  0.3519 -0.4782 -0.6844
 8152TIP3    H245948   6.274   5.547  11.194 -1.4945  0.7525 -0.7920
 8153TIP3   OH245949   4.295   4.194  11.376 -0.1108  0.2705  0.2369
 8153TIP3    H145950   4.374   4.230  11.416 -0.3727  1.0981  0.0252
 8153TIP3    H245951   4.239   4.171  11.450  0.5872 -0.9737  0.4143
 8154TIP3   OH245952   4.771   6.330  12.394 -0.0187  0.1776  0.5685
 8154TIP3    H145953   4.813   6.286  12.468 -0.0572 -0.5511  0.1610
 8154TIP3    H245954   4.774   6.266  12.323  0.7691  1.1610 -0.3217
 8155TIP3   OH245955   0.822   6.044   3.781 -0.6941  0.3121 -0.0532
 8155TIP3    H145956   0.872   6.105   3.834  0.5391 -0.9119  0.2515
 8155TIP3    H245957   0.856   6.055   3.692 -0.3720 -0.0036  0.0262
 8156TIP3   OH245958   1.940   2.333   2.493  0.1109 -0.5116  0.5032
 8156TIP3    H145959   1.936   2.404   2.558  1.8375 -0.7521  0.9186
 8156TIP3    H245960   1.941   2.378   2.409 -1.1400 -0.1552  0.6595
 8157TIP3   OH245961   2.521   6.301  14.949  0.3896  0.2747  0.1598
 8157TIP3    H145962   2.605   6.339  14.926  0.9945 -0.8995  0.3613
 8157TIP3    H245963   2.499   6.341  15.034  1.9281 -1.1593  1.2960
 8158TIP3   OH245964   3.345   2.611  15.698 -0.3985  0.1388  0.1497
 8158TIP3    H145965   3.356   2.692  15.747  7.9081  0.5995 -1.1040
 8158TIP3    H245966   3.317   2.639  15.611  2.6567  2.0349 -0.3645
 8159TIP3   OH245967   6.009   4.215   4.110 -0.1122 -0.2312 -0.0437
 8159TIP3    H145968   5.992   4.134   4.158 -2.1123 -0.2200 -0.6193
 8159TIP3    H245969   6.071   4.264   4.165  0.3587 -1.7096  0.7829
 8160TIP3   OH245970   5.712   4.173   3.031  0.4931 -0.1159 -0.1218
 8160TIP3    H145971   5.724   4.086   2.994  0.7720 -0.1064 -0.0519
 8160TIP3    H245972   5.774   4.178   3.103  1.5767  0.6960 -1.0799
 8161TIP3   OH245973   0.701   5.389  16.824 -0.8326 -0.0606  0.0308
 8161TIP3    H145974   0.641   5.322  16.793  1.7455 -1.5018 -2.2370
 8161TIP3    H245975   0.722   5.363  16.914 -1.2465 -1.2690 -0.2032
 8162TIP3   OH245976   4.665   0.502  15.581 -0.2408 -0.0043 -0.0030
 8162TIP3    H145977   4.667   0.588  15.622 -0.7941  0.0663 -0.1154
 8162TIP3    H245978   4.588   0.505  15.523 -1.0884 -1.0343  1.0157
 8163TIP3   OH245979   3.984   1.724   4.573  0.2910  0.5229 -0.2914
 8163TIP3    H145980   4.017   1.720   4.663 -2.5482  2.9257  1.0527
 8163TIP3    H245981   3.901   1.677   4.576 -0.5662  1.8993 -1.2144
 8164TIP3   OH245982   4.129   5.192   4.892 -0.4554 -0.2456  0.3850
 8164TIP3    H145983   4.161   5.280   4.913  0.6886  0.0412 -2.1771
 8164TIP3    H245984   4.077   5.204   4.813  0.8358 -2.0222 -0.7910
 8165TIP3   OH245985   1.821   5.145  13.041 -0.1422 -0.2042 -0.1064
 8165TIP3    H145986   1.868   5.181  13.117  3.1967 -2.3148 -0.9686
 8165TIP3    H245987   1.763   5.078  13.078  1.2068 -0.9868  0.6398
 8166TIP3   OH245988   3.178   5.101  15.831  0.6098  0.2524  0.0955
 8166TIP3    H145989   3.183   5.194  15.855  0.8793 -0.4188  3.0335
 8166TIP3    H245990   3.138   5.059  15.907 -0.0212 -1.9967 -1.3907
 8167TIP3   OH245991   1.525   3.496   5.673  0.0013 -0.3413 -0.3820
 8167TIP3    H145992   1.533   3.401   5.677 -0.3526 -0.3510  0.3867
 8167TIP3    H245993   1.615   3.529   5.674  0.1840 -0.7036 -2.3201
 8168TIP3   OH245994   2.541   5.479   2.801  0.4481 -0.5561 -0.4108
 8168TIP3    H145995   2.478   5.460   2.870  1.1445  1.3456  0.8263
 8168TIP3    H245996   2.619   5.429   2.825  0.9323  0.6595  0.6121
 8169TIP3   OH245997   6.856   2.857  13.107  0.7543  0.3002  0.4383
 8169TIP3    H145998   6.810   2.933  13.144 -0.2419 -0.3485  0.5972
 8169TIP3    H245999   6.865   2.877  13.014  2.0527  1.3552  0.7750
 8170TIP3   OH246000   4.409   4.548   3.402  0.1085 -0.6898 -0.1186
 8170TIP3    H146001   4.500   4.564   3.378  0.7711  0.9222  2.9231
 8170TIP3    H246002   4.398   4.453   3.392  2.7837 -1.2541  1.3234
 8171TIP3   OH246003   0.250   6.233  15.134  0.8899  0.6104  0.2110
 8171TIP3    H146004   0.327   6.177  15.139  0.3000 -0.1342  2.4989
 8171TIP3    H246005   0.196   6.196  15.065  1.0850 -0.9251  0.8520
 8172TIP3   OH246006   5.873   5.189   0.335 -0.4042 -0.3878  0.1303
 8172TIP3    H146007   5.873   5.120   0.401 -1.7332  0.1213  0.7012
 8172TIP3    H246008   5.931   5.257   0.370 -1.3078 -0.0026  0.9446
 8173TIP3   OH246009   3.505   5.663  11.326  0.2747  0.8419 -0.0407
 8173TIP3    H146010   3.457   5.709  11.258 -1.7514 -1.4894 -0.3421
 8173TIP3    H246011   3.520   5.576  11.290  0.3870 -0.0246  1.9552
 8174TIP3   OH246012   2.396   6.403   2.940 -0.0801  0.2769  0.0590
 8174TIP3    H146013   2.380   6.312   2.965  2.2151 -1.2981 -3.4670
 8174TIP3    H246014   2.367   6.409   2.849  0.2136  2.9688  0.0522
 8175TIP3   OH246015   4.758   2.464   1.242 -0.0033 -1.0366 -0.3195
 8175TIP3    H146016   4.783   2.427   1.158  0.4975  1.8588 -1.5417
 8175TIP3    H246017   4.663   2.476   1.236  0.0879 -0.4706 -0.6297
 8176TIP3   OH246018   5.354   5.673  11.148  0.0340  0.1702 -0.2006
 8176TIP3    H146019   5.295   5.639  11.215 -0.2243 -2.2373 -1.5399
 8176TIP3    H246020   5.298   5.689  11.072  0.8092 -0.6186 -0.9685
 8177TIP3   OH246021   6.222   5.683  16.180  0.8368  0.4652 -0.7836
 8177TIP3    H146022   6.277   5.708  16.255 -0.7150  1.2568  0.1485
 8177TIP3    H246023   6.135   5.719  16.201 -0.2150 -1.2943 -1.8718
 8178TIP3   OH246024   3.530   1.595   2.538  0.1414 -0.1257  0.0678
 8178TIP3    H146025   3.609   1.547   2.513  0.5731 -0.2141  1.5108
 8178TIP3    H246026   3.462   1.528   2.545  0.0437 -0.1167 -0.6867
 8179TIP3   OH246027   4.389   3.687   1.143  0.2855 -0.3080  0.4223
 8179TIP3    H146028   4.434   3.640   1.072  0.4439 -0.2457  0.4820
 8179TIP3    H246029   4.449   3.683   1.217  0.7623  0.8884  0.1239
 8180TIP3   OH246030   4.592   5.695  13.459  0.1363  0.3865  0.5419
 8180TIP3    H146031   4.534   5.759  13.418 -0.5254 -1.5712 -1.7840
 8180TIP3    H246032   4.678   5.713  13.421 -0.3360 -0.9625 -1.2684
 8181TIP3   OH246033   0.940   4.593   0.769  0.2147  0.4756  0.1961
 8181TIP3    H146034   0.891   4.514   0.751  1.4129 -0.0486 -0.8786
 8181TIP3    H246035   1.013   4.564   0.824  1.4465  0.5396 -1.3320
 8182TIP3   OH246036   6.622   1.501  11.131  0.2081  0.3121 -0.3819
 8182TIP3    H146037   6.591   1.416  11.101  0.0718  0.5912 -1.0411
 8182TIP3    H246038   6.605   1.560  11.058 -0.2828  1.0388  0.3084
 8183TIP3   OH246039   3.947   2.040  16.557 -0.6986  0.3033 -0.3122
 8183TIP3    H146040   3.951   2.093  16.637 -0.4253  0.6811 -0.5733
 8183TIP3    H246041   3.869   1.985  16.569 -0.5309  0.1925  0.3127
 8184TIP3   OH246042   6.748   6.748  16.728 -0.1759  0.3756 -0.2353
 8184TIP3    H146043   6.676   6.776  16.673  0.3216  2.9418  0.2706
 8184TIP3    H246044   6.805   6.825  16.734  1.0546 -0.5924  1.8017
 8185TIP3   OH246045   6.523   3.278   4.001 -0.0127  0.1369  0.5853
 8185TIP3    H146046   6.498   3.298   3.910  0.1654  1.5414  0.8268
 8185TIP3    H246047   6.477   3.196   4.020 -2.2859  1.2130  0.1120
 8186TIP3   OH246048   6.017   0.879  15.813  0.2368  0.1036  0.6823
 8186TIP3    H146049   5.963   0.804  15.839  0.1061 -0.3628 -0.8309
 8186TIP3    H246050   6.105   0.843  15.802 -0.1031 -0.2267 -1.5030
 8187TIP3   OH246051   5.598   3.976   4.481  0.6014 -0.7962 -0.1562
 8187TIP3    H146052   5.685   4.015   4.481  0.3832 -0.2305  1.4746
 8187TIP3    H246053   5.614   3.883   4.463  1.4801 -0.6073 -0.4187
 8188TIP3   OH246054   5.795   0.351  10.539  0.1147  0.1649  0.4323
 8188TIP3    H146055   5.749   0.433  10.555  0.1847  0.2106  0.4044
 8188TIP3    H246056   5.738   0.283  10.574  1.4944  0.4477  3.5392
 8189TIP3   OH246057   5.134   1.348   4.157  0.2402  0.0427  0.2249
 8189TIP3    H146058   5.063   1.387   4.105 -0.9859 -1.8102  0.4376
 8189TIP3    H246059   5.208   1.408   4.144 -0.5026  0.5386 -2.3002
 8190TIP3   OH246060   6.145   5.701   3.466 -0.2713  0.3235 -0.5991
 8190TIP3    H146061   6.233   5.704   3.429 -0.1911 -1.7876 -0.6846
 8190TIP3    H246062   6.151   5.639   3.538 -1.6439  0.3148 -0.4614
 8191TIP3   OH246063   3.510   2.312  12.205  0.8412  0.3788 -0.2650
 8191TIP3    H146064   3.510   2.397  12.161  1.0613  0.5837  0.1309
 8191TIP3    H246065   3.508   2.248  12.133  2.6060  0.6903 -0.6428
 8192TIP3   OH246066   0.604   3.496  11.865 -0.3857 -0.2637 -0.1869
 8192TIP3    H146067   0.627   3.587  11.848  0.3182 -0.6249 -1.2593
 8192TIP3    H246068   0.547   3.471  11.792 -1.3353 -0.4217  0.5900
 8193TIP3   OH246069   5.070   1.579   0.705 -0.1089 -0.4226 -0.5212
 8193TIP3    H146070   5.165   1.585   0.715 -0.1287  0.7071 -0.9067
 8193TIP3    H246071   5.035   1.625   0.781 -0.2892  2.5972 -2.2775
 8194TIP3   OH246072   1.392   3.695  15.930  0.1652 -0.3785 -0.4538
 8194TIP3    H146073   1.412   3.777  15.885 -1.0252 -0.1092 -0.5278
 8194TIP3    H246074   1.296   3.689  15.926  0.0324 -0.4652  1.8333
 8195TIP3   OH246075   2.970   2.571  14.793  0.3043  0.6447 -0.2501
 8195TIP3    H146076   2.955   2.532  14.879 -1.0284 -1.1273 -1.2196
 8195TIP3    H246077   2.886   2.611  14.770 -0.1704 -1.0868 -1.7423
 8196TIP3   OH246078   6.356   3.402  13.856  0.3923 -0.5085  0.3942
 8196TIP3    H146079   6.449   3.391  13.834  0.1044 -2.1097 -0.1768
 8196TIP3    H246080   6.351   3.383  13.950  0.6398 -0.4502  0.4194
 8197TIP3   OH246081   5.705   5.260  14.657  0.2122 -0.2984 -0.3896
 8197TIP3    H146082   5.714   5.355  14.662  0.0287 -0.3167  0.3529
 8197TIP3    H246083   5.628   5.245  14.602  0.3669 -0.0229 -0.6821
 8198TIP3   OH246084   3.660   1.393  14.685  0.6546  0.0067  0.1245
 8198TIP3    H146085   3.614   1.311  14.666  0.2036  0.3962 -0.5099
 8198TIP3    H246086   3.742   1.387  14.636  0.7931 -0.2241  0.3821
 8199TIP3   OH246087   3.049   3.066   1.748 -0.0952 -0.0438 -0.0021
 8199TIP3    H146088   3.112   3.138   1.744 -0.8036  0.5663 -0.2977
 8199TIP3    H246089   3.072   3.020   1.829  0.5760  0.3151  0.0203
 8200TIP3   OH246090   4.593   4.538   3.883 -0.2756 -0.3228  0.0435
 8200TIP3    H146091   4.625   4.473   3.945 -1.0442 -0.9772 -0.2182
 8200TIP3    H246092   4.582   4.618   3.935  0.1498 -0.5543  0.4973
 8201TIP3   OH246093   2.276   0.572  14.951 -0.5122 -0.5775 -0.5354
 8201TIP3    H146094   2.183   0.586  14.933 -0.4376  1.1145  0.2263
 8201TIP3    H246095   2.278   0.498  15.011 -1.3579 -0.7380 -0.6956
 8202TIP3   OH246096   0.818   4.510   4.681 -0.3337  0.3058 -0.1801
 8202TIP3    H146097   0.791   4.578   4.743  0.1478  0.0924  0.2717
 8202TIP3    H246098   0.752   4.514   4.612 -0.6756  0.7958  0.1592
 8203TIP3   OH246099   1.131   0.180   4.051 -0.0370 -0.4412  0.3112
 8203TIP3    H146100   1.225   0.193   4.038 -0.0251 -0.6004  0.2418
 8203TIP3    H246101   1.098   0.267   4.073 -0.0180 -0.2097 -0.5346
 8204TIP3   OH246102   2.055   0.505  16.827  0.2701  0.7624 -0.4057
 8204TIP3    H146103   2.143   0.521  16.862  0.7378 -0.7727 -0.8358
 8204TIP3    H246104   1.997   0.529  16.899  1.1165 -0.0079  0.5673
 8205TIP3   OH246105   6.455   3.495  12.999  0.3592  0.4039  0.5440
 8205TIP3    H146106   6.439   3.402  13.016 -1.8896  1.0069  2.2408
 8205TIP3    H246107   6.408   3.513  12.918 -1.6809  0.5936  1.7017
 8206TIP3   OH246108   0.176   3.499   3.472 -0.1345 -0.4800 -0.1723
 8206TIP3    H146109   0.121   3.546   3.534  0.1521 -0.2222 -0.1114
 8206TIP3    H246110   0.137   3.412   3.466  0.5099 -0.8846  1.2431
 8207TIP3   OH246111   5.336   1.262  11.927 -0.4847 -0.4654 -0.1077
 8207TIP3    H146112   5.283   1.213  11.991 -0.8509  1.0210  0.7632
 8207TIP3    H246113   5.298   1.238  11.843  0.0628 -2.5314  0.1841
 8208TIP3   OH246114   4.327   6.289  11.034 -0.1489  0.3508  0.1691
 8208TIP3    H146115   4.323   6.349  10.960 -0.2257  2.0985  1.5165
 8208TIP3    H246116   4.413   6.247  11.027  0.0988  0.9693 -0.5432
 8209TIP3   OH246117   6.667   1.587  11.705  0.6972 -0.6959 -0.2151
 8209TIP3    H146118   6.631   1.499  11.718  0.0812 -0.5787 -1.0482
 8209TIP3    H246119   6.761   1.575  11.711  0.6194 -1.4169 -0.3377
 8210TIP3   OH246120   0.627   0.465  11.662  0.4648  0.3388  0.0070
 8210TIP3    H146121   0.687   0.400  11.625  0.5497  0.7323 -0.5483
 8210TIP3    H246122   0.581   0.501  11.587 -2.8932 -2.2624  0.5935
 8211TIP3   OH246123   1.069   1.400  14.982  0.2825 -0.3542 -0.3950
 8211TIP3    H146124   1.002   1.391  14.915  0.6488 -0.2132 -0.7870
 8211TIP3    H246125   1.037   1.469  15.039 -0.8063 -1.5601  0.5221
 8212TIP3   OH246126   0.869   2.115   2.057 -0.0243  0.1168 -0.1875
 8212TIP3    H146127   0.788   2.093   2.104  0.4482 -3.0856 -0.6222
 8212TIP3    H246128   0.938   2.069   2.106  0.7556 -1.5981 -2.6881
 8213TIP3   OH246129   3.453   4.353  11.062  0.3176  0.0208 -0.3373
 8213TIP3    H146130   3.413   4.399  10.988  2.2848  0.9447 -0.8904
 8213TIP3    H246131   3.449   4.416  11.134 -0.9053 -0.6003  0.1707
 8214TIP3   OH246132   2.291   1.474   4.597 -0.3230 -0.1391  0.0996
 8214TIP3    H146133   2.291   1.559   4.552  0.5132 -0.4264 -0.4575
 8214TIP3    H246134   2.294   1.409   4.527 -0.9194 -0.6400  0.5232
 8215TIP3   OH246135   3.525   1.313  14.952 -0.7376  0.0626  0.1182
 8215TIP3    H146136   3.495   1.295  14.863 -1.3061 -0.6105  0.4359
 8215TIP3    H246137   3.606   1.264  14.960 -1.6361 -1.3933  0.5658
 8216TIP3   OH246138   5.036   6.068  13.226 -0.0959 -0.1888  0.8131
 8216TIP3    H146139   5.066   5.993  13.276  2.3190  0.7269  0.8483
 8216TIP3    H246140   5.089   6.067  13.146 -0.8380  0.8450  0.2682
 8217TIP3   OH246141   2.411   3.271  13.711  0.5181  0.9091 -0.1379
 8217TIP3    H146142   2.442   3.335  13.775  2.8132  1.4019 -1.6414
 8217TIP3    H246143   2.453   3.189  13.736 -3.5163 -0.6518  2.6592
 8218TIP3   OH246144   6.713   5.126  12.460  0.1076  0.6189 -0.6390
 8218TIP3    H146145   6.774   5.137  12.533 -0.9264  1.1954  0.1671
 8218TIP3    H246146   6.725   5.204  12.406  0.3446  0.5516 -0.6851
 8219TIP3   OH246147   3.296   3.275  13.065  0.0929 -0.0202 -0.0131
 8219TIP3    H146148   3.203   3.297  13.070 -0.4337 -2.0046 -0.3381
 8219TIP3    H246149   3.313   3.227  13.146  0.6645 -0.2571 -0.2712
 8220TIP3   OH246150   6.615   3.236   1.820  0.4183  0.0050 -0.0665
 8220TIP3    H146151   6.527   3.257   1.852  0.2607 -0.3667 -0.2546
 8220TIP3    H246152   6.609   3.145   1.791  1.2097 -0.4659  1.1546
 8221TIP3   OH246153   3.137   0.252   5.630  0.3359  0.0926 -0.0687
 8221TIP3    H146154   3.147   0.319   5.563  2.2674 -0.2047 -0.1451
 8221TIP3    H246155   3.142   0.300   5.713  1.1206  0.1243 -0.1288
 8222TIP3   OH246156   5.597   6.080  11.706  0.4616  0.2657  0.5370
 8222TIP3    H146157   5.638   6.166  11.715  0.8660  0.0737  0.5383
 8222TIP3    H246158   5.505   6.096  11.726 -0.0221  1.2386 -2.0745
 8223TIP3   OH246159   3.959   4.735  16.157 -0.0371  0.5610  0.0617
 8223TIP3    H146160   3.891   4.763  16.095  0.2721 -1.2008 -1.1518
 8223TIP3    H246161   3.965   4.807  16.220 -1.7367  1.5629 -0.8425
 8224TIP3   OH246162   1.847   6.144   1.374 -0.6726  0.2174  0.5408
 8224TIP3    H146163   1.796   6.132   1.454  0.2890  0.5944  1.2203
 8224TIP3    H246164   1.882   6.057   1.355  1.3460  0.6374  2.0884
 8225TIP3   OH246165   0.756   6.117  12.349  0.2829 -0.3856  0.7998
 8225TIP3    H146166   0.691   6.159  12.406 -0.1707 -1.4956  1.1154
 8225TIP3    H246167   0.718   6.033  12.327  2.3272 -1.8216  2.3775
 8226TIP3   OH246168   0.186   5.672  13.764 -0.0745 -0.6239  0.0495
 8226TIP3    H146169   0.137   5.741  13.721 -1.5544 -2.2834 -1.0707
 8226TIP3    H246170   0.209   5.708  13.850  0.1691  1.6024 -0.8846
 8227TIP3   OH246171   2.262   1.009   3.840  0.0891  0.4428 -0.0903
 8227TIP3    H146172   2.268   1.091   3.889 -0.8564  0.4416  0.0511
 8227TIP3    H246173   2.177   0.973   3.865 -0.6364  0.6684 -2.0532
 8228TIP3   OH246174   5.915   5.483   5.239 -0.0184  0.1408 -0.0658
 8228TIP3    H146175   5.948   5.433   5.313  0.5447  0.3358 -0.1825
 8228TIP3    H246176   5.878   5.562   5.278 -0.9537 -0.3670  0.1241
 8229TIP3   OH246177   5.468   4.907  11.735 -0.1747 -0.2554  0.0197
 8229TIP3    H146178   5.491   4.989  11.690 -0.9947  0.3834  0.7265
 8229TIP3    H246179   5.427   4.936  11.817  0.9906 -1.3773  1.0360
 8230TIP3   OH246180   5.098   1.611  11.049  0.2519 -0.3448 -0.6330
 8230TIP3    H146181   5.052   1.531  11.072 -0.3388 -0.4273 -2.0119
 8230TIP3    H246182   5.151   1.632  11.126 -2.4252  0.0218  1.2439
 8231TIP3   OH246183   6.437   1.806   1.164  0.6451 -0.3254 -0.2057
 8231TIP3    H146184   6.466   1.748   1.093 -0.3819 -1.3623  0.1900
 8231TIP3    H246185   6.359   1.849   1.130 -1.7773 -3.2070  1.3180
 8232TIP3   OH246186   6.602   1.997   6.179 -0.0892  0.4149  0.4010
 8232TIP3    H146187   6.678   2.004   6.237 -0.1553  1.9502  0.3402
 8232TIP3    H246188   6.612   2.070   6.117 -0.7344 -0.3751 -0.6690
 8233TIP3   OH246189   5.821   3.452  11.284 -0.0744  0.1629  0.2522
 8233TIP3    H146190   5.859   3.517  11.344 -1.0941  0.9069  0.1318
 8233TIP3    H246191   5.762   3.401  11.340 -1.2247  1.0233 -0.1202
 8234TIP3   OH246192   2.776   3.391   0.385  0.3091 -0.0883 -0.4015
 8234TIP3    H146193   2.704   3.398   0.322  0.5312  1.1130 -0.5435
 8234TIP3    H246194   2.737   3.412   0.469 -0.0061 -1.7775 -0.0873
 8235TIP3   OH246195   4.749   1.893   4.630 -0.0873 -0.1982 -0.4517
 8235TIP3    H146196   4.731   1.978   4.591 -2.5771 -0.7309 -0.6129
 8235TIP3    H246197   4.709   1.898   4.717  0.6353 -0.8723 -0.0683
 8236TIP3   OH246198   5.553   6.591  12.343  0.1491 -0.0363 -0.1997
 8236TIP3    H146199   5.535   6.537  12.420  0.1652  1.5191  0.9348
 8236TIP3    H246200   5.468   6.601  12.300 -0.3367  1.0142  0.9402
 8237TIP3   OH246201   1.339   0.762   0.955  0.3499 -0.5672  0.0620
 8237TIP3    H146202   1.278   0.690   0.972  1.1757 -0.9310  1.6265
 8237TIP3    H246203   1.311   0.832   1.014 -0.4997  0.4710 -1.5047
 8238TIP3   OH246204   4.540   3.635   1.368  0.3268  0.3576 -0.6900
 8238TIP3    H146205   4.597   3.569   1.406 -0.8134 -0.8861 -1.0438
 8238TIP3    H246206   4.471   3.647   1.433  0.2837  0.8691 -0.8269
 8239TIP3   OH246207   4.786   6.037  13.505  0.2303  0.5540 -0.1573
 8239TIP3    H146208   4.712   6.025  13.446  0.1488  0.3071 -0.0052
 8239TIP3    H246209   4.839   6.105  13.464 -0.3824  1.1498  0.0292
 8240TIP3   OH246210   3.597   0.358  11.755 -0.0750 -0.0301 -0.7527
 8240TIP3    H146211   3.523   0.407  11.719 -1.0943 -1.0283 -0.0665
 8240TIP3    H246212   3.585   0.269  11.723 -0.4959 -0.7333  1.2531
 8241TIP3   OH246213   4.413   6.029  13.566  0.1636  0.2268  0.2207
 8241TIP3    H146214   4.378   6.106  13.612 -0.0946 -0.5985  1.4599
 8241TIP3    H246215   4.459   5.980  13.634 -0.8423 -1.4157 -0.2354
 8242TIP3   OH246216   5.974   2.948  16.458 -0.3686  0.2278 -0.2006
 8242TIP3    H146217   6.015   3.024  16.498 -0.8560 -0.2050  1.1665
 8242TIP3    H246218   6.047   2.890  16.437 -0.1471  0.1816  0.6689
 8243TIP3   OH246219   3.551   1.199  11.184  0.1424 -0.2068  0.3222
 8243TIP3    H146220   3.474   1.151  11.215  0.1249  0.4478  1.3518
 8243TIP3    H246221   3.516   1.281  11.150  0.3578 -0.0101  0.5671
 8244TIP3   OH246222   6.568   0.396   3.874  0.1264 -0.5342 -0.3584
 8244TIP3    H146223   6.613   0.400   3.790  0.1500 -0.4285 -0.3413
 8244TIP3    H246224   6.630   0.354   3.933  0.4357  0.1372 -0.1889
 8245TIP3   OH246225   0.766   5.890  16.177  0.2370 -0.4021 -0.3263
 8245TIP3    H146226   0.677   5.924  16.170  0.9349  1.8182  0.5611
 8245TIP3    H246227   0.798   5.886  16.087  0.5482  2.7725 -0.4801
 8246TIP3   OH246228   4.433   4.060  12.048 -0.4147 -0.0445  0.4087
 8246TIP3    H146229   4.451   4.152  12.029  1.5063  0.4482  3.7550
 8246TIP3    H246230   4.464   4.013  11.971  0.0483  1.9993 -0.7296
 8247TIP3   OH246231   5.902   0.424  13.954 -0.1439 -0.7098 -0.1594
 8247TIP3    H146232   5.896   0.510  13.995 -2.3844 -0.8580 -0.0365
 8247TIP3    H246233   5.987   0.389  13.982  0.0094  0.7021  1.2719
 8248TIP3   OH246234   6.736   3.908  12.466 -0.2267  0.2104 -0.2780
 8248TIP3    H146235   6.684   3.968  12.411 -1.8733 -0.1532  0.7992
 8248TIP3    H246236   6.793   3.966  12.517  0.6853  0.6082 -1.6860
 8249TIP3   OH246237   1.877   2.714   3.480 -0.0308  0.2619 -0.0193
 8249TIP3    H146238   1.823   2.645   3.442 -0.6834 -1.4137  3.5311
 8249TIP3    H246239   1.816   2.786   3.496 -0.6944 -0.5506  1.3613
 8250TIP3   OH246240   0.054   0.950  15.345  0.0845  0.3620  0.1829
 8250TIP3    H146241  -0.003   0.979  15.274  0.9040  1.4215 -0.0701
 8250TIP3    H246242   0.115   0.888  15.303 -0.5032 -0.3376  0.3379
 8251TIP3   OH246243   0.453   1.912  13.668  0.0724 -1.1272 -0.2186
 8251TIP3    H146244   0.362   1.940  13.664  0.5713  0.4685 -1.2952
 8251TIP3    H246245   0.483   1.912  13.577  1.5867 -0.0348  0.2279
 8252TIP3   OH246246   2.815   5.204   6.244 -0.8584  0.3523  0.0976
 8252TIP3    H146247   2.732   5.193   6.198 -0.5142  1.2879 -0.7957
 8252TIP3    H246248   2.801   5.280   6.300 -0.1546  1.4886 -1.2071
 8253TIP3   OH246249   3.149   0.757   3.279 -0.0584  0.6986 -0.3089
 8253TIP3    H146250   3.092   0.834   3.286 -1.7404 -0.3714 -1.4525
 8253TIP3    H246251   3.135   0.709   3.361 -0.2654  0.7936 -0.2874
 8254TIP3   OH246252   3.756   3.128   4.542 -0.2055  0.1334 -0.0791
 8254TIP3    H146253   3.705   3.194   4.496 -2.6511 -0.5420  1.4908
 8254TIP3    H246254   3.815   3.178   4.599  0.4950  0.9241 -1.4578
 8255TIP3   OH246255   6.374   6.438  14.949 -0.0481  0.1171  0.0675
 8255TIP3    H146256   6.310   6.376  14.983 -1.0297  0.7001 -0.6358
 8255TIP3    H246257   6.377   6.508  15.015  1.7081 -1.0520  1.2835
 8256TIP3   OH246258   0.183   3.197  11.172 -0.2786 -0.3620 -0.5013
 8256TIP3    H146259   0.209   3.127  11.112  0.1825 -1.6684  1.1748
 8256TIP3    H246260   0.258   3.209  11.230 -0.9635  0.3929  0.2627
 8257TIP3   OH246261   4.276   2.930   3.537 -0.2970 -0.7951  0.0467
 8257TIP3    H146262   4.350   2.986   3.511 -0.5051 -0.3695  0.3584
 8257TIP3    H246263   4.317   2.852   3.575 -0.0020 -0.9328 -0.5448
 8258TIP3   OH246264   4.536   1.006  11.759 -0.6261 -0.2604 -0.6215
 8258TIP3    H146265   4.555   1.067  11.831 -2.7500 -0.8080  0.4952
 8258TIP3    H246266   4.585   1.041  11.684  0.8117  0.9369  0.8024
 8259TIP3   OH246267   6.844   2.090  12.066  0.3646 -0.1863  0.1100
 8259TIP3    H146268   6.926   2.131  12.039  0.3392 -0.7901 -0.9115
 8259TIP3    H246269   6.788   2.094  11.988 -0.0812 -1.0215  0.3751
 8260TIP3   OH246270   6.038   0.787  16.775 -0.1137  0.3497 -0.5299
 8260TIP3    H146271   6.129   0.805  16.800  0.3348 -1.9296 -0.2268
 8260TIP3    H246272   6.044   0.758  16.684 -0.7318  1.4040 -0.9182
 8261TIP3   OH246273   3.606   1.190   2.589 -1.1434  0.8985  0.2882
 8261TIP3    H146274   3.669   1.259   2.570 -0.8289  0.4951 -0.1577
 8261TIP3    H246275   3.583   1.154   2.503  0.4864 -1.1228  0.6060
 8262TIP3   OH246276   0.070   2.337   5.690 -0.3870 -0.5057  0.6414
 8262TIP3    H146277   0.065   2.333   5.785  2.0657 -3.0306  0.8126
 8262TIP3    H246278   0.063   2.245   5.662 -0.6964  0.1332 -1.5821
 8263TIP3   OH246279   6.354   3.369  15.277 -0.3609  0.0996 -0.5228
 8263TIP3    H146280   6.359   3.339  15.368 -1.8995 -0.0010 -0.4460
 8263TIP3    H246281   6.355   3.464  15.283 -0.9171  0.0972 -0.3610
 8264TIP3   OH246282   2.225   4.228   2.511  0.0576 -0.1882 -0.5875
 8264TIP3    H146283   2.295   4.171   2.478  0.4469  0.5692 -1.0926
 8264TIP3    H246284   2.155   4.219   2.447  0.2634  0.1762 -0.8709
 8265TIP3   OH246285   4.690   2.103  13.124  0.3339  0.1071  0.2606
 8265TIP3    H146286   4.684   2.164  13.051 -1.9055 -2.0224 -1.4675
 8265TIP3    H246287   4.721   2.022  13.085  0.1975 -0.7686  1.8969
 8266TIP3   OH246288   2.108   3.965  16.454 -0.2292  0.4947  0.1036
 8266TIP3    H146289   2.180   3.904  16.439 -0.4792 -0.0228  0.9421
 8266TIP3    H246290   2.143   4.051  16.429  0.4807  0.1598 -0.0621
 8267TIP3   OH246291   0.135   3.030  11.934 -0.3599 -0.2956 -0.1468
 8267TIP3    H146292   0.141   3.094  11.862 -0.2394  1.7064  1.5488
 8267TIP3    H246293   0.042   3.009  11.939 -0.3675 -0.4901 -0.8907
 8268TIP3   OH246294   1.367   3.176   3.465  0.3825  0.0174 -0.0210
 8268TIP3    H146295   1.409   3.104   3.418 -2.8923 -1.1885 -1.4662
 8268TIP3    H246296   1.333   3.136   3.545 -0.2049  0.2758 -0.1331
 8269TIP3   OH246297   3.774   2.835   0.929  0.4808  0.0968  0.2140
 8269TIP3    H146298   3.804   2.760   0.980  0.7228  0.3848  0.4977
 8269TIP3    H246299   3.721   2.886   0.989 -1.1432 -0.7378 -0.4620
 8270TIP3   OH246300   6.639   2.688  15.329  0.0192 -0.1040 -0.7957
 8270TIP3    H146301   6.691   2.756  15.372  0.5707 -0.9859 -0.0278
 8270TIP3    H246302   6.701   2.643  15.271  0.3940 -1.7112  0.7510
 8271TIP3   OH246303   5.865   6.828  13.196 -0.1535  0.4149  0.1090
 8271TIP3    H146304   5.868   6.783  13.281  2.4137  1.3475  0.5957
 8271TIP3    H246305   5.838   6.917  13.218  0.7521  0.7230  0.0059
 8272TIP3   OH246306   2.053   0.812  12.872 -0.0655 -0.3742  0.1605
 8272TIP3    H146307   2.064   0.748  12.802  1.0328  0.6850 -0.6800
 8272TIP3    H246308   1.959   0.812  12.889 -0.0543 -2.5554  0.5614
 8273TIP3   OH246309   0.890   5.164   3.773  0.2903 -0.3111 -0.2687
 8273TIP3    H146310   0.928   5.238   3.725 -0.1643 -0.3032 -0.6330
 8273TIP3    H246311   0.961   5.101   3.780  0.3490 -0.3401 -1.0330
 8274TIP3   OH246312   0.229   4.876  16.163 -0.0280 -0.2295 -0.3969
 8274TIP3    H146313   0.195   4.965  16.166 -1.5317 -0.8012  0.1584
 8274TIP3    H246314   0.183   4.834  16.090 -0.0123 -0.8176 -0.0766
 8275TIP3   OH246315   6.429   5.430  12.433  0.0006  0.8603  1.0244
 8275TIP3    H146316   6.466   5.502  12.483  2.4806  0.6706 -0.3315
 8275TIP3    H246317   6.442   5.455  12.341 -0.8801 -0.4528  0.4965
 8276TIP3   OH246318   2.926   2.974   5.604  0.5562 -0.2116  0.6568
 8276TIP3    H146319   2.845   2.928   5.581  0.8900 -0.0329 -0.9749
 8276TIP3    H246320   2.915   2.997   5.696 -0.1954 -2.3761  1.1737
 8277TIP3   OH246321   4.583   4.277   6.014 -0.6416  0.2068 -0.2096
 8277TIP3    H146322   4.509   4.334   5.992  0.4779  2.0347  0.5578
 8277TIP3    H246323   4.630   4.324   6.082  1.6146 -0.5673 -1.1453
 8278TIP3   OH246324   0.837   5.289  13.584  0.1430 -0.1672  0.3230
 8278TIP3    H146325   0.864   5.378  13.606  1.0845  0.6267 -3.3346
 8278TIP3    H246326   0.862   5.237  13.660  1.5597  2.3454  1.7209
 8279TIP3   OH246327   2.935   5.261  14.990 -0.1480 -0.0600  0.2354
 8279TIP3    H146328   3.020   5.299  14.965  0.2213 -0.4908  0.8089
 8279TIP3    H246329   2.886   5.335  15.026  0.5526 -0.0918  1.3100
 8280TIP3   OH246330   3.668   3.255   4.833 -0.2337  0.0817  1.0856
 8280TIP3    H146331   3.722   3.178   4.852 -0.0653  0.1844  1.0247
 8280TIP3    H246332   3.720   3.305   4.770 -1.0335 -0.5404 -0.0979
 8281TIP3   OH246333   5.842   4.722   2.017 -0.0777  0.6740  0.7613
 8281TIP3    H146334   5.764   4.732   1.963 -0.5429 -0.4751  1.1743
 8281TIP3    H246335   5.900   4.793   1.990  0.5440 -0.9231 -2.6780
 8282TIP3   OH246336   0.719   3.058   0.720  0.0414  0.7746 -0.1548
 8282TIP3    H146337   0.696   2.997   0.791  2.1495  0.3298  0.2238
 8282TIP3    H246338   0.749   3.137   0.765  0.3101  0.9166 -0.5800
 8283TIP3   OH246339   5.054   4.332  16.375  0.7020 -0.0976  0.2376
 8283TIP3    H146340   5.042   4.414  16.328 -1.1795 -0.8806 -0.7415
 8283TIP3    H246341   4.966   4.306  16.402  1.4791 -0.7696  2.3558
 8284TIP3   OH246342   2.347   5.489  12.254  0.2369 -0.9393  0.5110
 8284TIP3    H146343   2.407   5.499  12.180  0.1054 -1.6997  0.3035
 8284TIP3    H246344   2.279   5.555  12.239  1.5975  0.7613  1.3431
 8285TIP3   OH246345   3.557   5.930  11.385 -0.1486 -0.2915  0.2320
 8285TIP3    H146346   3.546   5.955  11.294  0.6243 -0.7796 -0.0036
 8285TIP3    H246347   3.568   5.835  11.383 -0.9791 -0.4217  0.9188
 8286TIP3   OH246348   3.387   4.541  11.272 -0.7446  0.7242  0.1400
 8286TIP3    H146349   3.454   4.609  11.261 -0.3159  0.1496 -1.0452
 8286TIP3    H246350   3.381   4.527  11.366  1.3607  0.2859  0.2559
 8287TIP3   OH246351   1.781   0.552   0.255 -0.0148  0.3254 -0.3511
 8287TIP3    H146352   1.830   0.629   0.283  0.1416  0.8647 -1.9868
 8287TIP3    H246353   1.803   0.485   0.319  1.4125  1.0771 -0.0126
 8288TIP3   OH246354   5.210   2.468  11.070  0.4625  0.0731 -0.5161
 8288TIP3    H146355   5.147   2.482  11.000 -0.7687 -2.0647  0.0660
 8288TIP3    H246356   5.199   2.543  11.128 -0.6608  0.3705 -1.0864
 8289TIP3   OH246357   0.120   6.612   3.230 -0.2292 -0.4097 -0.1406
 8289TIP3    H146358   0.071   6.672   3.286  1.2231  0.6974  0.0172
 8289TIP3    H246359   0.073   6.529   3.236 -1.0751  0.1437  1.3389
 8290TIP3   OH246360   2.974   5.434  16.900  0.0084 -0.6954 -0.0415
 8290TIP3    H146361   2.965   5.528  16.913  0.3503 -0.6357 -0.2333
 8290TIP3    H246362   2.972   5.397  16.988  0.9292 -0.4137  0.1076
 8291TIP3   OH246363   1.428   0.598   2.554 -0.0033  0.6137  0.2201
 8291TIP3    H146364   1.443   0.531   2.487  1.0953  0.7193  0.3431
 8291TIP3    H246365   1.451   0.555   2.636 -0.2122  0.8458  0.4007
 8292TIP3   OH246366   4.458   4.342  11.102 -0.6911  0.1677 -0.3605
 8292TIP3    H146367   4.436   4.249  11.094  0.6143 -0.1071 -1.0097
 8292TIP3    H246368   4.437   4.379  11.016 -2.2680  0.7423  0.2309
 8293TIP3   OH246369   3.611   4.624  16.205 -0.5501  0.0702 -0.4305
 8293TIP3    H146370   3.662   4.700  16.176  0.2191 -1.3141 -2.9739
 8293TIP3    H246371   3.659   4.548  16.171 -1.1138 -1.6422  2.2963
 8294TIP3   OH246372   0.017   2.234  16.470  0.2596 -0.0015 -0.0508
 8294TIP3    H146373   0.027   2.277  16.554  0.8955 -1.1665  0.4842
 8294TIP3    H246374   0.084   2.165  16.469 -0.6409 -0.9091 -0.9111
 8295TIP3   OH246375   0.516   6.338   5.146 -0.2493 -0.1855  0.3464
 8295TIP3    H146376   0.556   6.331   5.059 -1.0082  0.3696 -0.0584
 8295TIP3    H246377   0.560   6.413   5.186 -0.6953  0.2688 -0.0025
 8296TIP3   OH246378   2.904   5.129   3.726 -0.2629  0.1185  0.1709
 8296TIP3    H146379   2.928   5.136   3.819  1.4583 -0.0472 -0.2384
 8296TIP3    H246380   2.986   5.143   3.679 -0.9014 -0.9089 -1.3102
 8297TIP3   OH246381   6.512   6.747   4.284  0.0381  0.7280 -0.2438
 8297TIP3    H146382   6.431   6.796   4.301 -1.1857 -0.7855 -1.3537
 8297TIP3    H246383   6.503   6.718   4.193  1.7927  0.4011 -0.3464
 8298TIP3   OH246384   0.894   3.437  12.386 -0.1784  0.2022  0.1498
 8298TIP3    H146385   0.944   3.358  12.403  2.4960  1.9189  0.8517
 8298TIP3    H246386   0.940   3.506  12.435 -1.5519  2.4494 -1.5235
 8299TIP3   OH246387   6.656   6.236   4.992  0.1519  0.3072 -0.7259
 8299TIP3    H146388   6.666   6.310   4.931  0.8178  1.2065  0.4324
 8299TIP3    H246389   6.722   6.252   5.059  0.1642 -1.2521 -0.3348
 8300TIP3   OH246390   0.029   1.111  12.516  1.1829 -0.1188  0.3504
 8300TIP3    H146391   0.102   1.117  12.454 -0.7062 -0.8073 -2.1306
 8300TIP3    H246392   0.060   1.052  12.584  3.1370  0.0778 -0.2947
 8301TIP3   OH246393   4.408   1.198  12.854 -0.3399 -0.2208 -0.3162
 8301TIP3    H146394   4.420   1.117  12.903 -0.0394  0.5089  0.8732
 8301TIP3    H246395   4.316   1.221  12.869 -1.1617 -1.6068 -2.7334
 8302TIP3   OH246396   4.722   2.179   4.846  0.4758 -0.2445  0.0070
 8302TIP3    H146397   4.662   2.164   4.772 -0.2474 -0.9197  0.7138
 8302TIP3    H246398   4.687   2.256   4.891  1.0937  0.3541 -0.5177
 8303TIP3   OH246399   1.805   6.729  14.954  0.3023 -0.2687  0.0694
 8303TIP3    H146400   1.811   6.825  14.947 -1.8439  0.0876  1.9718
 8303TIP3    H246401   1.801   6.699  14.863  0.1978  1.5063 -0.5561
 8304TIP3   OH246402   5.456   2.243   3.381  0.0231 -0.3433 -0.5820
 8304TIP3    H146403   5.451   2.261   3.287  0.6094 -2.1915 -1.0138
 8304TIP3    H246404   5.366   2.235   3.410 -0.2291  1.7931 -0.6100
 8305TIP3   OH246405   6.138   3.799   1.370  0.2648  0.2185 -0.3067
 8305TIP3    H146406   6.216   3.854   1.360 -1.5112  3.0363  0.4644
 8305TIP3    H246407   6.094   3.803   1.285 -0.0268  0.2405 -0.1547
 8306TIP3   OH246408   6.101   3.667  16.303  0.0473  0.0247 -0.0348
 8306TIP3    H146409   6.079   3.615  16.380  0.5060  0.7961  0.6201
 8306TIP3    H246410   6.039   3.636  16.236 -0.0700 -0.9555  0.5011
 8307TIP3   OH246411   4.838   1.760  16.897 -0.9403 -0.0245 -0.1746
 8307TIP3    H146412   4.844   1.699  16.823 -3.2733 -0.8501  0.2408
 8307TIP3    H246413   4.849   1.847  16.856  0.8825 -0.5909 -0.9911
 8308TIP3   OH246414   3.794   5.005   3.011  0.4598  0.4979  0.2158
 8308TIP3    H146415   3.782   4.910   3.015  2.7365  0.1862  1.2883
 8308TIP3    H246416   3.770   5.029   2.922  0.1767 -1.1309 -0.1773
 8309TIP3   OH246417   5.627   3.114  11.680 -0.3453 -0.3268  0.2351
 8309TIP3    H146418   5.644   3.041  11.621 -0.2495  0.1180 -0.2958
 8309TIP3    H246419   5.609   3.073  11.765  1.0336 -0.9188  0.2680
 8310TIP3   OH246420   3.519   6.563  11.873 -0.5669  0.3116  0.2164
 8310TIP3    H146421   3.507   6.489  11.812 -2.0837 -0.4196  1.3342
 8310TIP3    H246422   3.610   6.556  11.901 -0.8115 -1.5354  0.7221
 8311TIP3   OH246423   2.688   5.452   1.747  0.0338  0.1876 -0.1021
 8311TIP3    H146424   2.631   5.453   1.669 -0.3777  0.5536  0.1970
 8311TIP3    H246425   2.768   5.496   1.719  0.4433 -0.8995 -0.7176
 8312TIP3   OH246426   5.226   0.584   5.991  0.4181 -0.0079  0.1615
 8312TIP3    H146427   5.155   0.606   5.931  0.9706  0.1646 -0.4419
 8312TIP3    H246428   5.224   0.653   6.057 -1.2237 -1.0633  1.2912
 8313TIP3   OH246429   6.596   6.562   4.469  0.2452  0.0185 -0.6350
 8313TIP3    H146430   6.579   6.652   4.440  1.0788  0.4964  0.2842
 8313TIP3    H246431   6.676   6.536   4.423  0.3094 -0.0528 -0.4843
 8314TIP3   OH246432   6.260   6.311  16.329 -0.7253  0.3086  0.8896
 8314TIP3    H146433   6.291   6.356  16.407 -0.2747  0.8484  0.4131
 8314TIP3    H246434   6.335   6.259  16.300 -1.4664 -1.3387  1.8412
 8315TIP3   OH246435   2.764   0.288  12.681  0.0415 -0.0660  0.0616
 8315TIP3    H146436   2.760   0.383  12.672 -2.4129 -0.1495 -0.4304
 8315TIP3    H246437   2.758   0.272  12.775  2.9742  0.2551  0.3933
 8316TIP3   OH246438   0.656   6.842  15.728 -0.3571 -0.0287 -0.0059
 8316TIP3    H146439   0.663   6.925  15.776 -0.2731  0.3247 -0.6205
 8316TIP3    H246440   0.716   6.783  15.773 -0.3380  0.2722  0.3715
 8317TIP3   OH246441   0.407   2.246  14.688  0.3397 -0.2945  0.4279
 8317TIP3    H146442   0.335   2.300  14.656  0.5617 -0.3214 -0.1141
 8317TIP3    H246443   0.412   2.172  14.627 -0.6178 -1.4958  1.7199
 8318TIP3   OH246444   0.516   3.404   1.807 -0.6241 -0.0584 -0.0020
 8318TIP3    H146445   0.488   3.438   1.892 -2.3907  1.3144 -1.0612
 8318TIP3    H246446   0.489   3.472   1.744  1.0606 -0.8062 -1.6268
 8319TIP3   OH246447   0.605   6.822  14.396  0.3064  0.1233 -0.0375
 8319TIP3    H146448   0.532   6.873  14.360 -0.0684 -0.1983  0.2610
 8319TIP3    H246449   0.673   6.887  14.412 -0.0988  0.5033  0.1603
 8320TIP3   OH246450   0.368   5.479  14.028  0.2650  0.0099 -0.6322
 8320TIP3    H146451   0.411   5.411  14.080 -0.1036  0.8445  0.8093
 8320TIP3    H246452   0.435   5.508  13.966  0.4123 -1.6685 -1.3239
 8321TIP3   OH246453   4.997   0.568  14.939 -0.2516  0.1319 -0.2368
 8321TIP3    H146454   5.005   0.644  14.996 -0.4407 -0.0471  0.0302
 8321TIP3    H246455   5.035   0.596  14.856 -1.7004  1.0346 -0.6295
 8322TIP3   OH246456   5.024   2.001  16.081 -0.5858 -0.5816 -0.0339
 8322TIP3    H146457   5.034   1.927  16.141 -0.1234  0.3597  1.0959
 8322TIP3    H246458   4.966   2.061  16.128  2.7364  1.8974  1.2801
 8323TIP3   OH246459   5.223   6.471  16.881  0.5799  0.1146  0.1124
 8323TIP3    H146460   5.130   6.492  16.891  0.3461 -0.5535 -0.5544
 8323TIP3    H246461   5.231   6.443  16.790  1.5683  0.7914 -0.0273
 8324TIP3   OH246462   0.755   1.236   3.061  0.0290  0.3987  0.4589
 8324TIP3    H146463   0.820   1.282   3.114  0.8453 -1.7446  1.4304
 8324TIP3    H246464   0.803   1.162   3.024 -1.6173 -0.6507  0.3438
 8325TIP3   OH246465   4.465   3.928  13.362  0.0886 -0.2177 -0.0241
 8325TIP3    H146466   4.500   3.978  13.435  0.3820  0.5711 -0.6862
 8325TIP3    H246467   4.507   3.842  13.369  0.2836 -0.0741  0.5997
 8326TIP3   OH246468   4.128   5.486   3.013 -0.1998 -0.0730 -0.2692
 8326TIP3    H146469   4.100   5.439   3.092 -0.4563  2.1764  1.0942
 8326TIP3    H246470   4.223   5.488   3.019 -0.2459  0.7739  0.4678
 8327TIP3   OH246471   0.314   4.256   0.680 -0.0045 -0.3839  0.8134
 8327TIP3    H146472   0.288   4.173   0.718  0.0329 -0.1480  1.3610
 8327TIP3    H246473   0.383   4.289   0.737  0.6603 -0.4264  0.0620
 8328TIP3   OH246474   1.871   3.956   2.212 -0.7427 -0.5710  0.7428
 8328TIP3    H146475   1.842   3.872   2.247 -1.0040 -1.2030 -0.8873
 8328TIP3    H246476   1.805   3.979   2.147  1.0012 -0.7766 -1.2282
 8329TIP3   OH246477   4.526   3.534  11.989 -0.1500 -0.1112  0.3487
 8329TIP3    H146478   4.498   3.488  11.910 -1.9546 -0.1296  0.9290
 8329TIP3    H246479   4.615   3.562  11.972 -0.0535 -1.2701 -1.1661
 8330TIP3   OH246480   3.240   3.967  14.889  0.1490 -0.0887 -0.2628
 8330TIP3    H146481   3.186   4.026  14.942 -1.6598 -2.0723  0.2593
 8330TIP3    H246482   3.188   3.887  14.884  2.6830 -1.8074 -0.5534
 8331TIP3   OH246483   6.695   4.791   3.853  0.3910 -0.4976  0.3775
 8331TIP3    H146484   6.714   4.877   3.814  1.2836 -0.6387  0.4884
 8331TIP3    H246485   6.604   4.798   3.881  0.5968  0.6043  0.8658
 8332TIP3   OH246486   0.957   6.482  11.453 -0.3555 -0.2866  0.2725
 8332TIP3    H146487   0.973   6.420  11.382 -0.6543 -1.6530  1.3633
 8332TIP3    H246488   0.907   6.553  11.412 -0.0856 -0.7854 -0.9800
 8333TIP3   OH246489   4.703   0.892   0.726  0.1323  0.2186  0.6457
 8333TIP3    H146490   4.736   0.813   0.683 -0.1732  0.5622 -0.2290
 8333TIP3    H246491   4.660   0.859   0.805 -1.9121 -0.7519 -0.7709
 8334TIP3   OH246492   4.281   3.281   6.002  0.3049  0.2859 -0.6178
 8334TIP3    H146493   4.340   3.283   6.077  1.6487 -0.1552 -1.6262
 8334TIP3    H246494   4.245   3.192   6.004 -0.4018  0.5700  0.0247
 8335TIP3   OH246495   2.581   4.411   0.445  0.0028 -0.1974  0.7800
 8335TIP3    H146496   2.565   4.417   0.351 -0.3029 -0.9314  0.7765
 8335TIP3    H246497   2.676   4.408   0.453  0.0200 -0.9298  0.4285
 8336TIP3   OH246498   5.292   5.265   4.262  0.0012 -0.3830 -0.3560
 8336TIP3    H146499   5.302   5.172   4.281  0.8893 -0.3029 -0.3925
 8336TIP3    H246500   5.251   5.301   4.341  2.9147 -0.1862  1.1842
 8337TIP3   OH246501   0.471   1.856  14.474 -0.1619  0.0841 -0.0644
 8337TIP3    H146502   0.479   1.936  14.422 -1.3150 -0.8744 -1.7938
 8337TIP3    H246503   0.382   1.826  14.459 -0.3726 -0.5497  2.0776
 8338TIP3   OH246504   5.846   2.716   3.573  0.0196  0.1861 -0.1393
 8338TIP3    H146505   5.881   2.783   3.632 -1.8989 -0.7541  2.2060
 8338TIP3    H246506   5.892   2.636   3.598  0.1524  0.0291 -0.8684
 8339TIP3   OH246507   4.490   5.304  15.643 -0.4084 -0.2892 -0.3383
 8339TIP3    H146508   4.491   5.221  15.691  0.0607  0.6683  1.3870
 8339TIP3    H246509   4.427   5.358  15.690 -0.1678  0.5856 -1.0035
 8340TIP3   OH246510   6.551   5.237   4.583 -0.0494 -0.1640  0.3073
 8340TIP3    H146511   6.489   5.168   4.561  0.2230 -0.1859 -0.4182
 8340TIP3    H246512   6.579   5.217   4.672  0.7035 -1.5124 -0.1943
 8341TIP3   OH246513   4.553   5.379   1.180 -0.1831  0.5165 -0.7070
 8341TIP3    H146514   4.496   5.402   1.254 -0.2855 -0.1714 -0.5569
 8341TIP3    H246515   4.522   5.432   1.108 -1.2676 -0.1000 -0.7241
 8342TIP3   OH246516   0.076   5.348   5.684 -0.0990 -0.2795  0.2253
 8342TIP3    H146517   0.132   5.291   5.736  1.5206  1.5302  0.6035
 8342TIP3    H246518   0.136   5.392   5.624 -1.3083  0.7595 -0.2802
 8343TIP3   OH246519   3.579   2.173  15.833 -0.3398 -0.0646 -0.2292
 8343TIP3    H146520   3.646   2.200  15.895  1.4151  1.2879 -2.5355
 8343TIP3    H246521   3.598   2.224  15.754 -2.9270 -1.0915 -1.6355
 8344TIP3   OH246522   1.614   5.947  16.582 -0.2701  0.5972  0.1154
 8344TIP3    H146523   1.582   5.899  16.659 -0.9747 -0.0981 -0.5956
 8344TIP3    H246524   1.627   6.037  16.613  1.4830 -0.0998  1.5928
 8345TIP3   OH246525   3.570   4.770  11.844  0.5176 -0.2592  0.9107
 8345TIP3    H146526   3.532   4.713  11.777 -0.5343 -0.1863  1.4313
 8345TIP3    H246527   3.620   4.710  11.900 -0.0096 -0.5703  1.0519
 8346TIP3   OH246528   0.421   2.158   4.395  0.2886  0.1505  0.5822
 8346TIP3    H146529   0.402   2.208   4.316 -0.5485 -0.2296  0.5301
 8346TIP3    H246530   0.463   2.220   4.454  0.4510  0.5694  0.0327
 8347TIP3   OH246531   1.822   0.085   3.615 -0.3785  0.3649 -0.0074
 8347TIP3    H146532   1.846   0.021   3.683 -1.2995 -0.0910 -0.0951
 8347TIP3    H246533   1.836   0.038   3.533  0.0878  0.6880 -0.1132
 8348TIP3   OH246534   0.579   1.300  10.322  0.6010 -0.2146 -0.1491
 8348TIP3    H146535   0.663   1.307  10.276 -1.1738  1.0102 -3.5120
 8348TIP3    H246536   0.549   1.390  10.332  0.0699 -0.5722  1.9472
 8349TIP3   OH246537   3.287   5.239   0.370 -0.4080 -0.9065 -0.6904
 8349TIP3    H146538   3.236   5.177   0.317 -0.0979  0.0544 -2.1633
 8349TIP3    H246539   3.329   5.297   0.306  0.2157  0.1270  0.6054
 8350TIP3   OH246540   3.830   6.223   1.655  0.5227 -0.4893  0.0406
 8350TIP3    H146541   3.854   6.135   1.684 -0.5017 -0.9079 -0.3168
 8350TIP3    H246542   3.808   6.212   1.563  0.6955  0.2068 -0.0852
 8351TIP3   OH246543   6.744   4.640   1.588 -0.2701  0.0376  0.3846
 8351TIP3    H146544   6.736   4.546   1.571 -0.5599  0.6029 -3.5216
 8351TIP3    H246545   6.655   4.674   1.577  0.1200  0.9758  0.0059
 8352TIP3   OH246546   1.181   2.513  14.685 -0.3326  0.3456 -0.2394
 8352TIP3    H146547   1.099   2.504  14.733 -0.6466 -2.4386 -1.1515
 8352TIP3    H246548   1.159   2.489  14.595  1.3409  0.1974 -0.6435
 8353TIP3   OH246549   5.893   0.396  16.109 -0.0858  0.0484 -0.5600
 8353TIP3    H146550   5.988   0.392  16.119 -0.0583  0.3185 -0.6977
 8353TIP3    H246551   5.863   0.307  16.130 -0.0396  0.5369  1.9661
 8354TIP3   OH246552   4.652   2.597  14.791  0.1639 -0.1768  0.2734
 8354TIP3    H146553   4.607   2.607  14.707  1.0119  1.8875 -0.0096
 8354TIP3    H246554   4.744   2.583  14.767  0.5747  1.3776  0.8039
 8355TIP3   OH246555   4.619   2.128   0.993  0.2558 -0.4660  0.1741
 8355TIP3    H146556   4.693   2.068   0.999 -0.5526 -1.5611 -0.3251
 8355TIP3    H246557   4.627   2.168   0.907  1.4716  1.1164  0.9656
 8356TIP3   OH246558   3.790   0.874   6.112  0.0132  0.0755 -0.2486
 8356TIP3    H146559   3.743   0.840   6.188  0.3800  1.3211  0.5611
 8356TIP3    H246560   3.727   0.932   6.069  0.6652  1.5148  0.6708
 8357TIP3   OH246561   3.626   4.022   1.121  0.2887 -0.8324 -0.0326
 8357TIP3    H146562   3.573   4.090   1.080 -1.0200 -0.9146  1.4250
 8357TIP3    H246563   3.579   4.001   1.202  0.5084 -3.6402 -0.5358
 8358TIP3   OH246564   4.368   5.390  14.813 -0.1972 -0.4028  0.4188
 8358TIP3    H146565   4.335   5.361  14.898  1.4772  0.2515  1.3217
 8358TIP3    H246566   4.331   5.478  14.802  1.6550  0.5894  1.7223
 8359TIP3   OH246567   6.166   4.134  13.133 -0.3945 -0.2510 -0.3186
 8359TIP3    H146568   6.134   4.138  13.224 -2.1830  1.4482 -0.9678
 8359TIP3    H246569   6.092   4.099  13.083 -0.0144  0.4128 -1.3709
 8360TIP3   OH246570   0.761   1.151   2.377 -0.0300 -0.0244  0.0253
 8360TIP3    H146571   0.831   1.195   2.329  1.1287 -1.2911  0.4833
 8360TIP3    H246572   0.722   1.220   2.431  2.9355  0.1841  2.1074
 8361TIP3   OH246573   2.890   5.377  15.650 -0.4663  0.0214  0.2862
 8361TIP3    H146574   2.963   5.320  15.626  0.5907  1.8604 -1.1296
 8361TIP3    H246575   2.927   5.435  15.717 -0.8606  0.4191  0.1631
 8362TIP3   OH246576   2.002   5.982  11.677 -0.4635  0.1301  0.1476
 8362TIP3    H146577   2.032   6.062  11.635  0.9741 -1.8738 -3.0060
 8362TIP3    H246578   1.919   5.962  11.635  0.1618 -1.0175 -0.6084
 8363TIP3   OH246579   6.399   2.282  15.058 -0.8123 -0.8250 -0.2481
 8363TIP3    H146580   6.399   2.376  15.038 -0.1392 -0.7929 -0.1066
 8363TIP3    H246581   6.429   2.241  14.977  0.7872 -0.7752  0.2836
 8364TIP3   OH246582   6.292   5.603   1.233  0.2473 -0.5341  0.0666
 8364TIP3    H146583   6.241   5.534   1.277 -0.7896 -0.9588 -1.7242
 8364TIP3    H246584   6.226   5.662   1.197  1.0844  0.0559 -0.5194
 8365TIP3   OH246585   6.239   4.724   4.826  0.0180 -0.3507 -0.2433
 8365TIP3    H146586   6.222   4.781   4.750 -0.1876  0.7673  0.6197
 8365TIP3    H246587   6.334   4.713   4.827  0.2224  1.2617  0.4599
 8366TIP3   OH246588   0.952   0.595   0.683 -0.5720 -0.3094  0.2848
 8366TIP3    H146589   0.957   0.587   0.778  2.7767  4.8287  0.9234
 8366TIP3    H246590   0.906   0.678   0.668 -1.4400 -1.1752 -2.7321
 8367TIP3   OH246591   4.538   3.396   3.631  0.1421 -0.1263  1.4103
 8367TIP3    H146592   4.629   3.368   3.625 -0.2484 -1.2735 -0.0761
 8367TIP3    H246593   4.536   3.481   3.588  0.3136 -0.7042  0.2142
 8368TIP3   OH246594   5.603   4.304  12.679  0.1324  0.2315 -0.5031
 8368TIP3    H146595   5.563   4.275  12.761  0.8303 -0.0823 -0.2656
 8368TIP3    H246596   5.650   4.228  12.647  0.2892  0.5057 -0.9353
 8369TIP3   OH246597   0.998   2.169  15.613 -0.3975  0.0748  0.2139
 8369TIP3    H146598   1.058   2.123  15.554 -1.7082  1.0290 -2.0103
 8369TIP3    H246599   1.040   2.164  15.699  1.7951 -1.0900 -0.8361
 8370TIP3   OH246600   1.864   6.197   4.111 -0.9817  0.6149 -0.0062
 8370TIP3    H146601   1.939   6.228   4.061 -1.5080  1.0563 -0.5342
 8370TIP3    H246602   1.896   6.193   4.201  0.1932 -0.9048 -0.4564
 8371TIP3   OH246603   2.662   4.490  15.862 -0.0305  0.2952  0.0575
 8371TIP3    H146604   2.569   4.510  15.874 -0.0201  0.8889 -0.7722
 8371TIP3    H246605   2.669   4.460  15.772  0.3462 -1.2944  0.5805
 8372TIP3   OH246606   0.612   0.633   0.753 -0.3845  0.1211 -0.1500
 8372TIP3    H146607   0.661   0.551   0.745 -2.0739 -1.0256  0.4504
 8372TIP3    H246608   0.570   0.644   0.667 -1.2390 -0.4276  0.1740
 8373TIP3   OH246609   3.282   3.686   5.954  0.0631 -0.1704 -0.2610
 8373TIP3    H146610   3.265   3.600   5.917 -2.5316  1.2932 -2.8963
 8373TIP3    H246611   3.214   3.697   6.021 -2.4814  1.2287 -2.8119
 8374TIP3   OH246612   5.335   2.294   5.991  0.4546  0.3151 -0.0982
 8374TIP3    H146613   5.315   2.265   6.080  1.4829 -1.9942 -0.5430
 8374TIP3    H246614   5.258   2.344   5.965 -0.0324  0.7318  1.9351
 8375TIP3   OH246615   5.206   0.737  11.832 -0.0834  0.2317  0.6502
 8375TIP3    H146616   5.245   0.695  11.755  0.9024 -0.0110  1.2552
 8375TIP3    H246617   5.282   0.767  11.883 -0.6801 -0.5093  2.0164
 8376TIP3   OH246618   2.653   1.824   5.452 -0.1794 -0.1174  0.1317
 8376TIP3    H146619   2.646   1.866   5.366 -0.6983 -1.5112 -0.5350
 8376TIP3    H246620   2.563   1.813   5.480 -0.0158  0.0862  0.7469
 8377TIP3   OH246621   2.289   1.858  16.573 -0.3418 -0.1546 -0.9944
 8377TIP3    H146622   2.276   1.845  16.479 -3.9611 -0.4101 -0.6055
 8377TIP3    H246623   2.278   1.771  16.611 -2.7061  0.4591 -0.1122
 8378TIP3   OH246624   4.419   6.498  15.433 -0.3184 -0.0119  0.3049
 8378TIP3    H146625   4.326   6.498  15.409 -0.0278 -0.7143 -0.9519
 8378TIP3    H246626   4.457   6.430  15.377  0.8553 -0.1049  1.1978
 8379TIP3   OH246627   6.516   5.969   2.068  0.4674 -0.3535 -0.5558
 8379TIP3    H146628   6.574   5.927   2.131 -0.2442 -1.0899 -0.3770
 8379TIP3    H246629   6.464   6.031   2.119  0.3264 -0.4973 -0.5248
 8380TIP3   OH246630   3.514   0.571  15.321 -0.2890 -0.2810 -0.0732
 8380TIP3    H146631   3.419   0.574  15.332 -0.2109  1.2263  0.4195
 8380TIP3    H246632   3.527   0.530  15.235 -1.3545 -0.8698  0.0272
 8381TIP3   OH246633   0.291   0.730   0.666  0.2880 -0.4938  0.4656
 8381TIP3    H146634   0.248   0.645   0.679 -0.3232 -0.6641 -2.1206
 8381TIP3    H246635   0.372   0.709   0.619  0.1838  0.3448 -0.1085
 8382TIP3   OH246636   3.132   5.707   4.065  0.3080 -0.1253 -0.1296
 8382TIP3    H146637   3.117   5.732   4.156  0.0681 -0.3619 -0.1044
 8382TIP3    H246638   3.143   5.612   4.067  0.5130 -0.1063 -0.3187
 8383TIP3   OH246639   4.767   3.243  15.577 -0.1702 -0.7704  0.1169
 8383TIP3    H146640   4.682   3.227  15.536  0.2212 -1.6899 -0.3715
 8383TIP3    H246641   4.831   3.211  15.512  0.6040  0.9429 -0.0168
 8384TIP3   OH246642   4.203   3.580  13.621  0.6870 -0.0177 -0.0454
 8384TIP3    H146643   4.191   3.592  13.526 -1.2161  1.8244  0.3671
 8384TIP3    H246644   4.213   3.669  13.655 -2.1689 -0.3250  1.8557
 8385TIP3   OH246645   3.889   1.562  16.399 -0.4545 -0.2014 -0.5288
 8385TIP3    H146646   3.815   1.538  16.342 -0.5128 -1.7560  0.1415
 8385TIP3    H246647   3.942   1.483  16.404 -0.1453  0.0656  1.1137
 8386TIP3   OH246648   1.868   5.767   3.318  0.0598 -0.3430  0.1188
 8386TIP3    H146649   1.791   5.813   3.286 -1.2090 -2.0964  0.5463
 8386TIP3    H246650   1.868   5.783   3.412  0.4698 -0.0237  0.0708
 8387TIP3   OH246651   6.030   2.564   6.772  0.5442 -0.8418  0.5110
 8387TIP3    H146652   6.069   2.633   6.826 -1.1440  1.8562 -1.4691
 8387TIP3    H246653   6.070   2.575   6.686 -0.6835 -1.4707 -0.1737
 8388TIP3   OH246654   5.867   6.482  15.439 -0.1087  0.0067  0.1663
 8388TIP3    H146655   5.935   6.544  15.466 -0.8830  0.8547  0.2569
 8388TIP3    H246656   5.913   6.400  15.422  0.9840  0.6846 -0.2247
 8389TIP3   OH246657   0.010   6.490   5.666  0.1162 -0.6391  0.0433
 8389TIP3    H146658   0.083   6.523   5.719  0.0545 -0.0981 -0.1953
 8389TIP3    H246659   0.009   6.547   5.588 -1.2411  0.0803  0.5472
 8390TIP3   OH246660   0.384   4.381   0.194  0.6595 -0.4406 -0.0112
 8390TIP3    H146661   0.379   4.416   0.283  0.5856 -0.8155  0.1343
 8390TIP3    H246662   0.292   4.370   0.168  0.6831 -0.7933  0.0518
 8391TIP3   OH246663   5.701   2.829  11.005  0.4423 -0.7330  0.0816
 8391TIP3    H146664   5.736   2.827  10.916 -0.9385 -1.3866 -0.4897
 8391TIP3    H246665   5.627   2.768  11.003  0.2881 -0.6469  1.6447
 8392TIP3   OH246666   5.129   0.230   0.410 -0.3474  0.6395 -0.0434
 8392TIP3    H146667   5.171   0.197   0.490 -1.3627 -0.2512  0.1467
 8392TIP3    H246668   5.036   0.211   0.423 -0.6687  1.5366 -0.9499
 8393TIP3   OH246669   5.771   1.699  13.069  0.3759 -0.0964  0.1479
 8393TIP3    H146670   5.726   1.767  13.120 -0.7663 -0.9888  0.3713
 8393TIP3    H246671   5.838   1.746  13.020 -0.7114  1.2712 -0.0870
 8394TIP3   OH246672   6.448   1.112   5.042  0.2640  0.0798  0.4975
 8394TIP3    H146673   6.478   1.122   5.132 -0.9132  2.2844  0.7187
 8394TIP3    H246674   6.408   1.197   5.021 -0.5904 -0.7995 -1.6787
 8395TIP3   OH246675   6.217   6.002   6.403 -0.4721 -0.4653  0.3042
 8395TIP3    H146676   6.217   6.037   6.313 -1.9867 -0.9877  0.0736
 8395TIP3    H246677   6.227   6.080   6.458  0.3399 -0.1247 -0.2977
 8396TIP3   OH246678   0.424   6.268   4.871  0.0853  0.0360 -0.0930
 8396TIP3    H146679   0.495   6.207   4.851 -0.3140 -0.2949 -0.5149
 8396TIP3    H246680   0.354   6.212   4.906 -0.6729  0.0959 -1.4502
 8397TIP3   OH246681   3.625   0.857  15.152  0.1304  0.3749  1.2794
 8397TIP3    H146682   3.606   0.765  15.170 -1.2791  0.2995 -0.3739
 8397TIP3    H246683   3.702   0.876  15.205  0.2932 -1.6743  1.8653
 8398TIP3   OH246684   4.472   5.046  16.767 -0.4180 -0.2297  0.9286
 8398TIP3    H146685   4.545   5.086  16.813  0.0231 -0.8203  0.7523
 8398TIP3    H246686   4.510   5.010  16.687 -1.2596  1.2166 -0.1655
 8399TIP3   OH246687   4.664   4.651  16.153 -0.0940 -0.6442 -0.0908
 8399TIP3    H146688   4.596   4.708  16.116  0.2767 -0.5466 -0.6300
 8399TIP3    H246689   4.618   4.596  16.216 -0.4885  0.1597  0.3421
 8400TIP3   OH246690   6.120   1.672   5.535 -0.1110  0.1857  0.1240
 8400TIP3    H146691   6.088   1.727   5.606  0.8966  1.9030 -0.7039
 8400TIP3    H246692   6.145   1.590   5.578 -0.5116  0.7880  1.5620
 8401TIP3   OH246693   0.191   5.605   1.496 -0.1378  0.1748  0.8009
 8401TIP3    H146694   0.132   5.530   1.486  0.1566  0.2176 -1.8915
 8401TIP3    H246695   0.151   5.674   1.443  1.6662  0.5927 -0.1002
 8402TIP3   OH246696   1.843   5.342   4.453 -0.6210  0.1401  0.3130
 8402TIP3    H146697   1.752   5.312   4.447  0.1516 -2.1218 -1.4802
 8402TIP3    H246698   1.849   5.412   4.388 -1.1755  0.6604  0.8067
 8403TIP3   OH246699   1.375   4.475  15.877  0.1968 -0.3251 -0.4515
 8403TIP3    H146700   1.292   4.521  15.887  0.1888 -0.3871 -0.2332
 8403TIP3    H246701   1.351   4.385  15.853  0.2162 -0.1710 -1.0565
 8404TIP3   OH246702   5.508   3.971  12.056 -0.0317  0.0606  0.2999
 8404TIP3    H146703   5.472   3.939  11.973 -0.6788  1.5118 -0.0002
 8404TIP3    H246704   5.553   4.053  12.033 -0.3095  0.5369  1.4030
 8405TIP3   OH246705   2.997   3.282  13.087  0.1525 -0.4628 -0.6221
 8405TIP3    H146706   3.011   3.230  13.008 -1.7709  0.1459 -1.4106
 8405TIP3    H246707   2.985   3.372  13.056 -0.4640 -0.1843  0.3592
 8406TIP3   OH246708   5.182   5.293   2.120 -0.0450 -0.4439 -0.7220
 8406TIP3    H146709   5.173   5.386   2.140 -0.7638 -0.7218  0.3295
 8406TIP3    H246710   5.264   5.287   2.072 -0.3782  0.8375 -1.4978
 8407TIP3   OH246711   4.678   3.171   3.433  0.5698 -0.1119  0.1044
 8407TIP3    H146712   4.720   3.169   3.347  0.0573 -1.0991 -0.1396
 8407TIP3    H246713   4.741   3.214   3.490  0.3832  1.7793 -1.0325
 8408TIP3   OH246714   1.308   2.877  14.447 -0.3570  0.5283  0.2040
 8408TIP3    H146715   1.348   2.803  14.401  0.7565  1.4739 -0.4310
 8408TIP3    H246716   1.217   2.878  14.418  0.1825  0.7826 -1.6431
 8409TIP3   OH246717   0.347   6.550   1.178  0.3833  0.2126  0.1757
 8409TIP3    H146718   0.442   6.563   1.178  0.6894 -1.5940  1.4919
 8409TIP3    H246719   0.315   6.605   1.250  0.6522 -0.3334  0.7241
 8410TIP3   OH246720   4.617   4.282  13.995  0.1930 -0.5236  0.2151
 8410TIP3    H146721   4.711   4.270  13.998  0.1453 -0.9173  0.1750
 8410TIP3    H246722   4.601   4.324  13.910  0.3205 -0.5595  0.1736
 8411TIP3   OH246723   2.156   5.449   2.915 -0.1997 -0.0118 -0.4893
 8411TIP3    H146724   2.079   5.392   2.920  0.4105 -0.7835  0.4037
 8411TIP3    H246725   2.231   5.390   2.922  0.4944  0.7153 -1.4744
 8412TIP3   OH246726   3.048   5.145   4.814 -0.2442  0.4598 -0.1282
 8412TIP3    H146727   3.048   5.230   4.858 -0.6194  0.7338 -0.6429
 8412TIP3    H246728   2.975   5.097   4.855  0.1063  0.3022  0.3150
 8413TIP3   OH246729   6.474   2.034  11.213  0.2800 -0.1918  0.4311
 8413TIP3    H146730   6.494   1.981  11.290 -0.0322 -2.7286 -1.1219
 8413TIP3    H246731   6.557   2.077  11.191  0.7637 -0.6746  1.2725
 8414TIP3   OH246732   0.811   3.711   1.620 -0.4354 -0.1860 -0.4019
 8414TIP3    H146733   0.898   3.674   1.605 -1.2016 -1.9024 -0.8003
 8414TIP3    H246734   0.765   3.701   1.536 -1.4914 -0.6495  0.2131
 8415TIP3   OH246735   1.671   6.253   2.833  0.0048 -0.1196  0.6690
 8415TIP3    H146736   1.733   6.180   2.832 -1.8594 -1.8007 -1.1467
 8415TIP3    H246737   1.636   6.252   2.923  1.3794 -0.1778  1.2322
 8416TIP3   OH246738   5.109   1.114   2.126  0.0286 -0.1873  0.2261
 8416TIP3    H146739   5.132   1.070   2.044  1.4271 -1.0559  1.0507
 8416TIP3    H246740   5.033   1.168   2.103  1.2433  0.7214 -1.9966
 8417TIP3   OH246741   6.307   0.311   3.937  0.3531 -0.5395 -0.1195
 8417TIP3    H146742   6.313   0.235   3.878  2.4071  0.3092 -1.1179
 8417TIP3    H246743   6.395   0.349   3.935  0.3045 -0.0457  2.9945
 8418TIP3   OH246744   4.552   0.554  13.981 -0.0141  0.1617 -0.2820
 8418TIP3    H146745   4.502   0.515  14.052 -2.7902  1.3161 -1.4597
 8418TIP3    H246746   4.570   0.644  14.010 -2.5054  1.1558 -1.4879
 8419TIP3   OH246747   2.571   5.686   6.570 -0.2547  0.0233  0.4433
 8419TIP3    H146748   2.543   5.776   6.556  2.3038  0.7585 -0.6480
 8419TIP3    H246749   2.598   5.655   6.483  2.5370 -0.3657  1.3262
 8420TIP3   OH246750   4.867   2.446  15.228 -0.0071 -0.1131 -0.1046
 8420TIP3    H146751   4.792   2.423  15.283  0.4470 -0.9489  0.1851
 8420TIP3    H246752   4.938   2.388  15.258  0.6430  0.3882 -0.6329
 8421TIP3   OH246753   3.918   3.516   3.155  0.2688 -0.5399  0.8388
 8421TIP3    H146754   3.870   3.527   3.073  0.7423  0.3954  0.6705
 8421TIP3    H246755   3.851   3.499   3.221 -0.2086 -0.2056  0.4403
 8422TIP3   OH246756   6.009   6.210   3.218 -0.2353 -0.2477  0.0693
 8422TIP3    H146757   5.917   6.189   3.204  0.2286 -1.6283 -1.2691
 8422TIP3    H246758   6.019   6.211   3.313 -1.8677  1.2154  0.2782
 8423TIP3   OH246759   0.189   4.868  12.470 -0.0111 -0.2610 -0.2513
 8423TIP3    H146760   0.172   4.835  12.558 -3.2159 -0.1604 -0.7083
 8423TIP3    H246761   0.152   4.802  12.412  0.8442  0.3175 -1.5076
 8424TIP3   OH246762   2.615   4.760  11.056 -0.1379  0.6114 -0.3569
 8424TIP3    H146763   2.596   4.822  11.126  0.0212  1.2649 -0.8843
 8424TIP3    H246764   2.556   4.687  11.072  1.0473 -0.0360  1.4522
 8425TIP3   OH246765   3.602   5.268  14.693  0.3424  0.7743 -0.1709
 8425TIP3    H146766   3.509   5.249  14.679  0.1545 -0.5727  2.3180
 8425TIP3    H246767   3.604   5.325  14.770  1.5948 -0.8713  1.0934
 8426TIP3   OH246768   1.451   0.973   5.466  1.0890  0.2941  0.1635
 8426TIP3    H146769   1.407   1.054   5.444  0.3450  0.5550  2.3253
 8426TIP3    H246770   1.419   0.952   5.554  2.3691 -1.5642  0.2405
 8427TIP3   OH246771   3.361   6.686  14.863 -0.6091 -0.4659  0.7782
 8427TIP3    H146772   3.419   6.725  14.798 -0.6780 -0.1356  0.9110
 8427TIP3    H246773   3.353   6.754  14.931  0.3480 -1.2170  1.6802
 8428TIP3   OH246774   3.425   2.190   3.574 -0.6847  0.3801 -0.3534
 8428TIP3    H146775   3.352   2.252   3.578 -0.0152  1.1361  0.4554
 8428TIP3    H246776   3.411   2.131   3.647  1.0587  2.3317  1.6924
 8429TIP3   OH246777   1.107   2.136  14.257  0.5805 -0.1224  0.3370
 8429TIP3    H146778   1.189   2.111  14.215  0.1058  0.6519 -1.1348
 8429TIP3    H246779   1.040   2.115  14.192 -0.5116 -1.5782  1.8568
 8430TIP3   OH246780   1.077   0.013   2.002  0.1145  0.2497  0.5648
 8430TIP3    H146781   1.053  -0.014   1.914  0.5187 -1.1020  0.8345
 8430TIP3    H246782   1.095   0.106   1.995 -0.6741  0.3320 -0.5989
 8431TIP3   OH246783   6.166   4.894   3.634  0.1351  0.5831 -0.3280
 8431TIP3    H146784   6.243   4.952   3.643  0.0546  1.2324 -3.0718
 8431TIP3    H246785   6.203   4.809   3.609  0.1057 -0.0149  1.5216
 8432TIP3   OH246786   3.513   3.135   5.124  0.0795 -0.6264  0.0577
 8432TIP3    H146787   3.512   3.206   5.188 -1.1893  0.0640 -0.6957
 8432TIP3    H246788   3.510   3.179   5.039  0.3945 -1.5651 -0.4591
 8433TIP3   OH246789   1.496   4.666  15.676  0.3042  0.1126 -0.3835
 8433TIP3    H146790   1.458   4.632  15.757 -1.8691  0.8914 -1.0087
 8433TIP3    H246791   1.543   4.745  15.703  1.2512 -0.6780  0.3628
 8434TIP3   OH246792   1.307   1.459  15.309  0.8101 -0.0233 -0.3889
 8434TIP3    H146793   1.295   1.457  15.404 -1.4432  0.8770 -0.5749
 8434TIP3    H246794   1.335   1.548  15.291 -2.5433  1.1062 -0.7868
 8435TIP3   OH246795   6.079   4.449   0.371  0.1777 -0.5563 -0.2013
 8435TIP3    H146796   6.028   4.456   0.291 -2.5567 -1.6023  1.3207
 8435TIP3    H246797   6.159   4.403   0.345 -0.3920 -0.4275 -2.3675
 8436TIP3   OH246798   0.430   1.540  13.370  0.5448  0.2081  0.1665
 8436TIP3    H146799   0.382   1.476  13.423  0.6492  0.9490  1.1832
 8436TIP3    H246800   0.397   1.526  13.281  0.0732 -0.7903  0.4770
 8437TIP3   OH246801   6.141   2.340   1.114  0.1274 -0.2167 -0.6891
 8437TIP3    H146802   6.143   2.434   1.131  1.2586 -0.0283 -1.6920
 8437TIP3    H246803   6.077   2.305   1.176  2.0118  0.7606  1.9944
 8438TIP3   OH246804   3.164   4.222  14.321 -0.2382 -0.7815  0.1021
 8438TIP3    H146805   3.217   4.229  14.242 -1.8117  2.6367 -0.8259
 8438TIP3    H246806   3.074   4.237  14.291 -0.7730  2.0481  2.5996
 8439TIP3   OH246807   0.061   0.371  12.435  0.6083  0.2194  0.2546
 8439TIP3    H146808  -0.029   0.400  12.417  0.7814 -0.1361 -1.4271
 8439TIP3    H246809   0.070   0.290  12.383  2.0944  0.6166 -0.1412
 8440TIP3   OH246810   1.987   3.441  13.634 -0.4337 -0.7075 -0.0382
 8440TIP3    H146811   2.017   3.492  13.709 -1.1201 -0.6373  0.1918
 8440TIP3    H246812   2.022   3.353  13.650 -0.8122 -0.7616  0.5057
 8441TIP3   OH246813   0.713   5.663   0.361 -0.6729 -0.4749  0.4218
 8441TIP3    H146814   0.799   5.686   0.325 -0.9734 -0.1593 -0.1071
 8441TIP3    H246815   0.731   5.639   0.452 -0.4444  3.2769  1.5777
 8442TIP3   OH246816   4.477   5.384  12.598  0.3826  0.3132 -0.1173
 8442TIP3    H146817   4.528   5.380  12.516  1.4718  0.5956  0.5294
 8442TIP3    H246818   4.414   5.454  12.583 -0.2125 -0.4081 -1.1431
 8443TIP3   OH246819   4.789   3.243  14.872 -0.5880 -0.2474  0.1600
 8443TIP3    H146820   4.724   3.298  14.916  0.4568 -0.0367  1.4891
 8443TIP3    H246821   4.786   3.160  14.919 -0.8225 -0.6907 -0.6265
 8444TIP3   OH246822   4.208   0.113  11.182 -0.4426 -0.2986 -0.0253
 8444TIP3    H146823   4.117   0.098  11.207 -0.1351 -0.9607  0.7143
 8444TIP3    H246824   4.202   0.143  11.091 -1.5456  1.8367  0.6861
 8445TIP3   OH246825   1.823   0.714   2.084 -0.2396 -0.0322  0.4332
 8445TIP3    H146826   1.887   0.757   2.027 -0.1322 -0.8189 -0.0531
 8445TIP3    H246827   1.813   0.626   2.047 -0.7396 -0.3017  1.1877
 8446TIP3   OH246828   1.241   5.791  16.458  0.3156 -0.1342  0.3482
 8446TIP3    H146829   1.262   5.834  16.540  0.0420 -0.1777  0.4414
 8446TIP3    H246830   1.326   5.765  16.422  0.5471  1.1695 -0.0931
 8447TIP3   OH246831   4.426   0.780   1.374  0.1592  0.0330 -0.0730
 8447TIP3    H146832   4.377   0.698   1.370 -0.3100  0.3085 -0.0496
 8447TIP3    H246833   4.415   0.819   1.287  1.0879 -0.3231 -0.3704
 8448TIP3   OH246834   5.960   2.081  11.219 -0.5527 -0.0201 -0.6088
 8448TIP3    H146835   5.990   2.043  11.301  0.2621  0.5807 -0.6165
 8448TIP3    H246836   6.039   2.094  11.168 -0.7824  1.6824 -0.6008
 8449TIP3   OH246837   1.608   4.316  13.893  0.1053  0.2638 -0.1626
 8449TIP3    H146838   1.551   4.259  13.945  2.5704 -1.4436  0.8345
 8449TIP3    H246839   1.605   4.400  13.937 -0.1934 -0.3301  0.9759
 8450TIP3   OH246840   4.664   5.109  15.788  0.1956 -0.1509 -0.4975
 8450TIP3    H146841   4.719   5.186  15.802  1.6075 -1.1809 -0.2194
 8450TIP3    H246842   4.686   5.080  15.699 -1.0911  0.3408 -0.9983
 8451TIP3   OH246843   3.509   5.288  13.212 -0.1376 -0.8012  0.1790
 8451TIP3    H146844   3.476   5.262  13.298 -0.4708  1.0612  0.6689
 8451TIP3    H246845   3.604   5.286  13.220 -0.1238  1.6094  1.4040
 8452TIP3   OH246846   1.776   0.529  13.010 -0.3104 -0.1953 -0.2496
 8452TIP3    H146847   1.856   0.578  13.030 -0.6914  0.4282 -0.2116
 8452TIP3    H246848   1.722   0.538  13.088 -0.0688 -1.3643  0.0733
 8453TIP3   OH246849   2.093   1.056   5.103 -0.7190  0.5668 -0.1944
 8453TIP3    H146850   2.178   1.043   5.062 -0.8574  0.5593 -0.4790
 8453TIP3    H246851   2.035   0.995   5.058 -0.7495  0.1486  0.3986
 8454TIP3   OH246852   3.276   0.910  16.863 -0.0071 -0.0599 -0.0212
 8454TIP3    H146853   3.281   0.996  16.823 -1.0178  0.6435  1.2807
 8454TIP3    H246854   3.192   0.910  16.910  1.4284 -0.4951  2.7361
 8455TIP3   OH246855   6.788   5.389  12.463 -0.2849  0.1477  0.5021
 8455TIP3    H146856   6.871   5.386  12.510  0.5628  3.2671 -0.5554
 8455TIP3    H246857   6.730   5.439  12.521 -0.5508  0.3865  0.0354
 8456TIP3   OH246858   3.770   5.634  16.478 -0.2153  0.1289 -0.2887
 8456TIP3    H146859   3.683   5.643  16.516  0.3820 -0.7540  1.3708
 8456TIP3    H246860   3.820   5.708  16.514  0.0330 -0.0188 -0.3253
 8457TIP3   OH246861   2.071   0.406  13.273  0.2583 -0.7638  0.2079
 8457TIP3    H146862   2.084   0.427  13.181  1.7754 -2.6838 -0.0896
 8457TIP3    H246863   2.126   0.470  13.320  0.0030 -0.2060 -0.2375
 8458TIP3   OH246864   3.200   0.491  10.744  0.6003  0.4145 -0.0737
 8458TIP3    H146865   3.289   0.465  10.765 -0.0375 -1.4796  0.4672
 8458TIP3    H246866   3.186   0.462  10.654  0.3155  0.1102  0.0668
 8459TIP3   OH246867   1.626   5.432  13.006  0.2787 -0.3906 -0.6575
 8459TIP3    H146868   1.633   5.345  12.966 -0.7160  0.1341 -2.0296
 8459TIP3    H246869   1.574   5.483  12.945 -0.3263  0.7985  0.7794
 8460TIP3   OH246870   3.592   5.078   0.052 -0.4858 -0.0406  0.4621
 8460TIP3    H146871   3.591   5.168   0.020  0.0311 -0.1016  0.2718
 8460TIP3    H246872   3.556   5.027  -0.021  0.1156 -0.1032  0.2027
 8461TIP3   OH246873   5.607   6.787   3.997 -0.1274 -0.7423  0.2983
 8461TIP3    H146874   5.682   6.741   4.035 -0.7492 -0.4426  1.9543
 8461TIP3    H246875   5.646   6.849   3.936  1.0105 -0.3785  1.3581
 8462TIP3   OH246876   4.463   0.069   0.743 -0.2744 -0.5888  0.1585
 8462TIP3    H146877   4.555   0.086   0.766 -0.8974  0.6540  1.8765
 8462TIP3    H246878   4.463   0.067   0.647  1.1596  1.8832  0.0196
 8463TIP3   OH246879   0.118   1.937  12.956  0.3719 -0.7744 -0.2280
 8463TIP3    H146880   0.197   1.992  12.955  2.3754 -3.4155  1.4369
 8463TIP3    H246881   0.056   1.984  12.900  3.0414  1.5164 -1.5057
 8464TIP3   OH246882   5.356   1.631  13.591 -0.2799 -0.4716  0.6120
 8464TIP3    H146883   5.328   1.540  13.598  1.0042 -1.0010 -0.7348
 8464TIP3    H246884   5.283   1.675  13.547 -1.8063 -0.3387  3.0832
 8465TIP3   OH246885   2.603   0.433  13.096  0.0317  0.0605  0.7060
 8465TIP3    H146886   2.626   0.477  13.178  1.5780 -0.2015  0.4473
 8465TIP3    H246887   2.616   0.340  13.114  2.8230  0.1006 -0.4523
 8466TIP3   OH246888   5.375   6.010  12.108 -0.1477 -0.2917 -0.7113
 8466TIP3    H146889   5.427   5.951  12.053 -0.0483 -0.1790 -0.7403
 8466TIP3    H246890   5.286   5.999  12.076 -0.4166 -1.7582  0.4690
 8467TIP3   OH246891   6.054   2.946  12.616  0.1867 -0.3571 -0.8917
 8467TIP3    H146892   6.015   2.875  12.564  0.5523 -2.0025  0.9382
 8467TIP3    H246893   6.136   2.966  12.571  1.0830 -2.5677 -0.4050
 8468TIP3   OH246894   5.301   2.842   0.213 -0.4238 -0.0833  0.4651
 8468TIP3    H146895   5.266   2.862   0.126 -0.5581 -1.2207  0.2470
 8468TIP3    H246896   5.373   2.781   0.196  1.4087  1.8230  0.9406
 8469TIP3   OH246897   1.111   3.549   2.582 -0.4603 -0.4879 -0.1597
 8469TIP3    H146898   1.094   3.642   2.568 -3.5189 -0.9830 -0.4010
 8469TIP3    H246899   1.112   3.512   2.494 -0.9489 -0.9262  0.0201
 8470TIP3   OH246900   0.420   6.385  13.176 -0.2074  0.5285 -0.4074
 8470TIP3    H146901   0.473   6.311  13.205  1.1582  0.8742 -1.8888
 8470TIP3    H246902   0.332   6.366  13.210  0.2461 -1.4597 -0.2292
 8471TIP3   OH246903   2.720   1.102   0.350 -0.3028  0.5744 -0.1428
 8471TIP3    H146904   2.650   1.045   0.316  0.5637 -1.4889  1.3438
 8471TIP3    H246905   2.774   1.122   0.274 -1.9104  1.3775 -1.1255
 8472TIP3   OH246906   4.534   2.045   1.790 -0.3375 -0.1268  0.4032
 8472TIP3    H146907   4.595   2.114   1.815  0.3080 -0.7619  0.5824
 8472TIP3    H246908   4.585   1.985   1.736 -0.5351 -1.1735  1.3496
 8473TIP3   OH246909   3.248   2.375   2.619 -0.1431 -0.0402  0.1306
 8473TIP3    H146910   3.253   2.385   2.524  2.0561 -1.4334  0.0237
 8473TIP3    H246911   3.339   2.366   2.647 -0.5737  2.2922  2.6494
 8474TIP3   OH246912   2.227   4.855  13.986 -0.1376  0.0175  0.5037
 8474TIP3    H146913   2.190   4.768  13.998  0.6593 -0.5253 -0.7696
 8474TIP3    H246914   2.314   4.850  14.026 -0.0557  0.2056  0.3492
 8475TIP3   OH246915   5.634   4.894   5.179 -0.2994  0.5873  0.3202
 8475TIP3    H146916   5.594   4.976   5.208 -0.3090  1.3804 -1.8056
 8475TIP3    H246917   5.561   4.844   5.141  0.0761  0.5292 -0.3355
 8476TIP3   OH246918   0.031   6.670   2.966 -0.0363 -0.5724 -0.1043
 8476TIP3    H146919   0.115   6.701   2.933 -1.0436  3.0894  0.3464
 8476TIP3    H246920   0.045   6.653   3.059  0.2001  0.1866  0.0032
 8477TIP3   OH246921   1.981   4.396  13.446  0.0056 -0.5726 -0.1956
 8477TIP3    H146922   1.967   4.301  13.438  0.3572 -0.6044 -0.4236
 8477TIP3    H246923   2.013   4.407  13.535  0.5976 -0.7445 -0.3846
 8478TIP3   OH246924   2.779   3.853   1.242 -0.4585  0.3045 -0.1594
 8478TIP3    H146925   2.831   3.774   1.231  0.9393  1.4358 -2.3327
 8478TIP3    H246926   2.833   3.910   1.297 -0.6769  0.4237 -0.0681
 8479TIP3   OH246927   0.517   5.936  16.300 -0.0430 -0.4072  0.8905
 8479TIP3    H146928   0.444   5.979  16.344 -0.7287 -2.4022  1.8002
 8479TIP3    H246929   0.548   5.870  16.362  1.5587 -0.6368 -0.0861
 8480TIP3   OH246930   3.222   0.691   1.420 -0.1433 -0.0351 -0.5483
 8480TIP3    H146931   3.179   0.667   1.337  1.4477 -2.8061 -0.6856
 8480TIP3    H246932   3.303   0.640   1.421 -0.0484 -0.0165  2.7005
 8481TIP3   OH246933   0.872   1.602   4.547  0.3083  0.0656  0.1080
 8481TIP3    H146934   0.883   1.676   4.608 -1.2830  0.5529 -0.1453
 8481TIP3    H246935   0.783   1.613   4.512  0.8489 -0.7226 -1.6198
 8482TIP3   OH246936   5.206   1.956  16.677 -0.2271  0.4399 -0.5538
 8482TIP3    H146937   5.273   1.891  16.655  0.0204  0.1400  0.9258
 8482TIP3    H246938   5.140   1.948  16.609 -1.1702 -2.7591  0.5541
 8483TIP3   OH246939   5.949   3.827  13.480  0.1128  0.1329  0.1048
 8483TIP3    H146940   5.881   3.839  13.414 -0.6346  1.1500  1.0263
 8483TIP3    H246941   5.997   3.750  13.451 -1.4262 -0.6113 -0.5708
 8484TIP3   OH246942   0.152   6.476  13.519 -0.4955  0.2546 -0.6804
 8484TIP3    H146943   0.169   6.385  13.497 -0.1008 -0.1252  1.0315
 8484TIP3    H246944   0.160   6.523  13.436  2.3142 -0.8391 -1.1291
 8485TIP3   OH246945   3.198   1.876  14.311  0.2093  0.2700 -0.5385
 8485TIP3    H146946   3.284   1.844  14.340  0.2868  0.3917 -0.6337
 8485TIP3    H246947   3.170   1.811  14.246  0.2679  0.2765 -0.5708
 8486TIP3   OH246948   5.002   6.797   5.315  0.3061 -0.5069  0.6998
 8486TIP3    H146949   4.998   6.819   5.408  0.3836  0.4754  0.4754
 8486TIP3    H246950   5.093   6.813   5.290 -0.3731  2.3813 -0.2778
 8487TIP3   OH246951   4.524   1.544  15.502  0.3846 -0.2655  0.6340
 8487TIP3    H146952   4.501   1.593  15.424 -0.4907 -0.4342  0.7770
 8487TIP3    H246953   4.581   1.602  15.551  1.1700 -0.2675 -0.2572
 8488TIP3   OH246954   6.504   1.788  12.797  0.2286 -0.3495  0.0213
 8488TIP3    H146955   6.433   1.738  12.837 -0.4022  0.3471 -0.2137
 8488TIP3    H246956   6.539   1.731  12.729 -2.2683  0.5201 -2.1220
 8489TIP3   OH246957   0.080   2.211  16.794  0.4858 -0.1966 -0.4032
 8489TIP3    H146958   0.129   2.272  16.739 -1.9270  2.1643 -0.1828
 8489TIP3    H246959   0.098   2.240  16.884 -0.9893  0.5034 -0.3101
 8490TIP3   OH246960   0.649   3.119  11.045  0.2701  0.0110  0.0490
 8490TIP3    H146961   0.738   3.153  11.046 -0.0859  1.0321 -0.7467
 8490TIP3    H246962   0.596   3.191  11.010 -0.9141 -0.4639  0.7946
 8491TIP3   OH246963   5.985   6.353  16.320 -0.5163 -0.2207  0.0679
 8491TIP3    H146964   6.081   6.356  16.325 -0.5057  2.2936 -0.2164
 8491TIP3    H246965   5.958   6.323  16.407  0.5091 -1.1707  0.0842
 8492TIP3   OH246966   2.909   0.232  17.035 -0.1800  0.1771  0.0711
 8492TIP3    H146967   2.985   0.288  17.050  0.3136 -0.8398  1.7221
 8492TIP3    H246968   2.845   0.260  17.100 -0.7945  0.2986 -0.5799
 8493TIP3   OH246969   5.125   5.458   0.290 -0.1483 -0.1644 -0.7120
 8493TIP3    H146970   5.052   5.405   0.259  0.4014 -1.2877 -0.1518
 8493TIP3    H246971   5.135   5.432   0.382  0.1056  0.9603 -0.4099
 8494TIP3   OH246972   3.135   5.762  12.644  0.0382 -0.4047 -0.3658
 8494TIP3    H146973   3.150   5.830  12.710 -2.0412 -1.7325  1.6492
 8494TIP3    H246974   3.056   5.790  12.597 -0.0311 -0.7378 -0.4584
 8495TIP3   OH246975   1.872   4.555  11.241  0.2419  0.2589  0.5103
 8495TIP3    H146976   1.903   4.465  11.250  0.3671  0.2271 -0.2091
 8495TIP3    H246977   1.845   4.563  11.149  0.8955  1.1634  0.3765
 8496TIP3   OH246978   0.386   0.258   1.150 -0.0810 -0.0064 -0.5534
 8496TIP3    H146979   0.433   0.341   1.144 -1.0448  0.6642  0.6339
 8496TIP3    H246980   0.294   0.283   1.145 -0.4292 -0.8612  0.9651
 8497TIP3   OH246981   0.476   2.464  14.194 -0.9734 -0.0837  0.0530
 8497TIP3    H146982   0.450   2.540  14.141  2.1478  1.9148  1.0884
 8497TIP3    H246983   0.442   2.483  14.281  1.6190  1.4104  0.8565
 8498TIP3   OH246984   3.814   2.815   2.496 -0.2866 -0.3146 -0.6185
 8498TIP3    H146985   3.900   2.791   2.461 -0.6568 -0.9251 -1.1302
 8498TIP3    H246986   3.758   2.826   2.419 -0.3978  1.2305 -0.3481
 8499TIP3   OH246987   3.837   5.364  15.954 -0.1607 -0.4736  0.1102
 8499TIP3    H146988   3.797   5.449  15.937  0.6819 -0.1083 -0.1040
 8499TIP3    H246989   3.906   5.382  16.018 -0.0943 -1.0280  0.2045
 8500TIP3   OH246990   6.481   4.121  16.193  0.2823 -0.1274  0.5562
 8500TIP3    H146991   6.502   4.200  16.143  2.9557 -0.3203  1.2145
 8500TIP3    H246992   6.395   4.094  16.161  0.2478  1.8314 -1.2042
 8501TIP3   OH246993   3.755   0.339   6.169  0.6092 -0.0890 -0.1853
 8501TIP3    H146994   3.735   0.344   6.075  0.2968  1.8137 -0.0661
 8501TIP3    H246995   3.837   0.388   6.178 -0.4455  1.6044  0.7804
 8502TIP3   OH246996   6.401   0.627   3.179 -0.4698  0.2111 -0.2989
 8502TIP3    H146997   6.490   0.597   3.193  0.0124  1.1980 -1.1170
 8502TIP3    H246998   6.409   0.723   3.173 -2.1933  0.9788  4.6926
 8503TIP3   OH246999   4.595   4.886  10.789  0.1730  0.0455  0.3869
 8503TIP3    H147000   4.660   4.937  10.740  0.0273 -1.1596 -1.1288
 8503TIP3    H247001   4.556   4.949  10.849  2.0201  1.0405  0.6292
 8504TIP3   OH247002   4.603   2.723  13.531 -0.1733  0.6404  0.5075
 8504TIP3    H147003   4.676   2.784  13.525 -0.9994  1.4946 -2.0581
 8504TIP3    H247004   4.540   2.766  13.588 -0.4912  1.9669 -0.7874
 8505TIP3   OH247005   3.623   4.632  15.477  0.4597  0.0818  0.3766
 8505TIP3    H147006   3.569   4.701  15.515  2.6932  2.9631 -1.1593
 8505TIP3    H247007   3.688   4.613  15.544  0.5321  0.3679  0.3908
 8506TIP3   OH247008   2.265   4.722   1.577 -0.5345  0.6663  1.4250
 8506TIP3    H147009   2.292   4.630   1.572 -0.3773  0.7190 -3.1803
 8506TIP3    H247010   2.190   4.722   1.637 -1.5748 -2.8110  0.3535
 8507TIP3   OH247011   4.314   5.380   0.399 -0.3845 -0.1073 -0.7107
 8507TIP3    H147012   4.347   5.295   0.369 -1.1642 -0.5768 -0.2332
 8507TIP3    H247013   4.384   5.441   0.374  0.9358 -1.0925  0.3859
 8508TIP3   OH247014   4.443   0.544  15.421 -0.4959  0.0957  0.1605
 8508TIP3    H147015   4.510   0.591  15.370 -0.9187  1.4292  0.8017
 8508TIP3    H247016   4.370   0.606  15.427  0.1145  0.6930  3.7508
 8509TIP3   OH247017   1.012   4.988   1.395 -0.0856  0.6844  0.7460
 8509TIP3    H147018   1.095   5.037   1.394  0.1998  0.1887 -0.1133
 8509TIP3    H247019   1.032   4.910   1.447  0.7401 -0.6765 -1.4596
 8510TIP3   OH247020   1.281   0.114   0.080 -0.0829  0.0626  0.1672
 8510TIP3    H147021   1.286   0.209   0.068 -0.1743  0.0125 -0.2994
 8510TIP3    H247022   1.191   0.092   0.056  0.0384 -0.1873 -0.0654
 8511TIP3   OH247023   0.946   3.596  13.474 -0.3902 -0.2996 -0.0996
 8511TIP3    H147024   0.896   3.523  13.438 -1.8512 -0.0912  1.3993
 8511TIP3    H247025   0.929   3.669  13.413  0.6427 -1.0234 -1.3006
 8512TIP3   OH247026   6.577   0.479   3.597  0.6742 -0.2218  0.0477
 8512TIP3    H147027   6.542   0.568   3.592  1.3990  0.1627  1.3493
 8512TIP3    H247028   6.667   0.486   3.567  0.8778 -0.4196  0.5907
 8513TIP3   OH247029   2.100   6.271  15.779 -0.3541  0.4167  0.4139
 8513TIP3    H147030   2.077   6.358  15.812 -0.0438  0.1685  1.3181
 8513TIP3    H247031   2.195   6.275  15.767 -0.5653  0.8358 -1.5025
 8514TIP3   OH247032   2.732   6.384  14.404  0.1577 -0.3162  0.5163
 8514TIP3    H147033   2.706   6.413  14.317  1.2626  0.5571  0.4498
 8514TIP3    H247034   2.687   6.301  14.417 -0.1038 -0.3991 -0.8439
 8515TIP3   OH247035   3.355   2.653  16.262  0.9821 -0.1112 -0.3607
 8515TIP3    H147036   3.444   2.616  16.262  0.1911 -2.3375 -2.5469
 8515TIP3    H247037   3.328   2.650  16.354  2.4671 -1.2787  0.0883
 8516TIP3   OH247038   1.260   4.825  13.069  0.0410  0.5950  0.2247
 8516TIP3    H147039   1.326   4.849  13.133  0.6187 -0.6652  0.1210
 8516TIP3    H247040   1.177   4.852  13.108  0.5592  1.7306  0.5736
 8517TIP3   OH247041   1.586   4.562  13.946 -0.7159 -0.1820 -0.6157
 8517TIP3    H147042   1.510   4.610  13.913 -1.1279 -0.5691 -0.2489
 8517TIP3    H247043   1.607   4.605  14.029 -1.4774 -1.0017  0.0309
 8518TIP3   OH247044   5.248   2.487   3.829  0.0816  0.1067 -0.0880
 8518TIP3    H147045   5.208   2.514   3.746  1.8921  1.4709 -0.5667
 8518TIP3    H247046   5.338   2.466   3.807  0.8541  1.3723  1.6715
 8519TIP3   OH247047   6.426   1.863   4.860 -0.3875  0.0602  0.4693
 8519TIP3    H147048   6.483   1.796   4.822  0.3205  0.8092  0.1850
 8519TIP3    H247049   6.454   1.870   4.951  0.2778  0.7249  0.2236
 8520TIP3   OH247050   2.717   0.109   5.909 -0.1158 -0.4590 -0.0539
 8520TIP3    H147051   2.758   0.181   5.860  2.5648 -1.8238 -0.0256
 8520TIP3    H247052   2.723   0.135   6.000 -3.4267  1.2585 -0.2034
 8521TIP3   OH247053   4.702   4.128   1.443  0.0538  0.1019  0.3965
 8521TIP3    H147054   4.671   4.163   1.360  0.3879  0.0272  0.2403
 8521TIP3    H247055   4.676   4.194   1.508 -2.2109 -0.8815  0.5555
 8522TIP3   OH247056   4.034   6.096  12.898  0.3185 -0.8550  0.5044
 8522TIP3    H147057   4.004   6.162  12.960 -0.1251 -1.4109  0.8896
 8522TIP3    H247058   4.117   6.064  12.935  0.9537  0.0325 -0.0931
 8523TIP3   OH247059   1.201   6.288  16.819 -0.5599 -0.1474 -0.0618
 8523TIP3    H147060   1.128   6.236  16.785  0.1449 -0.4180 -1.2345
 8523TIP3    H247061   1.193   6.372  16.774  0.7372 -0.7134 -1.4621
 8524TIP3   OH247062   1.467   5.073   6.447 -0.2179  0.2449 -0.1184
 8524TIP3    H147063   1.381   5.105   6.472 -0.1129  0.4901 -0.0659
 8524TIP3    H247064   1.490   5.009   6.514  0.2461  1.2072  0.6640
 8525TIP3   OH247065   4.753   1.168   3.296  0.3293 -0.0955  0.2099
 8525TIP3    H147066   4.761   1.106   3.223  0.4071  0.4977 -0.3016
 8525TIP3    H247067   4.835   1.219   3.293  0.8787 -0.8737  1.4875
 8526TIP3   OH247068   2.854   1.914   5.680 -0.5334 -0.0335  0.0999
 8526TIP3    H147069   2.820   1.912   5.591  0.8951  1.3394 -0.5306
 8526TIP3    H247070   2.812   1.990   5.720 -3.3341 -2.1840  1.6189
 8527TIP3   OH247071   4.018   2.314   1.932 -0.7913  0.1049  0.0168
 8527TIP3    H147072   3.923   2.298   1.932 -0.7449 -0.2948  1.5779
 8527TIP3    H247073   4.025   2.407   1.910 -1.5421  0.1064 -0.2632
 8528TIP3   OH247074   5.298   6.486   4.191  0.0512 -0.0288 -0.1302
 8528TIP3    H147075   5.385   6.470   4.227 -0.3239 -1.2156  0.2663
 8528TIP3    H247076   5.246   6.412   4.219 -1.0230  0.5205 -0.6239
 8529TIP3   OH247077   2.923   2.351   3.228  0.5566  0.1044  0.1467
 8529TIP3    H147078   2.979   2.278   3.204  0.2405 -0.1507  0.1730
 8529TIP3    H247079   2.852   2.311   3.279  0.2002  0.3830 -0.1287
 8530TIP3   OH247080   5.487   5.253   3.874 -0.3707  0.4734 -0.3737
 8530TIP3    H147081   5.484   5.308   3.953 -3.3099  0.4444 -0.3420
 8530TIP3    H247082   5.455   5.309   3.804  1.6859  0.3264 -1.5072
 8531TIP3   OH247083   6.726   5.025   2.479  0.0114 -0.2365  0.3587
 8531TIP3    H147084   6.721   4.931   2.460  1.6983 -0.1442 -0.8125
 8531TIP3    H247085   6.819   5.041   2.495 -0.2577  1.2332  0.5820
 8532TIP3   OH247086   4.076   6.449  15.573 -0.1754  0.1331 -0.7414
 8532TIP3    H147087   4.137   6.499  15.628 -0.7509  0.4967 -0.4249
 8532TIP3    H247088   4.010   6.513  15.546 -0.1381 -0.1438 -1.5044
 8533TIP3   OH247089   1.134   2.433   4.343 -0.1174 -0.6466 -0.1847
 8533TIP3    H147090   1.065   2.410   4.406  0.2600  0.1128  0.5228
 8533TIP3    H247091   1.157   2.350   4.302 -0.5793 -1.1104  0.4721
 8534TIP3   OH247092   2.221   0.990  13.600  0.8208 -0.3674 -0.6050
 8534TIP3    H147093   2.263   0.918  13.552  0.0425 -0.9806 -0.3834
 8534TIP3    H247094   2.204   0.955  13.687 -0.4666 -0.2703 -0.7908
 8535TIP3   OH247095   0.926   0.944  13.005 -0.1703  0.1626 -0.3735
 8535TIP3    H147096   0.990   1.013  13.024  0.3709 -1.0481  2.9070
 8535TIP3    H247097   0.846   0.974  13.046 -1.0060  0.3971 -2.0818
 8536TIP3   OH247098   6.462   1.339  16.840 -0.1012 -0.0546 -0.2272
 8536TIP3    H147099   6.426   1.409  16.785  1.3706 -0.2623 -1.5391
 8536TIP3    H247100   6.388   1.308  16.891 -0.8024  2.3922  0.3384
 8537TIP3   OH247101   2.923   3.372   1.488  0.0163 -0.6681  0.2682
 8537TIP3    H147102   3.018   3.369   1.495 -0.0491 -1.9190  0.8256
 8537TIP3    H247103   2.892   3.370   1.578 -0.5590 -1.5086  0.0595
 8538TIP3   OH247104   0.173   2.481  11.168  0.2122  0.3137  0.1401
 8538TIP3    H147105   0.197   2.563  11.211 -0.1512 -0.1454  1.2491
 8538TIP3    H247106   0.178   2.501  11.074  0.3059  1.5432  0.3908
 8539TIP3   OH247107   0.838   6.063   2.824  0.2461  0.5306  0.1392
 8539TIP3    H147108   0.781   6.003   2.776  1.7427 -2.5953  1.9191
 8539TIP3    H247109   0.778   6.122   2.870 -1.5273 -1.4433  0.5006
 8540TIP3   OH247110   3.447   0.366  12.920  0.6640  0.5829 -0.5804
 8540TIP3    H147111   3.533   0.333  12.896  0.7200 -0.2788  0.6515
 8540TIP3    H247112   3.405   0.389  12.837  1.8307  0.3983 -1.2390
 8541TIP3   OH247113   1.216   2.039  15.522  0.2580 -0.6515  0.2269
 8541TIP3    H147114   1.199   1.945  15.520 -1.1124 -0.6406  3.8061
 8541TIP3    H247115   1.305   2.047  15.558  0.6029 -0.5453 -0.6241
 8542TIP3   OH247116   6.665   0.496  16.719 -0.3896  0.0816 -0.1050
 8542TIP3    H147117   6.744   0.471  16.768  0.1722  0.2696 -0.8892
 8542TIP3    H247118   6.674   0.591  16.706 -0.6992  0.0879 -0.2787
 8543TIP3   OH247119   3.083   0.280   6.466 -0.2030 -0.0568  0.0360
 8543TIP3    H147120   3.085   0.185   6.451  1.4039  0.1463 -1.3817
 8543TIP3    H247121   3.160   0.313   6.419 -0.9679  2.0096  0.1410
 8544TIP3   OH247122   2.931   0.933  11.233  0.2402  0.1197  0.3530
 8544TIP3    H147123   2.937   0.982  11.151 -0.4561 -0.3937 -0.0164
 8544TIP3    H247124   2.840   0.943  11.261  1.0789  2.6616  2.5986
 8545TIP3   OH247125   6.401   5.378  15.307 -0.1998 -0.5554  0.5929
 8545TIP3    H147126   6.440   5.290  15.308 -1.1388 -1.1016 -1.8465
 8545TIP3    H247127   6.309   5.363  15.285 -0.6305  0.9934  1.2034
 8546TIP3   OH247128   2.126   4.904  10.891 -0.3004 -0.4913 -0.2611
 8546TIP3    H147129   2.086   4.818  10.873  0.5382 -0.8108 -0.6428
 8546TIP3    H247130   2.220   4.890  10.880 -0.1105  0.3679  0.1549
 8547TIP3   OH247131   2.052   3.361   1.721 -0.0920 -0.1131  0.3514
 8547TIP3    H147132   2.073   3.272   1.694  0.8060  0.6543 -1.6674
 8547TIP3    H247133   1.997   3.395   1.650 -1.9426  0.3958  1.9407
 8548TIP3   OH247134   5.271   2.993  15.045  0.3624  0.0910  0.0362
 8548TIP3    H147135   5.210   2.999  15.119 -2.5015  0.4894 -2.1721
 8548TIP3    H247136   5.324   3.072  15.052  1.7345 -0.9166  2.7816
 8549TIP3   OH247137   4.030   0.358  10.799  0.4024 -0.6207  0.3744
 8549TIP3    H147138   4.095   0.399  10.743  0.8406 -0.8004  0.7440
 8549TIP3    H247139   4.005   0.278  10.754 -0.3152 -0.0522 -0.2578
 8550TIP3   OH247140   0.175   1.829  15.414 -0.0939 -0.4449 -0.0450
 8550TIP3    H147141   0.198   1.830  15.507 -1.1877  0.7174  0.2486
 8550TIP3    H247142   0.232   1.895  15.374  0.7474 -1.3220 -0.3067
 8551TIP3   OH247143   4.337   5.971  11.811 -0.7744  0.2591 -0.0326
 8551TIP3    H147144   4.333   5.876  11.824  4.7734 -0.3276 -0.2022
 8551TIP3    H247145   4.324   5.983  11.717  2.0713 -0.9455 -0.6755
 8552TIP3   OH247146   2.988   0.684   1.262  0.1732 -0.1936  0.4759
 8552TIP3    H147147   2.962   0.776   1.267 -1.2956 -0.5210 -0.4269
 8552TIP3    H247148   2.960   0.656   1.175  2.0963 -1.0825  0.0802
 8553TIP3   OH247149   3.998   2.813   0.475  0.4871  0.1015  0.1502
 8553TIP3    H147150   3.940   2.855   0.412  0.6591 -0.0925 -0.1440
 8553TIP3    H247151   3.999   2.871   0.551 -0.4817 -0.1382  0.3564
 8554TIP3   OH247152   1.788   5.889   4.033 -0.0598 -0.5960  0.7151
 8554TIP3    H147153   1.704   5.875   4.078 -0.6233 -2.1933 -0.7088
 8554TIP3    H247154   1.837   5.946   4.091 -2.0945  0.3187  1.6537
 8555TIP3   OH247155   1.574   5.216  13.284  0.1998  0.1709 -0.3574
 8555TIP3    H147156   1.610   5.255  13.204 -2.0457  1.6879 -0.7304
 8555TIP3    H247157   1.521   5.285  13.322 -2.2376 -1.8160  0.1478
 8556TIP3   OH247158   5.840   2.594  16.890 -0.4889 -0.2590  0.2310
 8556TIP3    H147159   5.914   2.625  16.837  0.0015  0.0850  1.0851
 8556TIP3    H247160   5.879   2.531  16.951 -1.0129 -0.5442  0.2762
 8557TIP3   OH247161   6.044   3.305  11.614  0.4578  0.6480 -0.4528
 8557TIP3    H147162   6.134   3.274  11.600  0.3278 -0.0853  0.2282
 8557TIP3    H247163   6.011   3.250  11.685 -0.6248  0.7352 -0.8715
 8558TIP3   OH247164   3.763   5.339   3.051 -0.1415 -0.0826 -0.6868
 8558TIP3    H147165   3.843   5.334   3.103 -0.9804  1.8144  0.9150
 8558TIP3    H247166   3.701   5.282   3.097  0.1987 -1.3962 -1.8130
 8559TIP3   OH247167   4.647   0.655  13.196 -0.1121 -0.6223 -0.2097
 8559TIP3    H147168   4.733   0.671  13.159  0.9029  0.2981  2.3171
 8559TIP3    H247169   4.612   0.582  13.145  2.4529 -1.5101 -0.8580
 8560TIP3   OH247170   3.190   6.551   3.065 -0.6557  0.0973 -0.2462
 8560TIP3    H147171   3.149   6.637   3.051 -0.5386  0.9942  3.6227
 8560TIP3    H247172   3.252   6.566   3.137  3.3363 -2.2027 -2.8501
 8561TIP3   OH247173   6.404   0.331  15.444  0.0357  0.5900 -0.5093
 8561TIP3    H147174   6.430   0.244  15.474 -1.6449  0.6810  1.4017
 8561TIP3    H247175   6.487   0.377  15.429  0.9653 -1.4818 -2.2145
 8562TIP3   OH247176   1.698   3.516  15.003  0.2475 -0.0441  0.2164
 8562TIP3    H147177   1.634   3.449  14.982  0.3022 -0.0117 -0.0666
 8562TIP3    H247178   1.748   3.528  14.922  0.7644 -0.2364  0.5015
 8563TIP3   OH247179   2.137   5.302   2.524  0.2170 -0.8996  0.0782
 8563TIP3    H147180   2.070   5.234   2.522 -1.0786  0.3375 -0.3536
 8563TIP3    H247181   2.128   5.348   2.441  1.8579 -0.9082 -0.1362
 8564TIP3   OH247182   2.718   1.003  16.820 -0.1411 -0.2937  0.1017
 8564TIP3    H147183   2.777   0.983  16.747  1.1398  0.8997  0.7613
 8564TIP3    H247184   2.695   1.095  16.807 -0.6904 -0.3480  0.6692
 8565TIP3   OH247185   3.928   1.814  12.062  0.1019  0.3965 -0.1989
 8565TIP3    H147186   3.939   1.887  12.123  0.7232  0.8386 -0.8172
 8565TIP3    H247187   3.998   1.826  11.998  0.6089 -1.1046  0.0396
 8566TIP3   OH247188   5.053   3.569  12.005 -0.4509 -0.0968  0.3454
 8566TIP3    H147189   5.111   3.621  11.948 -0.7231 -0.4348 -0.2487
 8566TIP3    H247190   5.088   3.583  12.093 -0.2412  0.7324  0.1419
 8567TIP3   OH247191   2.394   2.768  13.901 -0.2315 -0.1481  0.2679
 8567TIP3    H147192   2.300   2.761  13.918 -0.1387  1.5814  1.6633
 8567TIP3    H247193   2.434   2.712  13.967 -0.2450 -1.1976 -0.5699
 8568TIP3   OH247194   2.584   1.236  11.509 -0.1397 -0.3537 -0.3931
 8568TIP3    H147195   2.598   1.323  11.471  0.0480  1.3705  3.1775
 8568TIP3    H247196   2.668   1.191  11.500  0.1192  0.2883 -1.2618
 8569TIP3   OH247197   6.295   1.068   0.304  0.1912 -0.0557  0.1684
 8569TIP3    H147198   6.310   1.069   0.209 -1.0441 -2.4687 -0.1300
 8569TIP3    H247199   6.305   1.159   0.331 -0.4370  0.8826 -2.4618
 8570TIP3   OH247200   5.820   2.470  13.873  0.1333  0.3746 -0.2147
 8570TIP3    H147201   5.907   2.502  13.851  0.0255  0.6040 -0.3070
 8570TIP3    H247202   5.833   2.377  13.894  0.5586  0.6355  0.7286
 8571TIP3   OH247203   3.693   1.236   1.048  0.2650  0.2954 -0.1379
 8571TIP3    H147204   3.668   1.155   1.005 -0.0323  0.3742 -0.1114
 8571TIP3    H247205   3.713   1.296   0.977 -0.9821  0.6718 -0.1900
 8572TIP3   OH247206   0.522   6.825  12.700  0.2019  0.5789 -0.1746
 8572TIP3    H147207   0.526   6.767  12.625 -1.5421 -2.2753  1.7528
 8572TIP3    H247208   0.604   6.810  12.747 -0.4681 -0.8221  0.5957
 8573TIP3   OH247209   6.675   1.224  14.035  0.1760 -0.0203  0.4291
 8573TIP3    H147210   6.765   1.205  14.010 -0.2553 -2.6852  0.6280
 8573TIP3    H247211   6.677   1.225  14.131  0.0063  0.0228  0.4322
 8574TIP3   OH247212   5.065   2.994   0.572  0.0307  0.4086 -0.6334
 8574TIP3    H147213   5.079   2.923   0.634  0.1864  1.1859  0.2463
 8574TIP3    H247214   5.136   2.984   0.508  0.1801 -0.0884 -0.3949
 8575TIP3   OH247215   5.718   2.020   4.305 -0.5501  0.1346  0.5056
 8575TIP3    H147216   5.802   2.062   4.286 -1.3279  0.4877 -2.7315
 8575TIP3    H247217   5.728   1.930   4.273 -0.9043 -0.3002  1.5864
 8576TIP3   OH247218   4.694   1.963   5.725 -0.2507  0.4848  0.2674
 8576TIP3    H147219   4.774   1.920   5.695 -0.2442  0.0345  0.8877
 8576TIP3    H247220   4.642   1.892   5.764 -1.3593  0.6030 -0.9347
 8577TIP3   OH247221   5.535   6.264  13.376 -0.7088 -0.3421 -0.9034
 8577TIP3    H147222   5.460   6.295  13.326  0.4212  2.9207 -0.8412
 8577TIP3    H247223   5.597   6.233  13.310 -1.0764 -0.5358 -1.1588
 8578TIP3   OH247224   0.401   6.002  15.561 -0.7712 -0.4373  0.7493
 8578TIP3    H147225   0.473   6.036  15.615  0.1087 -1.6223  0.3850
 8578TIP3    H247226   0.322   6.024  15.609 -0.1412  0.5149  1.3899
 8579TIP3   OH247227   2.838   6.646  13.982  0.3312 -0.0735 -0.5003
 8579TIP3    H147228   2.903   6.689  14.038 -1.0792  1.3920  0.1010
 8579TIP3    H247229   2.854   6.681  13.895 -0.3982  1.2827 -0.1284
 8580TIP3   OH247230   3.736   5.395   3.508 -0.3810 -0.4909 -0.0316
 8580TIP3    H147231   3.786   5.470   3.475 -0.9198  0.1698  0.6307
 8580TIP3    H247232   3.788   5.319   3.482 -1.1599 -0.1016 -3.1606
 8581TIP3   OH247233   1.749   2.587  13.495  0.0034  0.5386 -0.7868
 8581TIP3    H147234   1.776   2.650  13.429  1.4719  1.0763  0.2812
 8581TIP3    H247235   1.830   2.542  13.521 -0.2636  1.2504  1.5496
 8582TIP3   OH247236   1.284   5.095   1.319 -0.1735 -0.2532  0.0764
 8582TIP3    H147237   1.352   5.048   1.271 -1.0085 -0.5258 -0.8806
 8582TIP3    H247238   1.281   5.182   1.278 -1.6066 -0.8281 -1.1238
 8583TIP3   OH247239   1.921   6.293  10.432  0.2346  0.1612 -0.5118
 8583TIP3    H147240   1.852   6.256  10.377  1.3630  0.8686 -2.5072
 8583TIP3    H247241   1.986   6.327  10.370  1.4149  1.3472  1.2693
 8584TIP3   OH247242   2.800   2.130  15.092  0.4529  0.1266 -0.1439
 8584TIP3    H147243   2.880   2.079  15.103  1.0697  0.8753 -0.9649
 8584TIP3    H247244   2.739   2.069  15.050  0.3824 -0.6242  1.0183
 8585TIP3   OH247245   4.074   4.836   0.326 -0.1249  0.4979 -0.3213
 8585TIP3    H147246   4.144   4.784   0.287 -0.7089 -0.6213  0.0806
 8585TIP3    H247247   4.105   4.926   0.321  1.7451 -0.0530  0.7125
 8586TIP3   OH247248   3.899   0.086  13.774 -0.6172 -0.1667  0.1125
 8586TIP3    H147249   3.918   0.132  13.692  0.3850 -0.2746  0.2748
 8586TIP3    H247250   3.807   0.059  13.766 -0.6307  0.1302 -0.8194
 8587TIP3   OH247251   2.155   0.393   2.898 -0.5275  0.1944  0.4086
 8587TIP3    H147252   2.188   0.363   2.983  0.4835 -0.1303 -0.0903
 8587TIP3    H247253   2.174   0.321   2.838 -1.4768  0.3117 -0.0555
 8588TIP3   OH247254   2.035   2.535  11.587 -0.0169 -0.5560 -0.2780
 8588TIP3    H147255   2.056   2.454  11.542 -0.0857 -0.6398 -0.1610
 8588TIP3    H247256   2.116   2.587  11.582  0.6942 -1.4036  1.3100
 8589TIP3   OH247257   4.167   6.488   1.065  0.2316 -0.1502 -0.4519
 8589TIP3    H147258   4.190   6.548   0.994 -1.2998  0.4220 -0.4883
 8589TIP3    H247259   4.101   6.430   1.027 -0.0057 -0.3563  0.2610
 8590TIP3   OH247260   5.069   5.128  15.318 -0.2942 -0.2256 -0.1098
 8590TIP3    H147261   5.020   5.061  15.271  0.5448 -0.5537 -0.5289
 8590TIP3    H247262   5.108   5.082  15.392 -0.0237 -0.1255 -0.1888
 8591TIP3   OH247263   5.946   3.865   4.064 -0.5043 -0.1455  0.5807
 8591TIP3    H147264   5.926   3.910   4.146 -3.5169  1.1462 -0.7019
 8591TIP3    H247265   5.960   3.936   4.001  1.3454 -1.1016 -0.1432
 8592TIP3   OH247266   4.094   6.792   1.763  0.7455  0.4357 -0.4984
 8592TIP3    H147267   4.157   6.820   1.829 -0.3423  1.1891  0.2785
 8592TIP3    H247268   4.025   6.749   1.814  0.3467  0.1697 -1.2516
 8593TIP3   OH247269   6.058   6.564   2.895  0.0300  0.0513  0.1964
 8593TIP3    H147270   5.988   6.559   2.830 -0.4283  2.4066  0.4107
 8593TIP3    H247271   6.014   6.597   2.974  1.3017  1.2255  0.4471
 8594TIP3   OH247272   4.290   6.682   0.529 -0.8153 -0.0374  0.5647
 8594TIP3    H147273   4.327   6.644   0.609  1.2225  1.0535  0.2279
 8594TIP3    H247274   4.250   6.764   0.559 -2.0706 -0.6912  0.7587
 8595TIP3   OH247275   1.381   2.816  16.249  0.3127  0.4747  0.3684
 8595TIP3    H147276   1.443   2.862  16.192 -0.1161  0.9243  0.2492
 8595TIP3    H247277   1.386   2.863  16.333 -0.2125  0.8209  0.2108
 8596TIP3   OH247278   0.703   4.133  16.610 -0.4509 -0.5299  0.2265
 8596TIP3    H147279   0.618   4.161  16.575  0.2242  1.5654  0.1043
 8596TIP3    H247280   0.749   4.097  16.535 -0.8899 -0.8748  0.1120
 8597TIP3   OH247281   3.457   0.071  12.858  0.7390 -0.0485  0.0042
 8597TIP3    H147282   3.452   0.125  12.937 -0.5526 -0.7127  0.4052
 8597TIP3    H247283   3.395   0.113  12.797  0.9233 -0.1561 -0.2567
 8598TIP3   OH247284   3.170   4.894   0.381  0.2923 -0.0331  0.5299
 8598TIP3    H147285   3.238   4.922   0.320  1.5994 -1.0075  1.4961
 8598TIP3    H247286   3.189   4.802   0.398 -1.0048 -0.2056  1.1880
 8599TIP3   OH247287   3.913   3.478   5.538 -0.0515  0.3733  0.2573
 8599TIP3    H147288   3.943   3.507   5.624 -1.7064  1.3162  0.5456
 8599TIP3    H247289   3.937   3.549   5.479  1.6535 -0.5443 -0.2210
 8600TIP3   OH247290   2.486   0.645  12.871  0.0848  0.3777 -0.1840
 8600TIP3    H147291   2.481   0.606  12.958  2.1615 -1.0088 -0.6144
 8600TIP3    H247292   2.456   0.735  12.883  0.8864  0.4000  2.0975
 8601TIP3   OH247293   4.498   2.602  11.084  0.5409  0.1825 -0.4448
 8601TIP3    H147294   4.518   2.660  11.011 -0.6715 -0.9919 -1.7904
 8601TIP3    H247295   4.402   2.605  11.092  0.6236  0.0679  0.9328
 8602TIP3   OH247296   5.487   0.530  12.829 -0.1596  0.2087 -0.2964
 8602TIP3    H147297   5.511   0.621  12.812 -0.5403  0.2801 -0.4677
 8602TIP3    H247298   5.569   0.488  12.856 -0.2328  0.8921  1.0592
 8603TIP3   OH247299   6.748   5.769   3.055 -0.1083 -0.3987 -0.1159
 8603TIP3    H147300   6.733   5.696   3.115 -1.6699 -0.6048 -0.7132
 8603TIP3    H247301   6.823   5.742   3.002  0.5316 -0.7264  0.9212
 8604TIP3   OH247302   6.185   6.577   4.221  0.1135  0.3364  0.0185
 8604TIP3    H147303   6.163   6.659   4.265  0.6582 -0.0859  1.1033
 8604TIP3    H247304   6.134   6.580   4.140 -0.7510  1.2318  0.5590
 8605TIP3   OH247305   3.902   2.903   3.279  0.4655  0.2949  0.1880
 8605TIP3    H147306   3.989   2.864   3.286  0.0355 -0.9349 -0.8758
 8605TIP3    H247307   3.856   2.872   3.356 -0.2304 -2.4064 -1.1746
 8606TIP3   OH247308   2.524   2.858  13.092 -0.1443 -0.3734 -0.8102
 8606TIP3    H147309   2.558   2.834  13.178  0.4681  0.5580 -0.7656
 8606TIP3    H247310   2.437   2.820  13.088 -0.3945  0.0458  0.4538
 8607TIP3   OH247311   6.457   6.502  14.523  0.1818 -0.0130  0.1771
 8607TIP3    H147312   6.453   6.592  14.489  0.4705  0.5089  1.4617
 8607TIP3    H247313   6.374   6.463  14.497  0.8621 -0.0681 -2.1722
 8608TIP3   OH247314   0.230   6.280   4.442 -0.1914  0.1383 -0.0202
 8608TIP3    H147315   0.305   6.297   4.385 -1.7121 -2.2512 -2.9791
 8608TIP3    H247316   0.169   6.352   4.423 -0.0219  0.2427 -0.1706
 8609TIP3   OH247317   6.735   0.940  12.791 -0.1692 -0.0052  0.0198
 8609TIP3    H147318   6.697   0.988  12.717 -0.0057 -0.4419 -0.3512
 8609TIP3    H247319   6.827   0.965  12.791 -0.4478  1.1823  1.0200
 8610TIP3   OH247320   3.550   1.324   3.259  0.6601 -0.0755 -0.1652
 8610TIP3    H147321   3.632   1.318   3.210  0.6117 -2.4064 -0.0359
 8610TIP3    H247322   3.569   1.287   3.345 -0.5455 -0.8118 -0.1878
 8611TIP3   OH247323   0.400   6.851   5.852 -0.1288  0.0575  0.1657
 8611TIP3    H147324   0.479   6.869   5.800 -0.9122 -0.2876 -1.1867
 8611TIP3    H247325   0.427   6.785   5.916  0.3653 -1.0474 -1.1535
 8612TIP3   OH247326   3.405   1.233  13.562  0.1722  0.4828  0.5313
 8612TIP3    H147327   3.348   1.294  13.610  0.6581  0.1878  1.5090
 8612TIP3    H247328   3.348   1.195  13.495 -1.0720 -0.4767  2.0512
 8613TIP3   OH247329   0.062   3.977  14.740 -0.3736  0.3069  0.3285
 8613TIP3    H147330   0.074   3.949  14.649  2.4141  0.6028  0.5203
 8613TIP3    H247331  -0.032   3.993  14.748 -0.9676 -1.5599 -1.9330
 8614TIP3   OH247332   6.186   0.724   0.499  0.4222  0.4095  0.3669
 8614TIP3    H147333   6.147   0.791   0.443 -0.7082 -1.2006 -0.8639
 8614TIP3    H247334   6.112   0.683   0.543  0.9862 -0.6365  0.3824
 8615TIP3   OH247335   6.008   3.371   4.695 -0.1731 -0.4323 -0.1472
 8615TIP3    H147336   5.932   3.314   4.705  0.8269 -1.7964 -0.0043
 8615TIP3    H247337   6.047   3.343   4.612  1.2050 -1.0751  0.6866
 8616TIP3   OH247338   4.199   4.438  12.548 -0.7893  0.0603 -0.2144
 8616TIP3    H147339   4.188   4.345  12.570 -1.1896 -0.0803 -0.9815
 8616TIP3    H247340   4.287   4.460  12.578 -0.9601 -0.3775  0.6298
 8617TIP3   OH247341   1.360   6.034   4.598  0.3394 -0.1985  0.2019
 8617TIP3    H147342   1.390   6.117   4.561 -1.2406  0.2364 -0.1569
 8617TIP3    H247343   1.265   6.043   4.606  0.1098 -2.0232  0.0502
 8618TIP3   OH247344   2.985   3.301   0.250 -0.0475 -0.2352  0.5062
 8618TIP3    H147345   2.921   3.360   0.291 -1.2821  0.2335 -1.8960
 8618TIP3    H247346   2.939   3.267   0.173  2.9717  1.1085 -2.1157
 8619TIP3   OH247347   6.649   5.847   5.956  0.2242  0.0022  0.0132
 8619TIP3    H147348   6.701   5.808   5.886  0.6438  0.4708  0.0536
 8619TIP3    H247349   6.712   5.902   6.005 -0.6179  1.8681 -0.9132
 8620TIP3   OH247350   2.280   3.506  13.642  0.3296 -0.5234  0.1163
 8620TIP3    H147351   2.249   3.559  13.716 -0.2958 -0.8382  0.0856
 8620TIP3    H247352   2.303   3.422  13.680  1.4016 -0.2186  0.1764
 8621TIP3   OH247353   4.385   5.552  13.049 -0.0647  0.2786 -0.7742
 8621TIP3    H147354   4.466   5.593  13.019 -0.5148 -0.1445 -2.7652
 8621TIP3    H247355   4.377   5.577  13.141  1.8687  1.0329 -0.7715
 8622TIP3   OH247356   3.225   3.690  15.013 -0.8167  0.2068 -0.6940
 8622TIP3    H147357   3.172   3.626  15.060 -0.2697 -0.0731 -0.4383
 8622TIP3    H247358   3.302   3.640  14.984  0.4264  1.0690  0.9093
 8623TIP3   OH247359   0.203   2.107  12.375 -0.2818  0.0564  0.0223
 8623TIP3    H147360   0.277   2.128  12.319 -1.1076  0.9190 -0.7786
 8623TIP3    H247361   0.162   2.031  12.333 -0.8122  0.6095 -0.4790
 8624TIP3   OH247362   3.187   5.659  16.076  0.2254 -0.2186  0.4822
 8624TIP3    H147363   3.129   5.609  16.134 -0.6044  0.5037  0.2939
 8624TIP3    H247364   3.145   5.745  16.069  0.8313  0.0145 -0.4148
 8625TIP3   OH247365   6.363   0.310  16.680 -0.0766  0.0462  0.7951
 8625TIP3    H147366   6.302   0.253  16.634  1.2657 -0.5462 -0.3349
 8625TIP3    H247367   6.435   0.253  16.707  1.1664  1.0882 -0.1249
 8626TIP3   OH247368   1.531   2.885   2.397 -0.1975  0.3948  0.2015
 8626TIP3    H147369   1.614   2.921   2.426  0.3158 -0.2726 -0.3954
 8626TIP3    H247370   1.475   2.886   2.475  0.9367 -0.7932  1.0679
 8627TIP3   OH247371   4.504   1.716  14.451  0.0608  0.0429  0.2482
 8627TIP3    H147372   4.446   1.780  14.409 -0.5232 -0.1575  0.7363
 8627TIP3    H247373   4.588   1.761  14.458  0.1746  0.0858 -1.1155
 8628TIP3   OH247374   3.191   3.103   3.485  0.2836  0.0211 -0.2215
 8628TIP3    H147375   3.104   3.143   3.481 -0.2493 -1.0219  0.5033
 8628TIP3    H247376   3.175   3.009   3.490  1.3607 -0.1230  1.6458
 8629TIP3   OH247377   0.840   2.473   0.882  0.1060 -0.5229 -0.2344
 8629TIP3    H147378   0.908   2.411   0.910 -0.9240 -0.4559  2.8455
 8629TIP3    H247379   0.758   2.424   0.893 -0.5315  0.4115 -0.7225
 8630TIP3   OH247380   6.596   1.499   2.852  0.5015 -0.2846 -0.2999
 8630TIP3    H147381   6.502   1.481   2.854  0.8295 -2.9260 -2.1409
 8630TIP3    H247382   6.603   1.585   2.811 -1.1134  0.0557  0.0593
 8631TIP3   OH247383   4.765   0.171  12.991  0.0263 -0.2250  0.4800
 8631TIP3    H147384   4.775   0.185  13.085  2.4146  1.0519  0.1257
 8631TIP3    H247385   4.732   0.255  12.958  1.5405  0.1697 -0.0834
 8632TIP3   OH247386   3.033   3.155  16.453 -0.2128  0.1288 -0.1324
 8632TIP3    H147387   3.055   3.062  16.443  0.1389 -0.0644  1.9461
 8632TIP3    H247388   3.105   3.201  16.411  0.6429 -0.5612  0.5358
 8633TIP3   OH247389   6.707   0.257  13.952  0.1615 -0.0163 -0.2896
 8633TIP3    H147390   6.641   0.314  13.989 -0.2863 -0.2770 -0.6802
 8633TIP3    H247391   6.704   0.177  14.005  0.4804  0.1473 -0.0218
 8634TIP3   OH247392   2.552   0.305   3.176  0.2178 -0.0695 -0.1879
 8634TIP3    H147393   2.621   0.359   3.215  0.0423 -1.5569  2.3879
 8634TIP3    H247394   2.597   0.252   3.111  1.0113  0.7977 -0.3747
 8635TIP3   OH247395   3.501   4.722   3.323  0.1244  0.8418 -0.1710
 8635TIP3    H147396   3.482   4.785   3.254 -0.2570  1.3406  0.3854
 8635TIP3    H247397   3.418   4.677   3.338 -0.1013  1.5371  0.7610
 8636TIP3   OH247398   4.126   6.416  12.833 -0.0323 -0.1293 -0.0880
 8636TIP3    H147399   4.137   6.336  12.781 -0.4179  0.5013 -1.1625
 8636TIP3    H247400   4.186   6.479  12.791  0.2702  0.1479  0.7522
 8637TIP3   OH247401   3.873   4.500   4.012 -0.0120  0.0367  0.3071
 8637TIP3    H147402   3.868   4.528   4.104 -0.8099 -0.5901  0.4611
 8637TIP3    H247403   3.782   4.486   3.986  0.3281 -3.6471  0.6212
 8638TIP3   OH247404   2.426   1.211  14.651  0.1913  0.7783 -0.1914
 8638TIP3    H147405   2.470   1.295  14.664  0.9712  0.4272 -0.4808
 8638TIP3    H247406   2.468   1.152  14.714  0.4194  0.3389 -0.7463
 8639TIP3   OH247407   1.576   4.656   2.492  0.2583  0.2665 -0.6703
 8639TIP3    H147408   1.516   4.582   2.489  0.1796  0.0684  2.2922
 8639TIP3    H247409   1.663   4.616   2.494  0.4009  0.4412 -2.3732
 8640TIP3   OH247410   6.497   4.262   3.507 -0.3991  0.2461 -0.5757
 8640TIP3    H147411   6.407   4.285   3.482 -0.0741  0.1675 -1.8968
 8640TIP3    H247412   6.509   4.303   3.593 -0.8834  2.3811 -1.4454
 8641TIP3   OH247413   1.995   6.524   4.596  0.2005  0.1654 -0.5102
 8641TIP3    H147414   2.056   6.558   4.530 -0.2080  0.1215 -0.9176
 8641TIP3    H247415   1.951   6.451   4.552 -0.4015  0.4219 -0.3451
 8642TIP3   OH247416   5.780   3.718  13.841 -0.0536 -0.3626  0.6477
 8642TIP3    H147417   5.787   3.669  13.760 -0.4819  0.9003 -0.1857
 8642TIP3    H247418   5.693   3.758  13.837  1.0744  2.1951  0.2666
 8643TIP3   OH247419   2.502   3.677   4.407  0.1814  0.2039  0.5882
 8643TIP3    H147420   2.562   3.605   4.425  2.5804  1.5525 -1.3795
 8643TIP3    H247421   2.447   3.645   4.336 -0.5502 -0.5455  1.4627
 8644TIP3   OH247422   0.415   5.249  13.253  0.1401  0.2456  0.4562
 8644TIP3    H147423   0.465   5.230  13.333  1.7531 -0.0210 -0.5686
 8644TIP3    H247424   0.446   5.184  13.190 -2.4379 -0.7250  0.0934
 8645TIP3   OH247425   4.201   6.810  16.272 -0.2920 -0.5823  0.2516
 8645TIP3    H147426   4.139   6.791  16.342  0.2697  1.0533  1.2772
 8645TIP3    H247427   4.147   6.846  16.201 -0.7231 -0.9331  0.3985
 8646TIP3   OH247428   5.757   3.723  11.361 -0.6296  0.8923  0.4861
 8646TIP3    H147429   5.745   3.657  11.429 -0.8440  0.1299 -0.2700
 8646TIP3    H247430   5.852   3.732  11.353 -0.5716 -0.0263 -0.0432
 8647TIP3   OH247431   4.652   5.445  13.228  0.1969 -0.3647 -0.0044
 8647TIP3    H147432   4.685   5.523  13.183 -0.2536  0.2593  0.7281
 8647TIP3    H247433   4.668   5.374  13.166  0.4957  0.3244 -0.7439
 8648TIP3   OH247434   4.972   0.490  14.041  0.1615 -0.4631 -0.4644
 8648TIP3    H147435   4.910   0.432  13.998 -1.3487  0.3644  0.4996
 8648TIP3    H247436   4.997   0.444  14.121 -2.0471  0.6202  0.9799
 8649TIP3   OH247437   5.639   2.807   4.654 -0.1518 -0.7977  0.1292
 8649TIP3    H147438   5.554   2.838   4.685 -0.8923 -1.4812 -1.1250
 8649TIP3    H247439   5.698   2.820   4.728 -0.6975  2.2603  0.1635
 8650TIP3   OH247440   4.373   0.630   4.909  0.2398 -0.0897 -0.0731
 8650TIP3    H147441   4.282   0.654   4.928 -0.4105  0.4411 -3.2238
 8650TIP3    H247442   4.375   0.535   4.917 -0.4751 -0.0755  0.3911
 8651TIP3   OH247443   1.405   2.681  11.829  0.5880  0.0140  0.2062
 8651TIP3    H147444   1.393   2.725  11.913  1.3495  0.2869  0.1787
 8651TIP3    H247445   1.485   2.719  11.793  2.0403 -2.3135  0.7849
 8652TIP3   OH247446   5.628   0.754   6.019  0.1645  0.3717  0.0192
 8652TIP3    H147447   5.643   0.663   5.993 -1.4083  0.2624 -0.6130
 8652TIP3    H247448   5.599   0.748   6.110 -0.5734  0.1763 -0.2255
 8653TIP3   OH247449   2.925   0.542  12.591  0.2756  0.3015  0.2935
 8653TIP3    H147450   3.001   0.580  12.547 -0.9503  0.5402 -1.7380
 8653TIP3    H247451   2.849   0.576  12.543 -1.0973 -0.5423  1.7559
 8654TIP3   OH247452   5.238   4.921  16.597  0.7438 -0.5597 -0.7933
 8654TIP3    H147453   5.242   4.939  16.503  0.3719 -2.6675 -1.2660
 8654TIP3    H247454   5.160   4.868  16.608 -0.3453  1.2799  1.0634
 8655TIP3   OH247455   2.564   0.540   4.523 -0.1059 -0.0219 -0.0437
 8655TIP3    H147456   2.560   0.444   4.521  1.3024 -0.1399  0.9347
 8655TIP3    H247457   2.488   0.568   4.474 -1.3069 -1.6544  0.7708
 8656TIP3   OH247458   4.333   6.062   5.275 -0.3816 -0.4744  0.0065
 8656TIP3    H147459   4.300   5.984   5.319 -0.1892 -0.1689  0.7036
 8656TIP3    H247460   4.428   6.051   5.274 -0.1037  0.9497  2.5055
 8657TIP3   OH247461   2.627   6.693   3.209 -0.1319 -0.1702 -0.3235
 8657TIP3    H147462   2.569   6.669   3.137 -0.4269 -0.8345  0.1269
 8657TIP3    H247463   2.667   6.775   3.181 -0.6058 -0.1728 -1.0334
 8658TIP3   OH247464   1.402   2.596   4.692 -0.0366  0.6311 -0.0711
 8658TIP3    H147465   1.320   2.566   4.654  0.1816 -0.1892  0.0688
 8658TIP3    H247466   1.445   2.644   4.621 -0.3921  0.5921 -0.3170
 8659TIP3   OH247467   6.843   4.695   4.594 -0.0712  0.3933 -0.0428
 8659TIP3    H147468   6.764   4.690   4.541  1.6326  0.9290 -2.7834
 8659TIP3    H247469   6.864   4.788   4.598  1.7994  0.0945 -1.6097
 8660TIP3   OH247470   0.040   4.438  13.826 -0.1470 -0.1660  0.6837
 8660TIP3    H147471   0.088   4.397  13.754 -1.2029  1.3167 -0.9432
 8660TIP3    H247472   0.104   4.443  13.898  1.3164 -0.5983 -0.5397
 8661TIP3   OH247473   0.123   5.192  10.503  0.3376 -0.3328  0.3229
 8661TIP3    H147474   0.131   5.174  10.596 -0.1442 -0.9311  0.2546
 8661TIP3    H247475   0.209   5.227  10.477  0.3404  0.2419  1.0688
 8662TIP3   OH247476   3.484   6.403   5.088 -0.3414  0.3281 -0.1382
 8662TIP3    H147477   3.517   6.493   5.084  0.6291  0.0512  1.0969
 8662TIP3    H247478   3.414   6.405   5.153 -1.1746  0.4203 -1.0104
 8663TIP3   OH247479   2.447   1.914   0.788 -0.2734 -0.0981 -0.5666
 8663TIP3    H147480   2.354   1.919   0.766 -0.8236 -1.6812  1.1712
 8663TIP3    H247481   2.450   1.861   0.867  2.1786 -0.6352 -0.9431
 8664TIP3   OH247482   4.372   3.938   4.460  0.4797  0.0302  0.0761
 8664TIP3    H147483   4.383   3.937   4.365  0.6289 -1.3702  0.0841
 8664TIP3    H247484   4.456   3.968   4.494  0.5782  0.0859 -0.2174
 8665TIP3   OH247485   4.917   0.427  10.923 -0.5531  0.5282  0.3315
 8665TIP3    H147486   4.850   0.471  10.974 -1.2428 -1.2248  1.0046
 8665TIP3    H247487   4.868   0.374  10.860  0.2271  0.0099  0.1476
 8666TIP3   OH247488   5.804   5.866  15.843 -0.3406 -0.3225  0.6661
 8666TIP3    H147489   5.730   5.925  15.861 -0.7566 -0.7608  0.4101
 8666TIP3    H247490   5.794   5.795  15.907 -1.0462 -1.1825 -0.3604
 8667TIP3   OH247491   1.563   0.919  12.770 -0.2904  0.0163 -0.8218
 8667TIP3    H147492   1.569   0.906  12.675  2.4437 -1.9026 -0.5068
 8667TIP3    H247493   1.647   0.888  12.804 -0.9581  1.1583  2.2116
 8668TIP3   OH247494   0.701   0.279  16.320  1.1946  0.2721 -0.5152
 8668TIP3    H147495   0.614   0.314  16.336  1.3895 -0.0138  1.4445
 8668TIP3    H247496   0.748   0.349  16.275  0.6600  1.3594  0.5655
 8669TIP3   OH247497   1.812   4.592   6.154  0.7608 -0.0757  0.0846
 8669TIP3    H147498   1.813   4.658   6.224 -0.0327 -0.2927  0.3125
 8669TIP3    H247499   1.741   4.532   6.179  1.4723 -1.0154 -0.1172
 8670TIP3   OH247500   6.085   6.663  14.384  0.5663  0.5979  0.1537
 8670TIP3    H147501   5.998   6.625  14.375  0.2548  1.6841 -1.6657
 8670TIP3    H247502   6.095   6.721  14.309  2.3095  1.6053  1.0973
 8671TIP3   OH247503   1.551   4.655   4.428  0.6592 -0.7003  0.3054
 8671TIP3    H147504   1.546   4.611   4.513 -0.7614  0.8380  1.0830
 8671TIP3    H247505   1.644   4.672   4.415  0.8479 -0.3335  1.9076
 8672TIP3   OH247506   0.670   3.930   4.312 -0.3911  0.0488 -0.0788
 8672TIP3    H147507   0.630   3.889   4.389 -0.0571  0.3592  0.2659
 8672TIP3    H247508   0.706   3.858   4.262  0.4409 -0.0606  0.6644
 8673TIP3   OH247509   4.514   2.730   2.885 -0.2088  0.2203  0.4943
 8673TIP3    H147510   4.459   2.740   2.807  1.4830 -0.1158 -0.7896
 8673TIP3    H247511   4.548   2.641   2.879  0.0996  0.2551  1.5295
 8674TIP3   OH247512   4.249   2.560   2.923  0.0336  0.2546 -0.1491
 8674TIP3    H147513   4.307   2.633   2.946  0.6562  0.1039 -1.1637
 8674TIP3    H247514   4.286   2.485   2.968  0.8780  0.0838 -1.0840
 8675TIP3   OH247515   6.740   4.347   3.405  0.0778 -0.0518 -0.2601
 8675TIP3    H147516   6.647   4.349   3.431  0.8687  0.7416  2.9115
 8675TIP3    H247517   6.788   4.339   3.488  2.9116  1.0699 -1.6718
 8676TIP3   OH247518   0.014   4.087  13.373 -0.5766 -0.6604  0.3848
 8676TIP3    H147519   0.047   4.145  13.304 -1.4282 -0.1970  0.3521
 8676TIP3    H247520  -0.015   4.009  13.326  1.4659 -1.5618  0.5232
 8677TIP3   OH247521   6.524   4.865  11.359  0.3230 -0.2597 -0.9917
 8677TIP3    H147522   6.571   4.869  11.276 -0.2313 -3.5467 -1.6065
 8677TIP3    H247523   6.582   4.817  11.418  0.3368  1.2611  0.3241
 8678TIP3   OH247524   2.386   0.379   1.826 -0.2994 -0.1977  0.1505
 8678TIP3    H147525   2.360   0.359   1.736 -0.0928  0.0456  0.0344
 8678TIP3    H247526   2.482   0.373   1.825 -0.1558  1.5139 -0.0822
 8679TIP3   OH247527   0.662   2.251   3.816  0.5763  0.6330  0.1481
 8679TIP3    H147528   0.730   2.243   3.748  0.0182 -0.3924 -0.3084
 8679TIP3    H247529   0.659   2.164   3.857 -0.1989  0.7833  0.4156
 8680TIP3   OH247530   4.660   3.689   3.166  0.3308  0.4782  0.0932
 8680TIP3    H147531   4.634   3.612   3.117 -0.1940 -0.6749  2.0750
 8680TIP3    H247532   4.677   3.756   3.099  0.6944 -1.2903 -1.6589
 8681TIP3   OH247533   1.286   4.355  15.339 -0.0908  0.1907  0.2510
 8681TIP3    H147534   1.267   4.438  15.383 -3.9437 -1.1851  1.6411
 8681TIP3    H247535   1.206   4.334  15.292  1.7692 -1.4813 -2.4223
 8682TIP3   OH247536   2.436   1.957   0.309  0.6598  0.7351  0.1293
 8682TIP3    H147537   2.381   2.021   0.354 -2.6759  0.0329 -2.5226
 8682TIP3    H247538   2.441   1.883   0.369 -2.0391  0.5550  0.2454
 8683TIP3   OH247539   4.569   1.443   2.060 -0.4083  0.5026  0.0515
 8683TIP3    H147540   4.532   1.454   1.972 -0.2266 -1.3963 -0.3143
 8683TIP3    H247541   4.493   1.447   2.118 -0.9928 -1.2729 -0.5104
 8684TIP3   OH247542   1.723   6.851  11.520 -0.1086 -0.1496  0.0115
 8684TIP3    H147543   1.710   6.945  11.533 -1.3252 -0.3535  0.4379
 8684TIP3    H247544   1.760   6.821  11.603 -0.5241 -0.1827  0.1863
 8685TIP3   OH247545   3.012   5.129  13.024 -0.0234  0.2297 -0.0547
 8685TIP3    H147546   2.917   5.119  13.032 -0.3450  1.0683 -2.1499
 8685TIP3    H247547   3.039   5.056  12.967  0.5887  0.0065  0.5180
 8686TIP3   OH247548   1.156   6.398  17.112  0.2097 -0.4184  0.1063
 8686TIP3    H147549   1.071   6.375  17.150  0.1895 -0.4844  0.0202
 8686TIP3    H247550   1.173   6.329  17.049 -1.1188  1.1828 -2.1454
 8687TIP3   OH247551   6.831   2.736  11.278  0.2566  0.3520  0.1232
 8687TIP3    H147552   6.912   2.765  11.236 -0.0606 -0.1479 -0.8482
 8687TIP3    H247553   6.765   2.800  11.250  0.2195  0.5201  0.5775
 8688TIP3   OH247554   5.057   1.165   4.594 -0.5905 -0.8086  0.0261
 8688TIP3    H147555   5.113   1.217   4.536 -1.0831  0.6361  0.7827
 8688TIP3    H247556   5.065   1.075   4.562  0.5748 -0.3236 -1.1176
 8689TIP3   OH247557   5.131   1.902  11.019  0.0763  0.7000 -0.1312
 8689TIP3    H147558   5.109   1.809  11.012 -1.8932  0.7060  3.5865
 8689TIP3    H247559   5.050   1.947  10.995  0.5987  1.4164 -0.5782
 8690TIP3   OH247560   4.010   4.467   4.472  0.1788  0.2862 -0.1515
 8690TIP3    H147561   4.007   4.561   4.490 -0.9857 -0.1940  2.6708
 8690TIP3    H247562   3.921   4.445   4.445 -0.7744 -0.5594  3.1995
 8691TIP3   OH247563   6.660   0.176  14.889 -0.2304  0.1951 -0.3286
 8691TIP3    H147564   6.727   0.116  14.922 -0.7789 -0.0727  0.3408
 8691TIP3    H247565   6.707   0.255  14.865  0.1269  0.6509  1.7441
 8692TIP3   OH247566   6.759   4.709  13.832  0.8566 -0.3903 -0.5705
 8692TIP3    H147567   6.726   4.621  13.817  0.1155 -0.0091 -1.2220
 8692TIP3    H247568   6.833   4.697  13.892  0.0450 -1.3310  0.2709
 8693TIP3   OH247569   4.274   4.737   4.939 -0.1827 -0.7516 -0.1948
 8693TIP3    H147570   4.246   4.826   4.961  0.3258 -1.0649  1.9516
 8693TIP3    H247571   4.250   4.726   4.847 -3.1973  0.4592  0.3435
 8694TIP3   OH247572   6.393   4.651  12.288  0.4556  0.4565  0.5014
 8694TIP3    H147573   6.434   4.600  12.219  1.6740 -0.0223  1.5393
 8694TIP3    H247574   6.368   4.733  12.246  0.0280 -0.3013 -0.7768
 8695TIP3   OH247575   0.003   3.539   1.265 -0.2602 -0.1060  0.0295
 8695TIP3    H147576  -0.015   3.611   1.325 -2.2497 -0.1453 -0.4530
 8695TIP3    H247577   0.098   3.536   1.259 -0.1024  1.9875  0.6699
 8696TIP3   OH247578   0.165   3.696   2.259  0.0330  0.0111 -0.2004
 8696TIP3    H147579   0.104   3.760   2.296  1.0472 -0.3798  2.3844
 8696TIP3    H247580   0.234   3.750   2.220 -0.6900  0.4401 -0.9401
 8697TIP3   OH247581   5.578   6.339   1.572  0.3633 -0.1495 -0.2001
 8697TIP3    H147582   5.501   6.395   1.562  0.2266 -0.3434 -0.2399
 8697TIP3    H247583   5.580   6.286   1.492  1.1196  0.5613 -0.6729
 8698TIP3   OH247584   5.581   4.488  16.616  0.5341  0.5494  0.0309
 8698TIP3    H147585   5.516   4.423  16.644  1.0852  0.2845  0.7294
 8698TIP3    H247586   5.662   4.461  16.660  0.8782  1.4592 -0.0296
 8699TIP3   OH247587   5.116   0.497  13.295 -0.0623 -0.8062 -0.5029
 8699TIP3    H147588   5.192   0.444  13.270  1.4215  0.0695  1.7685
 8699TIP3    H247589   5.058   0.437  13.341  0.0844 -1.1269 -0.7363
 8700TIP3   OH247590   4.373   4.793  14.672  0.5233 -0.0207 -0.5103
 8700TIP3    H147591   4.341   4.827  14.588  0.3851  0.4093 -0.2842
 8700TIP3    H247592   4.461   4.760  14.652  0.6334  0.4127 -0.7454
 8701TIP3   OH247593   2.454   2.576   4.668  0.4277 -0.0266  0.0243
 8701TIP3    H147594   2.405   2.513   4.616  0.2847 -0.1442  0.3015
 8701TIP3    H247595   2.492   2.635   4.603 -2.6145  1.9913 -0.1319
 8702TIP3   OH247596   4.528   4.352  16.047  0.6084  0.2142 -0.7831
 8702TIP3    H147597   4.609   4.399  16.025 -0.3336  1.3814 -1.9232
 8702TIP3    H247598   4.498   4.392  16.128 -0.3285  1.8403 -1.8858
 8703TIP3   OH247599   1.406   0.432   5.919 -0.3690  0.1200  0.4469
 8703TIP3    H147600   1.388   0.395   5.833 -1.3382  0.5828  0.4380
 8703TIP3    H247601   1.473   0.497   5.903  2.2001 -2.2963  0.6243
 8704TIP3   OH247602   5.585   2.862   0.100 -0.1219  0.7454 -0.5729
 8704TIP3    H147603   5.672   2.822   0.101  0.1045  1.1164 -2.3247
 8704TIP3    H247604   5.555   2.857   0.191  0.2279 -2.6516 -0.5002
 8705TIP3   OH247605   2.067   2.352  12.151 -0.1136  0.0254 -0.7724
 8705TIP3    H147606   2.110   2.266  12.150  0.1300  0.1453 -1.2451
 8705TIP3    H247607   1.982   2.336  12.191  0.3918 -0.2094  0.2210
 8706TIP3   OH247608   3.064   6.482  11.639 -0.1545 -0.1225 -0.1698
 8706TIP3    H147609   2.989   6.424  11.622  0.0576 -0.1702 -0.9579
 8706TIP3    H247610   3.139   6.423  11.642 -0.0422  0.0216 -0.1779
 8707TIP3   OH247611   5.096   4.673   0.817  0.3992  0.8030  0.2903
 8707TIP3    H147612   5.118   4.635   0.731 -1.1162 -0.9366  0.6106
 8707TIP3    H247613   5.000   4.674   0.818  0.4072  1.3461  1.7428
 8708TIP3   OH247614   1.553   6.050  14.288 -0.1541 -0.4619 -0.2535
 8708TIP3    H147615   1.537   6.013  14.375  1.0664 -2.0525 -0.6680
 8708TIP3    H247616   1.468   6.043  14.244 -0.3633 -1.2690  0.2448
 8709TIP3   OH247617   1.502   1.675   0.766  0.9536  0.5182 -0.1870
 8709TIP3    H147618   1.536   1.750   0.813  1.4677 -0.1976  0.6095
 8709TIP3    H247619   1.524   1.600   0.820  2.3529 -0.4398 -1.9575
 8710TIP3   OH247620   5.452   2.354  14.050  0.1313  0.2199  0.0945
 8710TIP3    H147621   5.479   2.269  14.086 -0.8601  0.0469  0.4408
 8710TIP3    H247622   5.427   2.335  13.960 -0.7445  0.0085  0.3735
 8711TIP3   OH247623   5.623   4.053   5.558  0.4195 -0.3427 -0.0934
 8711TIP3    H147624   5.545   4.060   5.504  1.5350  1.6245 -1.5852
 8711TIP3    H247625   5.598   4.089   5.643 -0.7294 -1.3352  0.0076
 8712TIP3   OH247626   0.930   4.935   0.777  0.3512  0.5760 -0.0987
 8712TIP3    H147627   0.846   4.920   0.820 -0.9155 -0.0550 -2.6171
 8712TIP3    H247628   0.993   4.940   0.849 -1.5031 -1.0638  1.7772
 8713TIP3   OH247629   5.468   0.243   4.083 -0.1968  0.1528 -0.3157
 8713TIP3    H147630   5.426   0.270   4.001 -1.4128 -0.8543 -0.0607
 8713TIP3    H247631   5.560   0.230   4.060 -0.0773  1.9725 -1.0054
 8714TIP3   OH247632   4.149   4.786  11.456  0.4828 -0.1595 -0.0704
 8714TIP3    H147633   4.167   4.698  11.423  1.4076  0.0819 -0.2336
 8714TIP3    H247634   4.107   4.832  11.383  1.2258 -0.0594 -0.4359
 8715TIP3   OH247635   6.661   5.634   1.776  0.6889 -0.0287 -0.7989
 8715TIP3    H147636   6.719   5.595   1.710  0.7325  0.9378 -1.3465
 8715TIP3    H247637   6.713   5.633   1.856  0.8127 -0.7754 -0.8821
 8716TIP3   OH247638   3.142   3.922   5.174 -0.4457  0.3026 -0.2501
 8716TIP3    H147639   3.204   3.990   5.148  1.8691 -1.3100  0.6670
 8716TIP3    H247640   3.110   3.948   5.260  1.1722 -0.1877  0.5283
 8717TIP3   OH247641   5.508   6.773  12.836 -0.0839 -0.0037 -0.2371
 8717TIP3    H147642   5.497   6.867  12.830  1.5321  0.3296  1.3212
 8717TIP3    H247643   5.575   6.753  12.770 -1.5233 -0.3446 -1.6655
 8718TIP3   OH247644   6.678   5.397  16.281  0.0694 -0.5081 -0.1524
 8718TIP3    H147645   6.595   5.378  16.326 -0.2691  3.1101  1.0746
 8718TIP3    H247646   6.659   5.383  16.189 -0.7800 -3.1155  0.3264
 8719TIP3   OH247647   6.528   6.612  17.068  0.3664  0.0159 -0.1365
 8719TIP3    H147648   6.478   6.548  17.018  1.3217 -2.2549  1.6234
 8719TIP3    H247649   6.483   6.695  17.053 -0.3852 -0.8237 -3.2622
 8720TIP3   OH247650   2.811   5.857   4.485 -1.0250  0.1790  0.9346
 8720TIP3    H147651   2.774   5.768   4.486  0.3376 -0.4141  0.7051
 8720TIP3    H247652   2.809   5.884   4.577 -0.3527 -0.5874  1.1928
 8721TIP3   OH247653   2.622   0.378  15.340 -0.5338  0.3027 -0.1946
 8721TIP3    H147654   2.558   0.308  15.328 -0.7202  0.0648  1.8375
 8721TIP3    H247655   2.571   0.450  15.378 -0.2345  1.3701 -1.7254
 8722TIP3   OH247656   5.853   2.608   1.317 -0.4289  0.5272  0.0695
 8722TIP3    H147657   5.843   2.681   1.379  0.1655  2.3808 -1.9033
 8722TIP3    H247658   5.790   2.627   1.248  2.6235  1.6769 -2.6673
 8723TIP3   OH247659   5.910   2.809   4.095  0.6722 -0.1975  0.3808
 8723TIP3    H147660   5.917   2.858   4.177 -1.4238 -0.7134  0.9207
 8723TIP3    H247661   5.820   2.823   4.066  1.6442  0.8222 -2.4306
 8724TIP3   OH247662   2.200   6.442  13.032  0.4035  0.1231 -0.0954
 8724TIP3    H147663   2.165   6.510  12.975 -0.3676 -0.5781 -0.4886
 8724TIP3    H247664   2.204   6.364  12.977  0.0575 -0.4608  0.6871
 8725TIP3   OH247665   5.717   1.429   2.284 -0.1435 -0.0261  0.6655
 8725TIP3    H147666   5.747   1.514   2.252  1.4269 -1.0588 -0.8089
 8725TIP3    H247667   5.789   1.397   2.338 -0.6567 -0.4990  1.0731
 8726TIP3   OH247668   0.869   1.712   5.467 -0.0448 -0.2321 -0.2382
 8726TIP3    H147669   0.838   1.748   5.385 -1.1824  1.7379  0.9745
 8726TIP3    H247670   0.794   1.717   5.526  1.2830  0.3342  1.4917
 8727TIP3   OH247671   4.613   4.859   0.392  0.1077  0.2568 -0.1396
 8727TIP3    H147672   4.631   4.882   0.301 -0.1764 -0.8326 -0.4853
 8727TIP3    H247673   4.695   4.877   0.438  0.5195  0.0433 -0.7693
 8728TIP3   OH247674   1.359   3.114  13.345 -0.4773  0.1971 -0.4842
 8728TIP3    H147675   1.310   3.060  13.283  1.2378 -1.2115 -0.7005
 8728TIP3    H247676   1.299   3.185  13.368 -1.9472 -0.4675 -2.0522
 8729TIP3   OH247677   2.916   0.773  14.005 -0.5878 -0.2621 -0.0719
 8729TIP3    H147678   2.983   0.818  13.954  2.5623 -1.7149  2.3571
 8729TIP3    H247679   2.898   0.693  13.956 -0.7560  0.2602 -0.8758
 8730TIP3   OH247680   3.555   0.493  16.560 -0.1102  0.2405 -0.3545
 8730TIP3    H147681   3.463   0.496  16.533 -0.1975  1.5255  0.0257
 8730TIP3    H247682   3.590   0.579  16.537  0.7778  0.0567  0.2417
 8731TIP3   OH247683   5.085   0.217   4.025 -0.1795  0.2482 -0.5489
 8731TIP3    H147684   5.107   0.283   4.090  1.2350 -1.0731  0.3914
 8731TIP3    H247685   5.156   0.153   4.031 -2.0187 -1.9504 -0.5742
 8732TIP3   OH247686   3.082   5.225  16.729 -0.7807 -0.1803 -0.4512
 8732TIP3    H147687   3.166   5.219  16.775 -0.5837 -3.1744 -0.9753
 8732TIP3    H247688   3.041   5.305  16.763  2.0326  1.1122  0.1630
 8733TIP3   OH247689   2.505   4.429   3.543  0.2339  0.2108 -0.0063
 8733TIP3    H147690   2.492   4.336   3.562 -0.3220  0.2161 -0.3311
 8733TIP3    H247691   2.542   4.430   3.455 -0.1032  0.3026 -0.1522
 8734TIP3   OH247692   2.714   2.199  11.083  0.3293 -0.5672 -0.1877
 8734TIP3    H147693   2.728   2.210  10.989  2.1434  0.0311  0.1146
 8734TIP3    H247694   2.665   2.277  11.109 -0.5645 -0.9484 -0.6951
 8735TIP3   OH247695   1.208   4.868  16.374  0.2555 -0.3251 -0.6014
 8735TIP3    H147696   1.120   4.836  16.356  0.2414  0.8016 -3.0469
 8735TIP3    H247697   1.214   4.949  16.323  3.1677 -1.1266 -1.7510
 8736TIP3   OH247698   0.809   4.592   3.496 -0.4716 -0.3376 -0.1294
 8736TIP3    H147699   0.723   4.619   3.462  0.4760  2.0568 -0.7891
 8736TIP3    H247700   0.844   4.534   3.429 -0.6730  0.4407 -0.9186
 8737TIP3   OH247701   3.543   2.615   4.482 -0.4438  0.0205  0.0430
 8737TIP3    H147702   3.582   2.643   4.565  0.6178 -2.1288  0.3501
 8737TIP3    H247703   3.563   2.685   4.420 -1.4825  1.8043  1.6234
 8738TIP3   OH247704   1.889   1.788   5.305  0.3558 -0.4663  0.6661
 8738TIP3    H147705   1.886   1.871   5.258  0.2380 -1.2763 -0.8165
 8738TIP3    H247706   1.800   1.753   5.297  0.4837 -0.8867  1.0161
 8739TIP3   OH247707   4.369   2.349   3.993  0.1896 -0.8782  0.6896
 8739TIP3    H147708   4.311   2.315   4.062 -0.8468  0.1193  0.3354
 8739TIP3    H247709   4.457   2.323   4.021  0.1548  1.7495  3.8832
 8740TIP3   OH247710   3.183   3.452  14.223  0.4095 -0.4130 -0.0950
 8740TIP3    H147711   3.154   3.425  14.310 -2.8833 -1.7663 -1.4402
 8740TIP3    H247712   3.218   3.372  14.184 -0.5874 -0.4807 -0.8764
 8741TIP3   OH247713   5.657   2.021  15.147  0.6747 -0.7093 -0.2737
 8741TIP3    H147714   5.609   2.091  15.102 -0.7011 -1.0628  0.5644
 8741TIP3    H247715   5.669   1.954  15.081 -1.7829 -1.4432 -0.0916
 8742TIP3   OH247716   3.472   0.119   5.457  0.7091  0.3735 -0.1751
 8742TIP3    H147717   3.416   0.075   5.393  0.7973 -1.1672  0.7603
 8742TIP3    H247718   3.543   0.057   5.474  0.6499  0.6951  1.4500
 8743TIP3   OH247719   1.044   4.459  15.537  0.2572 -0.2456  0.1393
 8743TIP3    H147720   1.096   4.409  15.601  2.9572  0.1301 -1.6050
 8743TIP3    H247721   0.955   4.425  15.548  0.6794 -0.6356  3.6099
 8744TIP3   OH247722   1.169   4.911   5.553  0.1120  0.4120  0.2394
 8744TIP3    H147723   1.172   4.900   5.648  0.3245  1.3976  0.3589
 8744TIP3    H247724   1.090   4.865   5.526 -1.3793  2.2459  1.2287
 8745TIP3   OH247725   5.195   2.114  15.752 -0.5979 -0.0766  0.3849
 8745TIP3    H147726   5.101   2.102  15.766 -0.7852 -1.5057 -1.6734
 8745TIP3    H247727   5.202   2.205  15.721 -1.7318 -0.7017 -2.0005
 8746TIP3   OH247728   3.724   2.050  13.286  0.4312  0.4142 -0.4821
 8746TIP3    H147729   3.638   2.084  13.259 -0.8894 -0.4252  2.2443
 8746TIP3    H247730   3.712   1.955  13.288  0.4579  0.3757  2.4739
 8747TIP3   OH247731   1.120   3.209  13.145 -0.1590 -0.1997 -0.2928
 8747TIP3    H147732   1.066   3.227  13.068  0.3669 -0.1228 -0.6458
 8747TIP3    H247733   1.177   3.285  13.154 -0.1442 -0.2538  0.1112
 8748TIP3   OH247734   0.577   0.579  15.100  0.5548  0.6844 -0.1728
 8748TIP3    H147735   0.662   0.543  15.127  0.8045 -0.7556 -2.5450
 8748TIP3    H247736   0.598   0.641  15.031 -0.3103  0.2625 -0.8345
 8749TIP3   OH247737   3.467   0.063  14.691 -0.4501 -0.0222  0.0394
 8749TIP3    H147738   3.448   0.157  14.694 -1.4878 -0.2164 -0.0149
 8749TIP3    H247739   3.558   0.056  14.719 -0.5017  0.9642  0.5023
 8750TIP3   OH247740   5.188   0.952   3.725 -0.3025 -0.0994 -0.6558
 8750TIP3    H147741   5.153   0.980   3.641  0.8339  0.9518 -0.8181
 8750TIP3    H247742   5.156   0.863   3.737 -0.0993 -0.4480 -2.4289
 8751TIP3   OH247743   0.575   4.666   1.377 -0.1049  0.1358 -0.0778
 8751TIP3    H147744   0.585   4.746   1.325 -0.9906 -0.0347 -0.5467
 8751TIP3    H247745   0.542   4.601   1.314 -0.9355 -0.1552  0.6306
 8752TIP3   OH247746   4.960   5.367  15.167  0.3199  0.2198 -0.2701
 8752TIP3    H147747   5.008   5.450  15.161  0.8127 -0.1415 -1.6644
 8752TIP3    H247748   4.996   5.324  15.244 -0.1528  1.4156  0.6593
 8753TIP3   OH247749   2.933   0.764  16.067  0.0475  0.0649  0.2285
 8753TIP3    H147750   3.024   0.768  16.037 -0.6030 -0.0578 -1.9687
 8753TIP3    H247751   2.898   0.851  16.049 -0.4310 -0.0700  0.4897
 8754TIP3   OH247752   5.377   0.603  15.023 -0.1948  0.0242 -0.5868
 8754TIP3    H147753   5.364   0.510  15.040 -0.4037  0.4384  1.9307
 8754TIP3    H247754   5.294   0.632  14.984 -1.2617 -0.3574  1.2330
 8755TIP3   OH247755   6.620   6.807   2.373  0.3746 -0.0325 -0.1793
 8755TIP3    H147756   6.707   6.810   2.413  0.3589 -0.9532 -0.0511
 8755TIP3    H247757   6.565   6.766   2.440  0.2730 -1.2806 -0.9953
 8756TIP3   OH247758   5.805   4.115   1.270  0.0565  0.0914  0.2956
 8756TIP3    H147759   5.851   4.195   1.298  0.3001  0.2658 -0.5853
 8756TIP3    H247760   5.839   4.047   1.328  1.0463  0.3167  0.0032
 8757TIP3   OH247761   0.493   1.066   2.371  0.1116 -0.6566  0.1443
 8757TIP3    H147762   0.475   1.136   2.434 -0.2259 -1.2673  0.7305
 8757TIP3    H247763   0.577   1.091   2.332 -0.6418  0.8107 -0.6800
 8758TIP3   OH247764   1.805   4.865  12.564 -0.1733  0.0904  0.6740
 8758TIP3    H147765   1.766   4.934  12.510  1.6819 -0.9969 -2.3261
 8758TIP3    H247766   1.899   4.886  12.564  0.4460 -2.3616 -0.3638
 8759TIP3   OH247767   1.657   4.369  13.623  0.5869  0.1059  0.4433
 8759TIP3    H147768   1.746   4.402  13.612  0.6203  0.3533  1.3528
 8759TIP3    H247769   1.647   4.359  13.718 -0.6250  0.8393  0.4129
 8760TIP3   OH247770   1.483   2.580   2.638 -0.1424 -0.5542 -0.1783
 8760TIP3    H147771   1.455   2.667   2.664  0.4542 -0.9096  1.8978
 8760TIP3    H247772   1.428   2.521   2.691 -1.4645 -1.5209 -2.5030
 8761TIP3   OH247773   2.084   5.864  15.469  0.1865  0.2109 -1.1073
 8761TIP3    H147774   2.092   5.957  15.448 -0.4712  0.0505 -2.1577
 8761TIP3    H247775   2.128   5.854  15.553  0.5743  1.4070 -1.1533
 8762TIP3   OH247776   2.115   6.293   6.186  0.6976 -0.1229  0.9213
 8762TIP3    H147777   2.062   6.357   6.233 -0.3633 -1.1801  1.2004
 8762TIP3    H247778   2.154   6.342   6.114 -0.8327  0.6327  0.5839
 8763TIP3   OH247779   2.709   3.313   2.121 -0.1752 -0.3939  0.0038
 8763TIP3    H147780   2.794   3.269   2.126  0.7188  0.9770 -2.0471
 8763TIP3    H247781   2.648   3.251   2.161  1.4603 -2.2553 -0.2308
 8764TIP3   OH247782   1.488   1.259  15.661 -1.0474  0.6081 -0.2603
 8764TIP3    H147783   1.493   1.193  15.591 -0.0933  0.1202  0.2505
 8764TIP3    H247784   1.563   1.240  15.717 -1.4588  1.3785  0.5702
 8765TIP3   OH247785   4.755   6.602  14.395  0.3028  0.4541 -0.6210
 8765TIP3    H147786   4.725   6.528  14.448  0.0859 -0.5169 -2.0436
 8765TIP3    H247787   4.840   6.574  14.360  0.3359  0.9800 -0.9704
 8766TIP3   OH247788   0.205   1.024   2.829  0.3691 -0.8363  0.1008
 8766TIP3    H147789   0.189   1.096   2.890  0.3948 -0.5066 -0.2790
 8766TIP3    H247790   0.139   0.958   2.851 -1.2066  0.2850 -1.1011
 8767TIP3   OH247791   5.855   4.071   4.557 -0.1208 -0.4033 -0.3219
 8767TIP3    H147792   5.918   4.002   4.575 -1.4395 -1.7598 -0.6509
 8767TIP3    H247793   5.830   4.104   4.644 -0.5991 -1.4244 -0.0500
 8768TIP3   OH247794   3.821   6.050  10.987 -0.9940 -0.1343  0.2224
 8768TIP3    H147795   3.854   5.960  10.997  0.3273  0.3471  0.3630
 8768TIP3    H247796   3.771   6.048  10.905 -2.0452 -1.2873  0.8504
 8769TIP3   OH247797   2.325   3.597  11.198  0.0547 -0.6875  0.1892
 8769TIP3    H147798   2.358   3.643  11.121 -0.0601 -1.7525 -0.5179
 8769TIP3    H247799   2.231   3.589  11.183 -0.4703  1.5013  1.7572
 8770TIP3   OH247800   1.296   0.858  14.707  0.2385 -0.2447 -0.6492
 8770TIP3    H147801   1.296   0.873  14.802 -0.2128 -1.0588 -0.5086
 8770TIP3    H247802   1.348   0.778  14.696  1.5299  0.6324 -1.2451
 8771TIP3   OH247803   0.407   5.251   2.127 -0.3906 -0.3893 -0.3385
 8771TIP3    H147804   0.444   5.333   2.095 -0.5225 -0.8497 -1.7358
 8771TIP3    H247805   0.463   5.183   2.090 -0.2237 -0.9373  0.8817
 8772TIP3   OH247806   3.070   3.126   3.819 -0.7290 -0.1265 -0.6943
 8772TIP3    H147807   3.058   3.081   3.903 -3.2518  1.5397 -0.0204
 8772TIP3    H247808   3.030   3.068   3.754  0.1826 -0.8908 -0.5929
 8773TIP3   OH247809   2.681   1.558  12.839  0.3055  0.1423  0.6710
 8773TIP3    H147810   2.609   1.525  12.891 -0.8904 -0.4223 -1.2362
 8773TIP3    H247811   2.685   1.500  12.763  3.0016 -0.0498  0.8524
 8774TIP3   OH247812   3.773   5.784   0.701  0.0144 -0.4358  0.0388
 8774TIP3    H147813   3.689   5.808   0.661 -0.0346 -0.5247  0.0885
 8774TIP3    H247814   3.803   5.864   0.743 -1.5488 -1.1547  2.7268
 8775TIP3   OH247815   5.340   2.701  12.080  0.6107  0.7377 -0.1347
 8775TIP3    H147816   5.368   2.614  12.109  0.0923  0.3688 -0.7045
 8775TIP3    H247817   5.385   2.762  12.137  0.6679  0.0722  0.5371
 8776TIP3   OH247818   1.164   4.344  14.878 -0.1579  0.2506 -0.3117
 8776TIP3    H147819   1.215   4.284  14.823 -2.8126 -0.8873 -1.6810
 8776TIP3    H247820   1.081   4.354  14.833 -1.9119  0.5665  2.7116
 8777TIP3   OH247821   1.648   3.583   3.546 -0.3235 -0.0604  0.2820
 8777TIP3    H147822   1.613   3.566   3.633  2.0619  0.2424  1.3799
 8777TIP3    H247823   1.608   3.517   3.490  0.0409 -1.9441  2.1400
 8778TIP3   OH247824   4.383   4.592  16.831 -0.4986  0.5325 -0.1197
 8778TIP3    H147825   4.468   4.635  16.833 -0.8321  1.4876 -2.7802
 8778TIP3    H247826   4.402   4.502  16.805 -0.1251 -0.1075  2.1082
 8779TIP3   OH247827   1.230   2.639   1.065  0.3106 -0.3812  0.1488
 8779TIP3    H147828   1.291   2.654   0.992  0.6874 -1.6618  0.1856
 8779TIP3    H247829   1.195   2.551   1.050  0.7262 -0.8535  1.7346
 8780TIP3   OH247830   0.246   4.462  14.039 -0.8603  0.2361 -0.0950
 8780TIP3    H147831   0.297   4.507  14.106 -0.7068  0.1649 -0.1617
 8780TIP3    H247832   0.240   4.371  14.071  0.8450 -0.2592 -1.0914
 8781TIP3   OH247833   6.672   0.395   2.997 -0.0371 -0.3831  0.3099
 8781TIP3    H147834   6.607   0.325   3.002 -0.0296 -0.3275  1.2469
 8781TIP3    H247835   6.661   0.431   2.909 -2.1242  0.4167  0.8341
 8782TIP3   OH247836   5.402   5.805   0.601 -0.6974 -0.0386 -0.2788
 8782TIP3    H147837   5.404   5.818   0.507 -0.5894  0.4155 -0.2209
 8782TIP3    H247838   5.493   5.819   0.629 -0.3811 -1.8661 -0.3052
 8783TIP3   OH247839   1.969   2.706  12.933 -0.7029  0.1596 -0.5145
 8783TIP3    H147840   1.997   2.734  12.845 -0.2374 -1.8373 -1.0551
 8783TIP3    H247841   1.956   2.612  12.925  1.0806 -0.4048  1.9741
 8784TIP3   OH247842   5.638   0.790   2.809 -0.4892  0.3207 -0.4525
 8784TIP3    H147843   5.662   0.879   2.785 -2.8127  1.3743  0.7806
 8784TIP3    H247844   5.617   0.794   2.902 -1.8402 -1.2066 -0.6322
 8785TIP3   OH247845   4.894   0.709  11.390 -0.0956  0.4053  0.3019
 8785TIP3    H147846   4.972   0.763  11.377  0.0971  0.6510  2.1672
 8785TIP3    H247847   4.915   0.655  11.466 -0.8074 -1.3515 -0.6946
 8786TIP3   OH247848   5.369   0.949   4.217 -0.2052  0.6278  0.3895
 8786TIP3    H147849   5.364   1.002   4.138  0.6637  1.8534  1.1201
 8786TIP3    H247850   5.462   0.933   4.230 -0.4769 -2.3868 -0.5960
 8787TIP3   OH247851   1.927   0.084  14.464  0.1225 -0.3661  0.1910
 8787TIP3    H147852   1.978   0.046  14.536 -1.2482 -0.3721  1.2110
 8787TIP3    H247853   1.837   0.053  14.480 -0.6045  1.3471 -0.3203
 8788TIP3   OH247854   2.392   1.552  11.488  0.4782 -0.4524  0.1120
 8788TIP3    H147855   2.445   1.584  11.561 -0.4219 -0.6601  0.8793
 8788TIP3    H247856   2.311   1.520  11.529  1.1895 -3.4599 -0.6041
 8789TIP3   OH247857   5.200   2.513   0.679 -0.3197  0.6960  0.3103
 8789TIP3    H147858   5.282   2.500   0.632 -0.1166  0.7538  0.6386
 8789TIP3    H247859   5.166   2.425   0.694 -0.3205  0.6721  0.1694
 8790TIP3   OH247860   1.000   5.807   5.554 -0.0260  0.3943  0.5213
 8790TIP3    H147861   1.004   5.895   5.517 -0.6946  1.0369  1.9084
 8790TIP3    H247862   1.092   5.783   5.567  0.1654  1.7479  2.0228
 8791TIP3   OH247863   6.704   5.474  11.763  0.0323  0.5424 -0.3796
 8791TIP3    H147864   6.769   5.464  11.832  1.1021  0.3387 -1.3851
 8791TIP3    H247865   6.708   5.391  11.715  0.6038  1.3557 -1.7727
 8792TIP3   OH247866   4.816   3.544   1.433 -0.5209  0.0995  0.1368
 8792TIP3    H147867   4.849   3.630   1.459 -0.2906 -0.3631  1.4316
 8792TIP3    H247868   4.882   3.509   1.373  0.5109 -0.0822  1.3330
 8793TIP3   OH247869   6.825   1.312   3.689  0.1873  0.8302 -0.1930
 8793TIP3    H147870   6.842   1.250   3.618  2.0043 -0.0243  0.9172
 8793TIP3    H247871   6.778   1.384   3.646 -1.7885 -1.1500 -1.5622
 8794TIP3   OH247872   5.663   4.070   4.125  0.0338 -0.0264  0.4599
 8794TIP3    H147873   5.600   4.105   4.188  0.2807  0.8849  0.2115
 8794TIP3    H247874   5.748   4.083   4.165  0.0656 -1.7839  1.0495
 8795TIP3   OH247875   5.120   5.373  15.923  0.6810 -0.0032  0.0520
 8795TIP3    H147876   5.194   5.376  15.862 -0.4803 -1.2268 -1.5321
 8795TIP3    H247877   5.140   5.438  15.989  2.0540  1.4061 -1.6420
 8796TIP3   OH247878   5.342   1.064   3.978 -0.4131  0.0876 -0.2363
 8796TIP3    H147879   5.301   1.037   3.896  0.2198  1.2019 -0.9416
 8796TIP3    H247880   5.382   1.148   3.958 -0.7393  0.6513  1.3907
 8797TIP3   OH247881   1.042   0.294  16.281  0.7992  0.5917  0.4001
 8797TIP3    H147882   1.091   0.375  16.263 -0.2049  1.0876 -0.1785
 8797TIP3    H247883   0.999   0.274  16.198 -1.1968  1.0224  1.2814
 8798TIP3   OH247884   1.721   5.363   4.148 -0.0012  0.3561  0.1745
 8798TIP3    H147885   1.805   5.361   4.102  0.2370 -0.9380  0.6133
 8798TIP3    H247886   1.668   5.297   4.103  0.0361 -0.5090  1.3663
 8799TIP3   OH247887   1.003   4.033  15.294  0.2672 -0.1623  0.3274
 8799TIP3    H147888   1.039   4.121  15.305  0.6489 -0.4442  1.4745
 8799TIP3    H247889   1.077   3.974  15.311  0.4895 -0.7206 -2.2529
 8800TIP3   OH247890   0.469   0.867   3.045 -0.3514  0.2334  0.4954
 8800TIP3    H147891   0.425   0.933   3.099 -0.8947 -0.6897  1.2202
 8800TIP3    H247892   0.401   0.803   3.024  0.3980 -0.6891  0.7779
 8801TIP3   OH247893   6.449   4.664   5.063  0.4522  0.1628 -0.1372
 8801TIP3    H147894   6.498   4.661   4.980  0.8481  0.7783  0.0686
 8801TIP3    H247895   6.392   4.741   5.054  2.0252  1.5097  0.9915
 8802TIP3   OH247896   5.197   1.664  11.347  0.4067  0.0232 -0.6082
 8802TIP3    H147897   5.272   1.716  11.377  1.0983 -2.1677  1.8194
 8802TIP3    H247898   5.232   1.577  11.333 -1.6157 -1.0332  0.4098
 8803TIP3   OH247899   5.471   6.093   1.990 -0.4353  0.6546  0.3158
 8803TIP3    H147900   5.485   6.034   1.916 -0.9049  0.0019  0.7310
 8803TIP3    H247901   5.559   6.109   2.024 -0.3615 -0.7379  0.8793
 8804TIP3   OH247902   3.595   3.445  13.212 -0.1603 -0.3791  0.1776
 8804TIP3    H147903   3.662   3.463  13.278 -0.5487  2.4640 -0.0760
 8804TIP3    H247904   3.618   3.501  13.138 -1.8596 -0.6107 -0.5864
 8805TIP3   OH247905   0.381   0.231  12.653  0.5045 -0.3144 -0.2917
 8805TIP3    H147906   0.411   0.153  12.699 -0.7716 -0.9125 -0.4315
 8805TIP3    H247907   0.335   0.197  12.576  0.2475  0.5939 -0.5508
 8806TIP3   OH247908   5.702   0.521   4.639 -0.3386  0.3525 -0.0016
 8806TIP3    H147909   5.608   0.515   4.628 -0.4547 -0.4671  1.1629
 8806TIP3    H247910   5.724   0.449   4.698  0.7621  1.5664  1.1636
 8807TIP3   OH247911   5.607   3.600  16.050  0.2672  0.0180 -0.2522
 8807TIP3    H147912   5.654   3.540  15.991 -0.2396 -0.1792 -0.4616
 8807TIP3    H247913   5.607   3.556  16.134 -0.6646 -0.5888 -0.5538
 8808TIP3   OH247914   3.062   1.459   3.401 -0.5869  0.0880 -0.3837
 8808TIP3    H147915   3.114   1.531   3.367 -0.1523 -0.4796 -0.9482
 8808TIP3    H247916   3.032   1.489   3.487 -0.3284  0.8924 -0.5705
 8809TIP3   OH247917   2.046   2.424  12.686  0.1450 -0.0790  0.0083
 8809TIP3    H147918   1.993   2.381  12.619  0.7389 -0.6771 -0.1031
 8809TIP3    H247919   2.127   2.448  12.640  1.1996 -1.8694  0.8192
 8810TIP3   OH247920   3.740   0.413   4.729 -0.0897  0.1717  0.1652
 8810TIP3    H147921   3.701   0.335   4.770 -0.1582  0.4654  0.6732
 8810TIP3    H247922   3.730   0.482   4.795 -0.7531  0.8116 -0.5853
 8811TIP3   OH247923   5.711   3.708   1.906  0.1269 -0.0844 -0.0801
 8811TIP3    H147924   5.685   3.745   1.990  0.2188  1.4551 -0.6937
 8811TIP3    H247925   5.795   3.665   1.923 -0.2121 -0.4259  0.7592
 8812TIP3   OH247926   5.631   5.346  13.010  0.0882  0.0244 -0.3173
 8812TIP3    H147927   5.626   5.256  12.978  1.1273 -0.0343 -0.3360
 8812TIP3    H247928   5.596   5.398  12.937 -0.9824 -0.3893 -0.1141
 8813TIP3   OH247929   3.252   2.570  13.815  0.6020  0.3337  0.1163
 8813TIP3    H147930   3.304   2.496  13.784  0.9339  0.9805 -0.9385
 8813TIP3    H247931   3.162   2.548  13.792  0.3865 -0.7344  1.8344
 8814TIP3   OH247932   6.318   4.244   3.972 -0.1942  0.2300  0.9980
 8814TIP3    H147933   6.267   4.179   3.924  1.5676  0.1810 -0.9532
 8814TIP3    H247934   6.383   4.193   4.020  1.1089  0.4488 -0.4343
 8815TIP3   OH247935   6.493   5.100   1.272 -0.2851 -0.1235 -0.1587
 8815TIP3    H147936   6.410   5.139   1.245  0.1513  1.9561  1.2398
 8815TIP3    H247937   6.560   5.159   1.237  0.3882  0.6244  2.1797
 8816TIP3   OH247938   3.415   3.576   2.758  0.2093  0.3709 -0.2554
 8816TIP3    H147939   3.350   3.595   2.690 -0.3488 -2.2803 -0.5716
 8816TIP3    H247940   3.371   3.517   2.818  1.7481  0.0292  0.6001
 8817TIP3   OH247941   3.940   1.835   5.200 -0.2823  0.8900 -0.0269
 8817TIP3    H147942   4.006   1.769   5.181 -0.6767  0.3674  0.3840
 8817TIP3    H247943   3.989   1.915   5.218  0.2220  0.5553  0.0813
 8818TIP3   OH247944   6.058   2.657  16.755 -0.1538 -0.0379  0.1873
 8818TIP3    H147945   6.139   2.621  16.718 -0.0370 -0.6827  1.0207
 8818TIP3    H247946   6.087   2.735  16.802 -0.0973  0.0556 -0.0053
 8819TIP3   OH247947   0.488   1.256  15.319 -0.5357 -0.1283 -0.6521
 8819TIP3    H147948   0.565   1.211  15.355 -0.2700  0.7946 -0.0427
 8819TIP3    H247949   0.513   1.348  15.315 -1.5457  0.1633 -0.6250
 8820TIP3   OH247950   0.725   5.774   4.969 -0.4140 -0.1771 -0.1901
 8820TIP3    H147951   0.702   5.683   4.989 -0.0811  0.0188  1.2111
 8820TIP3    H247952   0.762   5.771   4.881  1.2532 -1.7031  0.4948
 8821TIP3   OH247953   1.538   6.118  16.303  0.6716  0.1168 -0.0379
 8821TIP3    H147954   1.521   6.024  16.313  1.6769 -0.3252 -1.9861
 8821TIP3    H247955   1.464   6.160  16.346 -0.1315 -1.5789  0.3311
 8822TIP3   OH247956   2.051   1.572   2.699 -0.2273  0.1745 -0.1480
 8822TIP3    H147957   1.987   1.642   2.690  0.8044  1.3818  1.4049
 8822TIP3    H247958   2.136   1.616   2.699  0.4359 -0.9950  1.1631
 8823TIP3   OH247959   2.212   2.782   0.365  0.0518  0.1298  0.0130
 8823TIP3    H147960   2.159   2.741   0.433  0.6612  0.0382  0.4389
 8823TIP3    H247961   2.185   2.738   0.284  0.5987 -1.0392  0.4423
 8824TIP3   OH247962   6.088   5.978   2.515 -0.7469  0.0644 -0.2845
 8824TIP3    H147963   6.071   5.907   2.576 -0.1951  0.7555  0.6951
 8824TIP3    H247964   6.072   6.058   2.565 -1.4331  0.6497 -1.3834
 8825TIP3   OH247965   3.799   3.816  14.906 -0.3988  0.0916 -0.1777
 8825TIP3    H147966   3.721   3.864  14.932 -0.9364 -0.7475 -0.1904
 8825TIP3    H247967   3.859   3.824  14.980 -0.3258  1.0820 -0.3349
 8826TIP3   OH247968   1.834   1.189  12.731 -0.0662 -0.0122  0.2484
 8826TIP3    H147969   1.826   1.259  12.795  0.4932  0.4337 -0.1638
 8826TIP3    H247970   1.744   1.168  12.708 -0.3537 -1.0508  2.0939
 8827TIP3   OH247971   2.809   2.568  11.956  0.2166 -0.1694 -0.2174
 8827TIP3    H147972   2.842   2.556  11.867  0.8463 -0.3242  0.0305
 8827TIP3    H247973   2.888   2.569  12.011 -0.1497  0.1379  0.3148
 8828TIP3   OH247974   3.948   0.680   0.387  0.8394 -0.4522  0.3156
 8828TIP3    H147975   3.972   0.598   0.346  0.9408 -0.1603 -0.2110
 8828TIP3    H247976   3.867   0.706   0.344  0.8113 -0.2674  0.4757
 8829TIP3   OH247977   1.355   1.054  12.872  0.2895  0.1333 -0.3124
 8829TIP3    H147978   1.429   0.993  12.869  0.8920  0.8649 -0.8010
 8829TIP3    H247979   1.308   1.038  12.790 -1.7288 -2.2639  1.1912
 8830TIP3   OH247980   2.124   3.235   0.436 -0.0453  0.4764  0.1180
 8830TIP3    H147981   2.152   3.188   0.514 -0.3668 -2.0551 -1.1849
 8830TIP3    H247982   2.160   3.184   0.363  1.8577  3.7526 -1.4656
 8831TIP3   OH247983   6.818   5.546   2.907 -0.3318  0.5980  0.3113
 8831TIP3    H147984   6.734   5.534   2.863 -0.7362  1.2124  0.9068
 8831TIP3    H247985   6.862   5.615   2.857  0.7566 -1.1254 -1.3069
 8832TIP3   OH247986   0.339   1.192  16.431  0.0147 -0.3486 -0.0252
 8832TIP3    H147987   0.293   1.270  16.400  0.0755 -0.3321 -0.0734
 8832TIP3    H247988   0.268   1.130  16.452 -0.3180  1.2143  4.3553
 8833TIP3   OH247989   2.761   3.895  14.003  0.1122 -0.5493 -0.6929
 8833TIP3    H147990   2.854   3.919  14.006 -0.2725  1.0043  2.0316
 8833TIP3    H247991   2.755   3.815  14.055 -0.2842  0.4368  0.8409
 8834TIP3   OH247992   6.546   5.648  16.353  0.6554 -0.1073 -0.3069
 8834TIP3    H147993   6.485   5.645  16.427 -0.7631 -1.8284 -1.4591
 8834TIP3    H247994   6.629   5.617  16.390  0.0867 -0.5317  0.6716
 8835TIP3   OH247995   6.513   2.102   2.998 -0.3743  0.1047 -0.2154
 8835TIP3    H147996   6.463   2.090   2.917 -0.3176 -1.0394 -0.1026
 8835TIP3    H247997   6.596   2.055   2.981  0.1438  0.9051  0.0592
 8836TIP3   OH247998   4.798   1.700  15.001  0.7770 -0.3300  0.3536
 8836TIP3    H147999   4.871   1.653  14.960  0.7041 -0.2342  0.1093
 8836TIP3    H248000   4.736   1.715  14.929  1.0170  0.5672  0.3118
 8837TIP3   OH248001   3.175   4.603   3.699 -0.0453 -0.1814 -0.4391
 8837TIP3    H148002   3.099   4.547   3.687 -0.3892  0.0917  0.3942
 8837TIP3    H248003   3.157   4.680   3.645 -0.4901  0.0021 -0.0377
 8838TIP3   OH248004   0.472   0.181   0.211  0.0924  0.1077  0.4604
 8838TIP3    H148005   0.499   0.240   0.281  0.7651 -0.5443  0.7720
 8838TIP3    H248006   0.529   0.203   0.137 -0.5615  0.7395  0.1328
 8839TIP3   OH248007   4.949   3.611  17.034  0.3437 -0.5919 -0.5384
 8839TIP3    H148008   4.993   3.645  16.956  1.1710  0.7257  0.4612
 8839TIP3    H248009   4.991   3.526  17.050  0.4653 -0.6779 -1.2640
 8840TIP3   OH248010   3.518   1.990  12.257 -0.6779 -0.2066 -0.5664
 8840TIP3    H148011   3.522   1.903  12.218 -1.0132 -0.4903  0.0297
 8840TIP3    H248012   3.427   2.002  12.282 -0.8856  0.7901 -1.6879
 8841TIP3   OH248013   1.377   2.163  13.271  0.0937  0.1208  0.0434
 8841TIP3    H148014   1.442   2.179  13.340  0.7972 -3.3782  0.3724
 8841TIP3    H248015   1.421   2.192  13.191  0.6651  0.9857  0.6461
 8842TIP3   OH248016   4.099   0.734   1.664 -0.5513  0.4158  0.0817
 8842TIP3    H148017   4.004   0.750   1.665 -0.6735 -0.1294 -1.1721
 8842TIP3    H248018   4.120   0.709   1.754 -1.8140 -0.6422  0.1091
 8843TIP3   OH248019   4.882   1.880  12.532  0.2857  0.3497  0.2923
 8843TIP3    H148020   4.809   1.942  12.525 -0.1675 -0.1189  0.8187
 8843TIP3    H248021   4.934   1.913  12.605  0.6838  0.7615 -0.1694
 8844TIP3   OH248022   0.570   6.623   1.317 -0.2096  0.3463  0.6747
 8844TIP3    H148023   0.547   6.607   1.409  0.6685  0.1199  0.8612
 8844TIP3    H248024   0.581   6.718   1.311 -2.1330  0.5986  0.3424
 8845TIP3   OH248025   4.182   1.133   2.051 -0.0821 -1.0019 -0.2901
 8845TIP3    H148026   4.191   1.206   2.112  0.7806 -1.7179  0.4664
 8845TIP3    H248027   4.259   1.139   1.994 -0.3481 -0.9456 -0.6502
 8846TIP3   OH248028   0.568   0.358  15.573  0.2558 -0.0519  0.2937
 8846TIP3    H148029   0.619   0.427  15.616  2.7577  0.7642 -3.4294
 8846TIP3    H248030   0.628   0.321  15.508 -3.2700 -0.3373 -3.2173
 8847TIP3   OH248031   0.069   6.145   2.399  0.4093 -0.5907  0.6501
 8847TIP3    H148032   0.113   6.101   2.326  0.9687  0.7842  0.1419
 8847TIP3    H248033  -0.003   6.192   2.359  0.7957  0.2711  0.9541
 8848TIP3   OH248034   3.808   4.101  12.541  0.4224  0.3938  0.1040
 8848TIP3    H148035   3.796   4.193  12.520 -0.4955  0.0257 -1.1068
 8848TIP3    H248036   3.890   4.076  12.498  0.4236  0.5197  0.0350
 8849TIP3   OH248037   0.475   2.930  10.947 -0.2041  0.6173 -0.0341
 8849TIP3    H148038   0.541   2.995  10.970  1.7594 -0.9269 -0.9886
 8849TIP3    H248039   0.394   2.980  10.936  1.2720  2.9518 -1.0318
 8850TIP3   OH248040   5.913   6.350  11.055  0.4197  0.4002 -0.2310
 8850TIP3    H148041   5.979   6.344  10.986  0.2506  1.1153 -0.4663
 8850TIP3    H248042   5.884   6.441  11.052 -2.3495 -0.4222 -1.7658
 8851TIP3   OH248043   6.767   2.261   2.691  0.0254  0.3425 -0.2735
 8851TIP3    H148044   6.728   2.315   2.760  0.8647  0.7235 -0.0824
 8851TIP3    H248045   6.697   2.250   2.627  0.2699  3.2124 -1.2151
 8852TIP3   OH248046   0.524   4.277   4.494  0.4424  0.1391 -0.3072
 8852TIP3    H148047   0.591   4.345   4.491  0.5847  0.1813  1.8754
 8852TIP3    H248048   0.525   4.247   4.585 -2.4008  0.0345 -0.2272
 8853TIP3   OH248049   0.651   4.805   2.330 -0.3132 -0.4166  0.5836
 8853TIP3    H148050   0.657   4.877   2.267  0.3144 -2.4728 -1.8892
 8853TIP3    H248051   0.735   4.806   2.376 -0.5318  0.7478  0.9748
 8854TIP3   OH248052   5.382   1.551   3.753  0.7853 -1.1903 -0.8730
 8854TIP3    H148053   5.340   1.471   3.722 -0.9013 -0.4735 -0.5483
 8854TIP3    H248054   5.382   1.610   3.677 -0.0596 -0.7094 -0.5117
 8855TIP3   OH248055   3.716   5.383  14.133 -0.1007  0.9253  0.1811
 8855TIP3    H148056   3.785   5.328  14.097 -0.3213  0.9079 -0.2217
 8855TIP3    H248057   3.742   5.472  14.111 -1.1174  0.8239 -1.6244
 8856TIP3   OH248058   2.176   1.496   6.576 -0.4507 -0.0487 -0.2716
 8856TIP3    H148059   2.131   1.524   6.656 -0.8058  0.0288 -0.4966
 8856TIP3    H248060   2.265   1.529   6.586 -0.5231  0.0531  0.0457
 8857TIP3   OH248061   0.876   0.393   2.449 -0.0700  0.3729 -0.0498
 8857TIP3    H148062   0.883   0.481   2.411 -2.3698  1.5552  1.9993
 8857TIP3    H248063   0.935   0.395   2.524 -0.2582  0.2235  0.1001
 8858TIP3   OH248064   6.551   4.341  15.202  0.0577  0.1593 -0.2202
 8858TIP3    H148065   6.489   4.299  15.142 -0.3473 -0.8360  0.8553
 8858TIP3    H248066   6.537   4.435  15.189  0.9668  0.0231 -2.6589
 8859TIP3   OH248067   3.139   0.460  16.042  0.4165 -0.0288  0.0379
 8859TIP3    H148068   3.103   0.396  16.103  2.8148 -1.0888  0.4833
 8859TIP3    H248069   3.193   0.517  16.097 -0.7669  1.7029 -0.5314
 8860TIP3   OH248070   4.595   6.072  15.674 -0.2899  0.2658  0.2556
 8860TIP3    H148071   4.500   6.071  15.679 -0.3346  0.0626 -0.5411
 8860TIP3    H248072   4.617   6.153  15.629 -0.1468 -0.2115 -0.5546
 8861TIP3   OH248073   4.363   2.548   4.348  0.5181  0.0262 -0.3821
 8861TIP3    H148074   4.283   2.580   4.391  0.8560  1.5288 -0.8003
 8861TIP3    H248075   4.411   2.503   4.418  0.4266  1.2401  0.5151
 8862TIP3   OH248076   3.172   6.623   2.071  0.0413 -0.4049 -0.4024
 8862TIP3    H148077   3.102   6.680   2.039 -0.5910 -1.1036 -0.2826
 8862TIP3    H248078   3.177   6.640   2.165 -0.2138 -0.6150 -0.3501
 8863TIP3   OH248079   5.256   1.651  15.335  0.4665  0.0916 -0.2231
 8863TIP3    H148080   5.251   1.722  15.399  2.7568  1.4693 -1.4379
 8863TIP3    H248081   5.342   1.613  15.348  1.2826  0.8518 -2.8385
 8864TIP3   OH248082   3.698   5.049  16.593 -0.2909 -0.3233  0.1123
 8864TIP3    H148083   3.773   4.990  16.597 -0.5379 -0.6180  0.4129
 8864TIP3    H248084   3.725   5.117  16.531  0.0617 -0.6548 -0.1045
 8865TIP3   OH248085   4.074   5.321  16.958  0.1775  0.3794  1.0005
 8865TIP3    H148086   4.113   5.246  16.913 -4.5524 -1.6699 -0.3824
 8865TIP3    H248087   4.007   5.282  17.016 -2.3428  3.4158  0.4238
 8866TIP3   OH248088   0.402   5.333   4.001 -0.0789  0.5389  0.2189
 8866TIP3    H148089   0.368   5.389   4.070 -1.0879  1.1831 -0.7704
 8866TIP3    H248090   0.493   5.360   3.991 -0.4366  1.7294  0.0432
 8867TIP3   OH248091   2.853   0.423  11.405  0.1810 -0.1465 -0.2521
 8867TIP3    H148092   2.859   0.508  11.361 -1.0434  0.5730  0.8770
 8867TIP3    H248093   2.771   0.385  11.374 -0.5333  0.2250  1.0844
 8868TIP3   OH248094   5.245   0.182  11.781 -0.0949  0.4083  0.5242
 8868TIP3    H148095   5.205   0.117  11.839 -0.0406 -0.5543 -0.4857
 8868TIP3    H248096   5.300   0.131  11.722 -1.3919  1.1718 -1.4488
 8869TIP3   OH248097   3.121   1.900   5.241  0.2597  0.3196 -0.5408
 8869TIP3    H148098   3.128   1.832   5.307  1.3533 -1.1416 -2.0861
 8869TIP3    H248099   3.037   1.883   5.198 -0.7858  1.6895  0.8243
 8870TIP3   OH248100   4.477   1.356   4.878  0.0528 -0.3085  0.0121
 8870TIP3    H148101   4.508   1.281   4.828 -0.6205 -1.4826  1.2906
 8870TIP3    H248102   4.456   1.422   4.811  3.7254  0.0427 -0.9971
 8871TIP3   OH248103   3.162   6.607  13.715  0.4998 -0.3380  0.2451
 8871TIP3    H148104   3.079   6.616  13.762 -1.0016 -0.0010 -2.2373
 8871TIP3    H248105   3.179   6.513  13.713  0.5848 -0.3588  1.3847
 8872TIP3   OH248106   0.112   6.664   4.084 -0.0909 -0.2972  0.4473
 8872TIP3    H148107   0.160   6.621   4.154 -0.5702  0.1062  1.0336
 8872TIP3    H248108   0.074   6.742   4.125 -1.4779 -0.7456  0.0911
 8873TIP3   OH248109   0.665   5.596  11.776 -0.0412  0.5141 -0.3583
 8873TIP3    H148110   0.699   5.627  11.860  0.2282  2.2776 -1.0740
 8873TIP3    H248111   0.738   5.546  11.737  0.1276  0.4234  0.0706
 8874TIP3   OH248112   2.106   5.851  16.053  0.3509 -0.4747  0.0530
 8874TIP3    H148113   2.124   5.917  15.986 -0.7398  0.4016  0.6044
 8874TIP3    H248114   2.011   5.846  16.058  0.3761  0.1195  2.1451
 8875TIP3   OH248115   5.744   2.184  13.629 -0.0130  0.0575 -0.6060
 8875TIP3    H148116   5.709   2.241  13.698  0.2403  1.1941 -1.3820
 8875TIP3    H248117   5.794   2.117  13.677 -1.2453 -0.1904  0.3832
 8876TIP3   OH248118   1.101   3.154  15.682  0.4138 -0.2386  0.3587
 8876TIP3    H148119   1.076   3.186  15.769 -0.7062 -0.7593  0.2421
 8876TIP3    H248120   1.144   3.070  15.698  3.3191  1.1888  0.6614
 8877TIP3   OH248121   0.947   5.654   1.344 -0.2807  0.1471  0.2294
 8877TIP3    H148122   0.934   5.561   1.365 -0.2373 -0.2633 -1.4180
 8877TIP3    H248123   0.908   5.701   1.418 -1.6310 -1.1559  0.3983
 8878TIP3   OH248124   2.630   0.300  11.330 -0.4940  0.3165  0.6335
 8878TIP3    H148125   2.573   0.308  11.253 -0.0640  1.3017  0.4023
 8878TIP3    H248126   2.614   0.212  11.362 -2.2210  0.5862  0.6260
 8879TIP3   OH248127   6.231   4.192  12.604 -0.2167  0.2338 -0.3105
 8879TIP3    H148128   6.317   4.181  12.645 -0.3101  1.7336  0.3395
 8879TIP3    H248129   6.241   4.269  12.549 -0.6529 -0.6411 -1.6616
 8880TIP3   OH248130   2.309   5.819   4.228 -0.0925  0.2727  0.2457
 8880TIP3    H148131   2.398   5.842   4.256  0.2024 -1.3305  0.7836
 8880TIP3    H248132   2.323   5.754   4.159 -0.8463  0.5494 -0.1684
 8881TIP3   OH248133   1.915   0.503   1.116 -0.3756  0.1320  0.0791
 8881TIP3    H148134   1.984   0.516   1.182 -1.2609  1.5152  0.7726
 8881TIP3    H248135   1.952   0.540   1.036  0.5036 -1.0862 -0.1048
 8882TIP3   OH248136   3.564   6.456   3.177  0.6942  0.4851 -0.1127
 8882TIP3    H148137   3.567   6.430   3.269 -2.8588  2.4298  0.7433
 8882TIP3    H248138   3.539   6.376   3.130  0.6101 -0.0951  0.9061
 8883TIP3   OH248139   2.581   2.142   5.584  0.1378 -0.1894 -0.2135
 8883TIP3    H148140   2.630   2.198   5.644  0.9091  0.9431 -1.8281
 8883TIP3    H248141   2.527   2.087   5.641  0.5159  1.1212  1.4892
 8884TIP3   OH248142   5.208   2.873  11.437 -0.4896  0.2899 -0.0139
 8884TIP3    H148143   5.234   2.965  11.439 -1.4575  0.5695  0.3930
 8884TIP3    H248144   5.234   2.839  11.522 -1.2666  0.5172  0.3161
 8885TIP3   OH248145   4.276   5.572   5.169 -0.8586 -0.7044  0.1794
 8885TIP3    H148146   4.288   5.642   5.232  3.2428 -0.0843 -0.9789
 8885TIP3    H248147   4.292   5.491   5.219 -1.9675 -0.5846  0.7573
 8886TIP3   OH248148   1.368   6.342  15.365  0.5217  0.5536 -0.1913
 8886TIP3    H148149   1.374   6.338  15.461  1.1785 -1.2144 -0.2736
 8886TIP3    H248150   1.279   6.370  15.348 -0.2847 -1.1151  0.9657
 8887TIP3   OH248151   1.452   0.306   3.934  0.0833 -0.1803 -0.2249
 8887TIP3    H148152   1.515   0.330   3.865  1.5715  1.0268  1.4553
 8887TIP3    H248153   1.376   0.361   3.916  0.6728  0.5405 -0.5917
 8888TIP3   OH248154   6.547   4.218  16.749 -0.2467 -0.4853  0.4122
 8888TIP3    H148155   6.610   4.214  16.821  1.4882  0.3996 -0.9984
 8888TIP3    H248156   6.504   4.132  16.751  1.1063 -1.1841  1.3311
 8889TIP3   OH248157   5.415   0.964  13.554 -0.1012  0.0670  0.5640
 8889TIP3    H148158   5.474   0.909  13.607 -0.6719 -2.6772 -1.4144
 8889TIP3    H248159   5.328   0.947  13.590 -0.1845  0.5819  0.6175
 8890TIP3   OH248160   1.707   3.680   5.005 -0.0838  0.0005  0.1558
 8890TIP3    H148161   1.719   3.585   5.010  0.2342  0.0680  0.8451
 8890TIP3    H248162   1.615   3.691   4.982 -1.0468 -0.4919  3.2210
 8891TIP3   OH248163   2.926   0.091  14.739  0.2233  0.6457  0.3798
 8891TIP3    H148164   2.858   0.099  14.805 -0.0755 -2.4041  0.5548
 8891TIP3    H248165   2.879   0.091  14.656  0.3542  1.7240  0.2878
 8892TIP3   OH248166   6.603   0.109  11.502 -0.4066  0.1632 -0.4390
 8892TIP3    H148167   6.691   0.073  11.515 -0.7662  0.3642  4.1683
 8892TIP3    H248168   6.612   0.202  11.520 -1.3812  0.3912 -1.0788
 8893TIP3   OH248169   2.262   3.429   0.232 -0.0958 -0.4615 -0.1527
 8893TIP3    H148170   2.258   3.334   0.242  0.4830 -0.5035 -0.3089
 8893TIP3    H248171   2.346   3.446   0.191 -0.9170 -0.0183 -1.7488
 8894TIP3   OH248172   3.705   0.359   0.255 -0.2622 -0.1801  0.0112
 8894TIP3    H148173   3.685   0.422   0.185 -0.9847 -1.8069 -1.3283
 8894TIP3    H248174   3.638   0.376   0.322  0.2509  1.1941  0.2166
 8895TIP3   OH248175   4.090   4.937   3.607  0.2612 -0.6484 -0.3874
 8895TIP3    H148176   4.047   4.913   3.689 -0.7790 -0.9979 -1.0233
 8895TIP3    H248177   4.115   4.853   3.568 -0.5898 -0.5586 -1.1359
 8896TIP3   OH248178   2.041   0.518   4.259 -0.0386  0.4501 -0.3139
 8896TIP3    H148179   1.984   0.571   4.203  0.0763 -0.3210 -1.1972
 8896TIP3    H248180   2.035   0.559   4.345  0.1702  1.9832 -0.9916
 8897TIP3   OH248181   4.054   5.406   1.181  0.4014 -0.2420 -0.6133
 8897TIP3    H148182   4.110   5.436   1.109  1.8542 -1.3214  0.0271
 8897TIP3    H248183   4.037   5.314   1.162  0.1150 -0.3193 -0.0106
 8898TIP3   OH248184   5.954   5.639  12.161 -0.0239  0.4099 -0.4094
 8898TIP3    H148185   6.032   5.622  12.107  0.8890  1.0055  0.6818
 8898TIP3    H248186   5.960   5.732  12.183  0.9122 -0.2318  2.5705
 8899TIP3   OH248187   6.392   6.364  15.731  0.0212 -0.0980  0.1238
 8899TIP3    H148188   6.399   6.355  15.826  0.7746 -0.5216  0.0390
 8899TIP3    H248189   6.480   6.344  15.699  0.1953  1.6117 -0.5551
 8900TIP3   OH248190   4.715   5.066   4.237  0.0738  0.0350  0.4507
 8900TIP3    H148191   4.692   5.077   4.145 -1.2724  1.0048  0.8605
 8900TIP3    H248192   4.636   5.029   4.277  1.2246 -2.0276  0.9377
 8901TIP3   OH248193   1.243   0.613   5.117 -0.0886  0.3438 -0.0623
 8901TIP3    H148194   1.274   0.702   5.129  1.3207 -0.0561 -0.5334
 8901TIP3    H248195   1.148   0.618   5.128  0.1740  1.4981  2.1784
 8902TIP3   OH248196   1.926   1.297   1.270  0.0734 -0.0244 -0.6597
 8902TIP3    H148197   1.991   1.233   1.243  0.6219  0.2450  0.0080
 8902TIP3    H248198   1.853   1.284   1.209  0.2050 -1.2219 -0.5806
 8903TIP3   OH248199   3.254   5.106   2.948 -0.1169 -0.4459  0.0209
 8903TIP3    H148200   3.298   5.186   2.921 -1.6198  1.1806  2.0376
 8903TIP3    H248201   3.289   5.087   3.035 -0.5928 -1.3338  0.0323
 8904TIP3   OH248202   5.240   3.788   2.222  0.1594  0.3684 -0.1882
 8904TIP3    H148203   5.172   3.732   2.259  0.6493 -1.4404 -1.8167
 8904TIP3    H248204   5.215   3.799   2.131  1.0988  1.2108 -0.3663
 8905TIP3   OH248205   4.722   1.348  12.150  0.3173 -0.0136 -0.3639
 8905TIP3    H148206   4.813   1.371  12.167 -0.3119  0.7916  2.6391
 8905TIP3    H248207   4.674   1.431  12.157 -0.8539 -0.7088  0.2158
 8906TIP3   OH248208   2.282   2.410  16.036  0.3837  0.5338 -0.1239
 8906TIP3    H148209   2.287   2.321  16.003 -0.9617  1.1766 -2.3108
 8906TIP3    H248210   2.206   2.410  16.094 -0.4091  0.5059 -1.1332
 8907TIP3   OH248211   2.730   3.030  12.976 -0.2990 -0.0019 -0.8887
 8907TIP3    H148212   2.649   2.982  12.991 -0.1321 -0.2473 -0.7679
 8907TIP3    H248213   2.705   3.122  12.981 -0.0744  0.0005  2.0946
 8908TIP3   OH248214   0.446   5.280   6.088 -0.6815 -0.0659 -0.0459
 8908TIP3    H148215   0.444   5.375   6.098 -0.2572 -0.1418  0.9199
 8908TIP3    H248216   0.356   5.256   6.066 -0.8587  0.5328  0.0129
 8909TIP3   OH248217   5.336   3.266   3.129  0.4979 -0.1073  0.5179
 8909TIP3    H148218   5.412   3.246   3.184  0.0701 -1.2343  0.7182
 8909TIP3    H248219   5.364   3.244   3.040  0.7728  0.5379  0.4397
 8910TIP3   OH248220   2.811   5.101   1.037 -0.3774 -0.5565 -0.1226
 8910TIP3    H148221   2.777   5.190   1.050  0.2726 -0.2180 -0.7071
 8910TIP3    H248222   2.876   5.090   1.106 -1.7199 -1.2548  1.0834
 8911TIP3   OH248223   0.125   3.570  13.667  0.6115  0.2724  0.2891
 8911TIP3    H148224   0.111   3.528  13.582 -2.2002  2.8822 -0.7343
 8911TIP3    H248225   0.217   3.597  13.666  0.6614  0.1938 -1.9361
 8912TIP3   OH248226   3.828   1.528  10.743  0.0345  0.3954  0.1377
 8912TIP3    H148227   3.919   1.527  10.716  0.3533  0.6591  1.1570
 8912TIP3    H248228   3.781   1.565  10.668  0.5768 -0.9424 -0.8889
 8913TIP3   OH248229   6.401   5.870   4.207 -0.2133  0.2312 -0.6975
 8913TIP3    H148230   6.432   5.917   4.130  1.6861 -0.1537 -0.2342
 8913TIP3    H248231   6.475   5.874   4.269 -1.1784 -0.6232  0.5736
 8914TIP3   OH248232   4.413   2.435   6.271 -0.2776 -0.0419 -0.0887
 8914TIP3    H148233   4.367   2.425   6.354  0.7322 -0.7864  0.4088
 8914TIP3    H248234   4.411   2.348   6.231  0.9671 -0.1949  0.1221
 8915TIP3   OH248235   4.335   2.530   5.248 -0.2246 -0.0381 -0.4608
 8915TIP3    H148236   4.381   2.518   5.166 -0.5407  1.2793 -0.8518
 8915TIP3    H248237   4.283   2.610   5.236 -0.1865  0.2568  1.0469
 8916TIP3   OH248238   0.642   5.290  16.301 -0.0320  0.0580  0.0486
 8916TIP3    H148239   0.701   5.238  16.248  1.2391  1.0804  0.4059
 8916TIP3    H248240   0.692   5.368  16.324 -0.5374 -0.2823  2.6546
 8917TIP3   OH248241   4.244   5.948  14.215 -0.0303 -0.2248 -0.1446
 8917TIP3    H148242   4.228   5.922  14.306  0.8794 -1.6924 -0.3810
 8917TIP3    H248243   4.169   6.005  14.194  0.6444  1.6759  2.0720
 8918TIP3   OH248244   3.318   4.366  13.351  0.0454  0.5361  0.1280
 8918TIP3    H148245   3.405   4.398  13.325  1.1701 -1.8522  0.7293
 8918TIP3    H248246   3.323   4.360  13.446 -0.5497 -0.2554  0.1117
 8919TIP3   OH248247   6.417   1.310  10.622  0.1159  0.1914  0.0677
 8919TIP3    H148248   6.496   1.269  10.656  0.2701  0.4219 -0.0132
 8919TIP3    H248249   6.358   1.236  10.603  0.6335 -0.0359 -0.6988
 8920TIP3   OH248250   2.639   4.148  13.986  0.4367  0.4840  0.0340
 8920TIP3    H148251   2.551   4.112  13.995  0.4020  1.0095  2.5238
 8920TIP3    H248252   2.695   4.071  13.971 -0.3042  0.0373 -0.5117
 8921TIP3   OH248253   2.439   3.090  15.799  0.1370 -0.3805  0.5277
 8921TIP3    H148254   2.433   2.996  15.780  0.1636 -0.0947 -0.9988
 8921TIP3    H248255   2.411   3.133  15.718 -0.3906  0.9398  1.3818
 8922TIP3   OH248256   0.462   3.238   5.303  0.7104  0.1163  0.5437
 8922TIP3    H148257   0.525   3.292   5.256  1.7132  0.1724  1.9011
 8922TIP3    H248258   0.377   3.274   5.278  1.3253  2.0075  1.0029
 8923TIP3   OH248259   1.042   6.778   3.235 -0.4961  0.6379 -0.0738
 8923TIP3    H148260   0.965   6.788   3.290  0.8237  2.0091  1.6493
 8923TIP3    H248261   1.032   6.845   3.167  0.0806  2.2831  1.3662
 8924TIP3   OH248262   3.188   6.737   4.664 -0.4153  0.5846  0.1371
 8924TIP3    H148263   3.249   6.803   4.632 -1.2650  2.0671  1.4517
 8924TIP3    H248264   3.243   6.675   4.713  0.2944  0.6931 -0.5063
 8925TIP3   OH248265   2.399   2.324   6.492 -0.4445  0.1509  0.7211
 8925TIP3    H148266   2.403   2.265   6.417  0.2864  0.3583  0.5915
 8925TIP3    H248267   2.315   2.368   6.484  0.0554  0.9093 -0.5308
 8926TIP3   OH248268   3.280   4.606   0.173 -0.7005  0.4151  0.4066
 8926TIP3    H148269   3.368   4.621   0.208 -0.7559  0.4233  0.5463
 8926TIP3    H248270   3.251   4.525   0.217 -0.8797  0.5791  0.5922
 8927TIP3   OH248271   4.491   0.966  12.988 -0.0962  0.4363  0.4749
 8927TIP3    H148272   4.586   0.961  12.987 -0.0059 -0.0957  3.2388
 8927TIP3    H248273   4.462   0.882  12.955  0.3506  0.7721 -0.8267
 8928TIP3   OH248274   4.971   0.817  16.292 -0.1092  0.2006 -0.2032
 8928TIP3    H148275   5.020   0.740  16.263  0.5535  0.8290 -0.8069
 8928TIP3    H248276   4.905   0.831  16.224  0.2184  0.5553 -0.4580
 8929TIP3   OH248277   1.883   0.357   5.922 -0.1875  1.2547 -0.1284
 8929TIP3    H148278   1.893   0.447   5.953  0.9133  0.5470  1.7498
 8929TIP3    H248279   1.849   0.310   5.998 -0.5323  0.0301 -1.0170
 8930TIP3   OH248280   2.706   3.612   5.504 -0.3978  0.3908  0.3156
 8930TIP3    H148281   2.751   3.615   5.588  1.1819 -1.0619 -0.4226
 8930TIP3    H248282   2.661   3.527   5.504 -0.8764  0.6339 -0.0914
 8931TIP3   OH248283   4.044   3.587  10.447  0.2286 -0.4284 -0.2323
 8931TIP3    H148284   4.117   3.643  10.473 -0.6083  1.1131 -1.0546
 8931TIP3    H248285   4.074   3.544  10.367  0.1081  0.5365 -0.8137
 8932TIP3   OH248286   0.364   4.484   4.339 -0.0403 -0.2198 -0.2019
 8932TIP3    H148287   0.411   4.536   4.274 -0.6948  0.6495  0.0016
 8932TIP3    H248288   0.384   4.394   4.316 -0.0594  0.0780 -1.4631
 8933TIP3   OH248289   0.907   3.774   3.820 -0.0077  0.1685  0.3582
 8933TIP3    H148290   0.958   3.717   3.762  1.4254  1.8992 -0.1762
 8933TIP3    H248291   0.933   3.746   3.908 -2.2338 -2.5085  0.3021
 8934TIP3   OH248292   1.054   5.842  16.957 -0.0599  0.5504  0.2927
 8934TIP3    H148293   1.025   5.755  16.983 -1.2221  0.8649  0.1157
 8934TIP3    H248294   1.125   5.863  17.017  0.9759 -0.9416 -0.3498
 8935TIP3   OH248295   0.034   2.368  12.039  0.0761  0.2498 -0.4147
 8935TIP3    H148296   0.066   2.427  12.107 -1.2812  0.9844 -0.3557
 8935TIP3    H248297  -0.040   2.415  12.001 -2.0262 -1.9851  0.6123
 8936TIP3   OH248298   5.127   1.975   1.729  0.0771  0.1326 -0.7018
 8936TIP3    H148299   5.056   1.950   1.670 -0.6003  1.2537 -0.4026
 8936TIP3    H248300   5.087   2.040   1.787  1.8756  2.3724 -1.8455
 8937TIP3   OH248301   2.380   2.799  11.112  0.3858 -0.2588  0.0737
 8937TIP3    H148302   2.412   2.709  11.109 -0.1248 -0.4142 -2.1068
 8937TIP3    H248303   2.383   2.822  11.205 -0.7554 -2.9648  0.8887
 8938TIP3   OH248304   6.529   3.970  12.259  0.0936  0.2914 -0.4263
 8938TIP3    H148305   6.453   3.926  12.295 -0.1738  1.3724  0.3803
 8938TIP3    H248306   6.525   3.952  12.165  0.8123 -2.5842 -0.0018
 8939TIP3   OH248307   3.607   2.715  10.749  0.5857 -0.0087  0.6084
 8939TIP3    H148308   3.528   2.730  10.697  0.1255  2.0146  1.8036
 8939TIP3    H248309   3.626   2.622  10.736 -1.4848 -0.3526 -0.3910
 8940TIP3   OH248310   2.353   1.812   1.040  0.4937 -0.3723  0.0041
 8940TIP3    H148311   2.409   1.740   1.071  0.4182  0.0807  1.2561
 8940TIP3    H248312   2.272   1.770   1.014  1.0205 -0.9163 -0.7911
 8941TIP3   OH248313   1.666   2.711  11.132 -0.1263  0.3810 -0.5687
 8941TIP3    H148314   1.736   2.765  11.096  0.8532 -1.6169 -1.8332
 8941TIP3    H248315   1.651   2.643  11.066 -1.8512 -0.4482  0.5841
 8942TIP3   OH248316   1.249   3.894   4.574  0.0941 -0.4509 -0.5367
 8942TIP3    H148317   1.292   3.895   4.488  1.7521 -0.9300  0.2469
 8942TIP3    H248318   1.293   3.824   4.622 -1.2571 -0.6278  0.5031
 8943TIP3   OH248319   0.570   3.185   6.022  0.1520  0.3187  0.2708
 8943TIP3    H148320   0.593   3.277   6.015  0.6663  0.1337 -0.6242
 8943TIP3    H248321   0.474   3.184   6.013  0.0464  0.8297  1.1823
 8944TIP3   OH248322   4.026   3.802   6.674  0.2578 -0.0430  0.2476
 8944TIP3    H148323   3.981   3.856   6.609  0.0700  0.1340  0.5232
 8944TIP3    H248324   4.117   3.831   6.670  0.0694  0.6347  0.7350
 8945TIP3   OH248325   5.930   3.003  15.372 -0.0734 -0.7138  0.2628
 8945TIP3    H148326   6.023   2.985  15.358 -0.2660 -0.6428 -1.2980
 8945TIP3    H248327   5.929   3.088  15.416  0.5992 -0.3928 -0.3060
 8946TIP3   OH248328   1.159   2.084   3.489  0.2392  0.1502 -0.7687
 8946TIP3    H148329   1.086   2.145   3.483 -0.7903 -0.9694 -0.1339
 8946TIP3    H248330   1.213   2.103   3.413 -0.3976  1.4001 -0.9327
 8947TIP3   OH248331   4.016   2.742  15.920  0.3202 -0.3324  0.4833
 8947TIP3    H148332   3.949   2.782  15.865  0.7748 -0.2228 -0.0063
 8947TIP3    H248333   4.078   2.813  15.938  0.5446 -0.5388  0.5436
 8948TIP3   OH248334   2.121   3.959   0.309  0.0522  0.5245 -0.0854
 8948TIP3    H148335   2.115   3.866   0.287 -0.1369  0.5564 -0.1660
 8948TIP3    H248336   2.031   3.987   0.323  0.2513  0.1623  2.2409
 8949TIP3   OH248337   2.009   6.571   0.187  0.0003 -0.2474  0.8009
 8949TIP3    H148338   1.998   6.483   0.223  0.7035 -0.1242  1.3420
 8949TIP3    H248339   1.925   6.614   0.201 -0.4002 -0.8707  0.3990
 8950TIP3   OH248340   0.116   3.702  13.970 -0.3005  0.5880  0.2522
 8950TIP3    H148341   0.178   3.753  13.917  0.5851  0.4981  1.1664
 8950TIP3    H248342   0.035   3.754  13.969 -0.5008  0.2815 -1.6719
 8951TIP3   OH248343   5.989   1.486  16.664  0.0150 -0.3771  0.0451
 8951TIP3    H148344   5.970   1.566  16.616  0.0080  0.1964  0.9685
 8951TIP3    H248345   6.054   1.440  16.610  1.0137  0.8835  0.1110
 8952TIP3   OH248346   2.272   5.890   1.864  0.4384 -0.5286 -0.1998
 8952TIP3    H148347   2.241   5.928   1.782  0.6964 -1.3560 -0.6880
 8952TIP3    H248348   2.212   5.924   1.930 -0.8545 -1.2509 -0.9800
 8953TIP3   OH248349   0.472   3.086  14.606  0.2143 -0.4939  0.8923
 8953TIP3    H148350   0.535   3.044  14.666  1.4149  0.9894  0.7282
 8953TIP3    H248351   0.447   3.167  14.651  0.2195  0.0586 -0.0804
 8954TIP3   OH248352   3.022   3.116   2.535 -0.2652  0.2790 -0.4825
 8954TIP3    H148353   3.112   3.121   2.505 -0.0964 -0.6755 -0.1468
 8954TIP3    H248354   3.026   3.134   2.629 -0.5011  0.7821 -0.5602
 8955TIP3   OH248355   2.820   3.766   0.905  0.1806 -0.2930  0.3078
 8955TIP3    H148356   2.727   3.788   0.904  0.2273  0.1140  1.8848
 8955TIP3    H248357   2.826   3.692   0.965  0.8482 -0.4352  0.0703
 8956TIP3   OH248358   1.303   1.285   4.077 -0.7123 -0.0355 -0.4182
 8956TIP3    H148359   1.319   1.363   4.130  0.1052 -0.8584  0.6074
 8956TIP3    H248360   1.348   1.303   3.994 -1.2958  0.9275 -0.5419
 8957TIP3   OH248361   6.659   1.094   2.736  0.4788  0.2851 -0.0910
 8957TIP3    H148362   6.699   1.015   2.701 -0.2611  0.0321 -0.3862
 8957TIP3    H248363   6.677   1.089   2.830  0.6194 -0.1300 -0.1350
 8958TIP3   OH248364   1.337   4.001  13.148 -0.4338  0.1647  0.1060
 8958TIP3    H148365   1.379   4.084  13.125 -2.8304  1.7360  0.9086
 8958TIP3    H248366   1.360   3.988  13.240  2.5301 -1.8439 -0.7930
 8959TIP3   OH248367   1.655   1.097  14.642  0.1695 -0.4990 -0.9137
 8959TIP3    H148368   1.610   1.126  14.721 -0.6589 -0.3484 -1.4251
 8959TIP3    H248369   1.730   1.155  14.634 -0.8839  0.8475 -1.3565
 8960TIP3   OH248370   5.632   4.991  16.466 -0.6701  0.2796  0.3686
 8960TIP3    H148371   5.568   5.026  16.528 -1.9679 -1.5132  0.1083
 8960TIP3    H248372   5.614   4.897  16.463  1.4405 -0.1518 -0.3732
 8961TIP3   OH248373   3.069   6.368  16.976  0.4659  0.6736  0.5103
 8961TIP3    H148374   2.986   6.382  17.021 -0.1643  0.0669 -0.4244
 8961TIP3    H248375   3.117   6.451  16.987  0.3862  0.5162  2.3249
 8962TIP3   OH248376   1.046   2.018  11.874 -0.9897  1.2522  0.9672
 8962TIP3    H148377   0.988   2.081  11.832  0.0149  1.0129 -0.8843
 8962TIP3    H248378   1.119   2.070  11.906  0.3939  0.9814 -1.5592
 8963TIP3   OH248379   4.662   0.125  16.613 -0.1597 -0.0372 -0.0908
 8963TIP3    H148380   4.597   0.056  16.627  0.8308 -1.0816 -0.4998
 8963TIP3    H248381   4.725   0.113  16.685  0.3670  0.0125 -0.5370
 8964TIP3   OH248382   1.606   2.250  12.417 -0.1116  0.5027 -0.4240
 8964TIP3    H148383   1.538   2.286  12.361 -0.1568  1.1749  0.0470
 8964TIP3    H248384   1.601   2.303  12.497  2.1128  1.7301 -1.0330
 8965TIP3   OH248385   5.958   1.624   3.602  0.8384 -0.1123 -0.7700
 8965TIP3    H148386   5.957   1.658   3.513 -0.3169  1.2023 -0.2911
 8965TIP3    H248387   5.878   1.572   3.609 -0.5498  2.0240  0.2588
 8966TIP3   OH248388   6.505   0.048   1.159  0.5515 -0.4747  0.5599
 8966TIP3    H148389   6.563   0.001   1.218 -1.6188 -2.1168  1.5639
 8966TIP3    H248390   6.417   0.027   1.191 -0.6425  0.8644 -1.6005
 8967TIP3   OH248391   2.746   0.089   5.223  0.2601  0.2402 -0.3992
 8967TIP3    H148392   2.794   0.035   5.286  0.0074 -0.2934 -0.6565
 8967TIP3    H248393   2.697   0.151   5.277 -1.2028 -1.2325  0.0322
 8968TIP3   OH248394   5.432   5.411  13.196 -0.5995  0.4462 -0.4228
 8968TIP3    H148395   5.506   5.381  13.143 -0.9786  0.3834 -0.9266
 8968TIP3    H248396   5.366   5.439  13.131 -1.0225  0.4775  0.0182
 8969TIP3   OH248397   5.125   5.256  15.585 -0.3132  0.6162  0.2134
 8969TIP3    H148398   5.208   5.256  15.537 -0.2020  2.3445  0.3479
 8969TIP3    H248399   5.142   5.202  15.662  0.1792 -0.3512 -0.5426
 8970TIP3   OH248400   4.554   6.419  12.265 -0.1603  0.4735  0.1029
 8970TIP3    H148401   4.501   6.473  12.323 -0.6764 -1.2229  1.3250
 8970TIP3    H248402   4.631   6.397  12.317 -0.6940 -1.1957  0.2500
 8971TIP3   OH248403   2.488   1.565  15.095 -0.7780  0.3438  0.5907
 8971TIP3    H148404   2.488   1.470  15.082 -2.0653  0.2639  0.9986
 8971TIP3    H248405   2.546   1.599  15.027 -0.7217 -0.6961  0.0968
 8972TIP3   OH248406   3.127   4.662  13.100 -0.8975  0.6159 -0.0137
 8972TIP3    H148407   3.142   4.756  13.112  3.1306  0.4707 -2.2273
 8972TIP3    H248408   3.161   4.622  13.180 -0.6836  0.9142  0.0427
 8973TIP3   OH248409   2.111   1.103   1.153 -0.2931  0.5354 -0.2935
 8973TIP3    H148410   2.098   1.010   1.132  2.8697  0.2307 -1.5634
 8973TIP3    H248411   2.105   1.147   1.068 -1.1625  1.4329  0.2165
 8974TIP3   OH248412   5.442   0.414  14.507 -0.0837  0.6369  1.2528
 8974TIP3    H148413   5.533   0.436  14.485 -0.4660  2.0197  1.0120
 8974TIP3    H248414   5.430   0.446  14.596 -0.1400 -0.2012  1.5629
 8975TIP3   OH248415   5.549   4.116  13.215 -0.1577 -0.5136  0.7111
 8975TIP3    H148416   5.557   4.021  13.215 -0.1986 -0.5495  2.6120
 8975TIP3    H248417   5.455   4.132  13.217 -0.1934 -0.3849 -0.8086
 8976TIP3   OH248418   3.407   0.701  16.752  0.4018  0.2155 -0.0050
 8976TIP3    H148419   3.433   0.654  16.831  1.0166  0.5837  0.0122
 8976TIP3    H248420   3.369   0.783  16.784  0.0947  0.1013 -0.0721
 8977TIP3   OH248421   1.686   6.793   2.050 -0.6778  0.0452 -0.4500
 8977TIP3    H148422   1.599   6.827   2.029 -0.5916 -0.0722 -1.0102
 8977TIP3    H248423   1.678   6.699   2.039 -0.4123  0.0570 -0.7606
 8978TIP3   OH248424   3.424   0.142   0.590  1.0296  0.2723 -0.6075
 8978TIP3    H148425   3.424   0.209   0.658  0.8720 -0.5716  0.2404
 8978TIP3    H248426   3.432   0.059   0.637 -2.4153 -0.6232 -1.3181
 8979TIP3   OH248427   1.729   0.768   2.568 -0.1945 -0.0379 -0.4496
 8979TIP3    H148428   1.689   0.799   2.487 -0.9840  0.1535  0.0027
 8979TIP3    H248429   1.656   0.737   2.621  0.4750 -1.6418 -0.4332
 8980TIP3   OH248430   6.069   0.542  14.534 -0.3335  0.3040  0.2708
 8980TIP3    H148431   5.992   0.497  14.498 -0.1546  1.1544 -1.2458
 8980TIP3    H248432   6.066   0.523  14.628 -1.5709 -0.8887  0.0234
 8981TIP3   OH248433   4.185   0.290   2.128 -0.1622 -0.2712  0.0189
 8981TIP3    H148434   4.221   0.210   2.090 -0.7886 -0.8492  0.6187
 8981TIP3    H248435   4.262   0.335   2.164  0.1864 -0.6325 -0.2590
 8982TIP3   OH248436   3.558   1.676   1.795  0.3992 -0.1973 -0.0634
 8982TIP3    H148437   3.648   1.675   1.830  0.0682 -2.0020  0.8389
 8982TIP3    H248438   3.520   1.756   1.832  1.3153  0.0409  0.4088
 8983TIP3   OH248439   1.708   6.452   5.132 -0.0864 -0.2107  0.5757
 8983TIP3    H148440   1.756   6.532   5.156  0.7300 -0.9699  1.5175
 8983TIP3    H248441   1.734   6.435   5.041 -1.2737  1.2966 -0.0950
 8984TIP3   OH248442   5.321   3.518   4.357  0.3879  0.5913 -0.0580
 8984TIP3    H148443   5.391   3.464   4.321  2.7240  2.4992  1.3300
 8984TIP3    H248444   5.303   3.481   4.444 -0.8111 -0.2547 -0.6416
 8985TIP3   OH248445   3.006   4.201   0.067  0.4832 -0.3639  0.1110
 8985TIP3    H148446   3.055   4.195  -0.015 -1.1654 -1.3646 -0.8441
 8985TIP3    H248447   3.014   4.114   0.106  1.1739  0.0778  1.0040
 8986TIP3   OH248448   2.436   4.721   6.160  0.3371  0.9578 -0.2446
 8986TIP3    H148449   2.399   4.776   6.228  0.7116 -0.1174  0.8591
 8986TIP3    H248450   2.385   4.639   6.165  1.9985 -0.0791  0.4632
 8987TIP3   OH248451   3.280   6.033   6.155 -0.8647  0.0734  0.0393
 8987TIP3    H148452   3.338   6.041   6.080 -0.8747 -1.9251 -0.2501
 8987TIP3    H248453   3.215   6.103   6.144  1.3344  2.2788  0.3195
 8988TIP3   OH248454   2.656   4.359  11.467 -0.4471 -0.6170 -0.1752
 8988TIP3    H148455   2.696   4.427  11.412 -2.9766  0.5549 -0.7486
 8988TIP3    H248456   2.630   4.291  11.404 -0.3731 -0.8339  0.0294
 8989TIP3   OH248457   0.387   4.374  15.964 -0.4110  0.2196  0.1238
 8989TIP3    H148458   0.455   4.366  16.031 -0.2528 -2.0060 -0.2373
 8989TIP3    H248459   0.409   4.454  15.916  0.6730  0.7093  1.3995
 8990TIP3   OH248460   2.228   0.604   3.591 -0.5496 -0.5433  0.1331
 8990TIP3    H148461   2.301   0.646   3.636 -1.8206  0.6684  1.1435
 8990TIP3    H248462   2.168   0.580   3.661 -1.7894 -0.1755 -0.7770
 8991TIP3   OH248463   0.885   4.753   1.930 -0.3609  0.1556 -0.0515
 8991TIP3    H148464   0.905   4.660   1.939 -0.4816  0.2647  1.5749
 8991TIP3    H248465   0.945   4.784   1.861  1.4858 -0.6019  1.1346
 8992TIP3   OH248466   1.729   0.662  13.586 -0.1717 -0.4490 -0.4227
 8992TIP3    H148467   1.797   0.667  13.654 -0.0745  2.5767 -0.5802
 8992TIP3    H248468   1.648   0.683  13.633 -0.4181 -0.3530 -0.8936
 8993TIP3   OH248469   4.394   3.673   6.757 -0.6384 -0.0241 -0.1883
 8993TIP3    H148470   4.386   3.761   6.720  0.5461  0.3210  0.3222
 8993TIP3    H248471   4.355   3.616   6.692 -0.6046  0.7926 -0.9432
 8994TIP3   OH248472   3.047   0.349   4.001  0.7063  0.1677  0.1326
 8994TIP3    H148473   3.071   0.260   3.975  2.5290  0.6334  0.1040
 8994TIP3    H248474   3.074   0.404   3.927  0.3875  0.8497  0.5138
 8995TIP3   OH248475   4.592   5.552   5.268 -0.6606  0.3885  0.1812
 8995TIP3    H148476   4.520   5.569   5.329 -1.3663 -0.5680 -0.3707
 8995TIP3    H248477   4.614   5.460   5.281  1.2975  0.9293  1.1933
 8996TIP3   OH248478   5.946   3.235  16.864  0.2548  0.1113 -0.6567
 8996TIP3    H148479   6.024   3.235  16.919  0.2634 -1.9136 -0.5763
 8996TIP3    H248480   5.931   3.327  16.843  0.8994  0.8711  1.7990
 8997TIP3   OH248481   6.562   5.393  14.735  0.3166  0.2685 -0.0804
 8997TIP3    H148482   6.618   5.330  14.689  1.4104  0.5314  0.8394
 8997TIP3    H248483   6.473   5.360  14.722  0.8663 -1.5323  0.4378
 8998TIP3   OH248484   3.800   1.273   0.070 -0.1449  0.0419  0.1611
 8998TIP3    H148485   3.855   1.349   0.050 -0.2409 -0.3064 -1.5814
 8998TIP3    H248486   3.711   1.307   0.066 -0.2298 -0.2722 -1.3943
 8999TIP3   OH248487   4.877   5.758  13.408  0.0543 -0.2502  1.0851
 8999TIP3    H148488   4.892   5.682  13.465  3.0685 -0.2465  0.4591
 8999TIP3    H248489   4.926   5.829  13.449 -2.9315  1.5985  1.8184
 9000TIP3   OH248490   2.899   5.532  15.052  0.4217 -0.4602  0.3621
 9000TIP3    H148491   2.926   5.623  15.038 -0.5598  0.4930  3.6659
 9000TIP3    H248492   2.839   5.536  15.126 -0.5352 -3.7233 -0.0831
 9001TIP3   OH248493   6.229   6.621  13.811  0.0552  0.3929 -0.5560
 9001TIP3    H148494   6.316   6.660  13.811  1.0379 -1.7070 -0.8025
 9001TIP3    H248495   6.210   6.603  13.719  0.3002 -1.0830 -0.3456
 9002TIP3   OH248496   5.836   2.332   4.123 -0.3846 -0.5950  0.2408
 9002TIP3    H148497   5.768   2.388   4.162 -1.7266 -1.8092 -0.2851
 9002TIP3    H248498   5.918   2.370   4.155 -1.1909  1.8892 -0.3484
 9003TIP3   OH248499   3.921   4.456   3.162 -0.9073 -0.2539  0.2645
 9003TIP3    H148500   3.957   4.517   3.097  1.5955 -0.4752  1.3253
 9003TIP3    H248501   3.898   4.512   3.237 -0.5370 -0.3675  0.4661
 9004TIP3   OH248502   5.458   0.907   1.810 -0.0921 -0.3837  0.0768
 9004TIP3    H148503   5.373   0.942   1.839  0.0427 -0.7260  0.9219
 9004TIP3    H248504   5.436   0.832   1.756 -0.3650  0.5738 -1.1837
 9005TIP3   OH248505   5.787   5.830  12.440  0.0470  0.1006  0.0222
 9005TIP3    H148506   5.776   5.922  12.417 -1.1354  0.0941  0.4493
 9005TIP3    H248507   5.879   5.821  12.463  0.0447  1.3258  0.5820
 9006TIP3   OH248508   5.597   2.709   3.755 -0.0638 -0.0812  1.0465
 9006TIP3    H148509   5.634   2.675   3.837 -0.4026  0.3229  1.3722
 9006TIP3    H248510   5.673   2.724   3.699  0.0796 -1.8751  0.6846
 9007TIP3   OH248511   5.292   1.516  15.960 -0.1052 -0.4707  0.2579
 9007TIP3    H148512   5.217   1.556  16.003 -1.4459 -2.2485 -0.2632
 9007TIP3    H248513   5.354   1.497  16.030 -1.0983 -0.9152  1.0390
 9008TIP3   OH248514   5.290   0.349  15.070  0.2089 -0.7427 -0.3486
 9008TIP3    H148515   5.215   0.291  15.054 -0.7759 -0.0682  1.4504
 9008TIP3    H248516   5.340   0.304  15.139 -1.1368  0.9001  1.8410
 9009TIP3   OH248517   2.056   6.515   1.282 -0.2497 -0.2104  0.7299
 9009TIP3    H148518   2.089   6.480   1.200  0.2055  2.7397 -0.4778
 9009TIP3    H248519   2.052   6.439   1.341 -1.0894 -2.5321 -2.0989
 9010TIP3   OH248520   6.638   2.486   4.931  0.3294 -0.2545 -0.4549
 9010TIP3    H148521   6.647   2.404   4.980  0.5430 -0.5857 -1.0479
 9010TIP3    H248522   6.571   2.468   4.866 -0.7893  0.5419  0.4282
 9011TIP3   OH248523   3.917   6.273   3.858 -0.5425 -0.1258  0.6529
 9011TIP3    H148524   3.904   6.228   3.941  1.9764  0.1743  1.3070
 9011TIP3    H248525   3.932   6.203   3.795 -0.4240 -0.2974  0.8705
 9012TIP3   OH248526   4.623   3.155  12.060  0.0521  0.2187 -0.2113
 9012TIP3    H148527   4.716   3.176  12.068 -0.3136  1.4336  1.4403
 9012TIP3    H248528   4.579   3.220  12.114 -1.8318  0.0553 -1.4445
 9013TIP3   OH248529   4.367   3.912   4.164 -0.0625  0.5366 -0.4182
 9013TIP3    H148530   4.279   3.901   4.127 -0.0245  1.4458 -0.8295
 9013TIP3    H248531   4.425   3.871   4.100 -0.1886 -0.1142 -0.1188
 9014TIP3   OH248532   5.078   2.277   0.789  0.4062  0.2446 -0.0439
 9014TIP3    H148533   5.042   2.250   0.873 -1.2979  0.7571 -0.5653
 9014TIP3    H248534   5.014   2.248   0.725  0.9618  1.1364 -1.0476
 9015TIP3   OH248535   1.084   3.757   5.515  0.5933  0.3137  0.1118
 9015TIP3    H148536   1.081   3.678   5.461 -1.3286 -1.3730  2.4563
 9015TIP3    H248537   1.131   3.729   5.594 -0.2328  1.4496  1.0385
 9016TIP3   OH248538   3.627   1.693   2.166  0.3142 -0.3473 -0.3577
 9016TIP3    H148539   3.611   1.778   2.124 -2.0132 -1.0988 -1.1055
 9016TIP3    H248540   3.548   1.676   2.216  1.6229 -1.1345  1.5481
 9017TIP3   OH248541   1.068   3.915  13.099  0.0905  0.8003 -0.5450
 9017TIP3    H148542   1.158   3.920  13.068  0.2890 -0.0575 -0.1555
 9017TIP3    H248543   1.027   3.996  13.069  0.4932  0.3960 -2.2973
 9018TIP3   OH248544   1.526   6.038  12.403  0.3524  0.1411  0.1712
 9018TIP3    H148545   1.448   6.089  12.427  0.7834  0.9943 -0.1722
 9018TIP3    H248546   1.529   5.966  12.466 -0.0235  0.8087  0.9709
 9019TIP3   OH248547   3.431   6.577   2.378 -0.6200 -0.3516 -0.4463
 9019TIP3    H148548   3.363   6.645   2.385  0.3104  0.5780 -0.2714
 9019TIP3    H248549   3.513   6.626   2.373  0.0292 -1.4572 -0.8988
 9020TIP3   OH248550   6.331   4.780  10.773  0.8055 -0.3413 -0.3863
 9020TIP3    H148551   6.264   4.724  10.735  1.0626 -0.5272 -0.5685
 9020TIP3    H248552   6.414   4.743  10.742  0.9645  0.3224 -0.7633
 9021TIP3   OH248553   2.174   2.148   3.536 -0.6233 -0.0085  0.5582
 9021TIP3    H148554   2.081   2.133   3.547 -1.0305  0.3063 -1.8465
 9021TIP3    H248555   2.179   2.217   3.470  1.2892 -1.7786 -1.2935
 9022TIP3   OH248556   2.370   3.979  15.006 -0.5098 -0.1094  0.4114
 9022TIP3    H148557   2.341   4.050  15.062 -1.5499  0.5197 -0.8792
 9022TIP3    H248558   2.317   3.904  15.032 -0.1087 -0.1675  1.0945
 9023TIP3   OH248559   0.265   3.767   1.644 -0.0583  0.6627  0.2844
 9023TIP3    H148560   0.211   3.812   1.708 -0.4170 -0.4810  0.8191
 9023TIP3    H248561   0.349   3.752   1.689  1.3468  3.7335 -1.0218
 9024TIP3   OH248562   4.724   4.113   0.230  0.6178 -0.3496 -0.2137
 9024TIP3    H148563   4.819   4.125   0.236  0.6220 -0.2996 -0.3768
 9024TIP3    H248564   4.688   4.199   0.250  0.5952 -0.4327  0.1198
 9025TIP3   OH248565   0.158   0.189   4.788 -0.6072  0.2633 -0.5075
 9025TIP3    H148566   0.072   0.159   4.758 -1.6029  0.5506  1.8811
 9025TIP3    H248567   0.181   0.132   4.861  2.8376 -1.9254 -2.9671
 9026TIP3   OH248568   2.001   4.654   1.106 -0.6625 -0.0283 -0.4682
 9026TIP3    H148569   2.089   4.676   1.074  0.3662 -0.2831  1.9704
 9026TIP3    H248570   1.960   4.610   1.032  1.3612 -0.1241 -1.6253
 9027TIP3   OH248571   0.420   1.661  14.245  0.3128 -0.0489 -0.3064
 9027TIP3    H148572   0.372   1.582  14.218 -1.3611  0.5413  0.7813
 9027TIP3    H248573   0.372   1.733  14.205  2.1299  0.4554 -1.7152
 9028TIP3   OH248574   0.489   4.851  11.591 -0.3203 -0.4183 -0.1124
 9028TIP3    H148575   0.501   4.914  11.520  2.7862  1.7725  2.0700
 9028TIP3    H248576   0.405   4.876  11.631 -0.0475  1.1610 -0.4524
 9029TIP3   OH248577   5.413   5.132  11.131 -0.4469  0.2259  0.4237
 9029TIP3    H148578   5.394   5.188  11.055  1.7105 -0.3872 -0.6469
 9029TIP3    H248579   5.359   5.054  11.117  0.5096 -0.2405 -0.9898
 9030TIP3   OH248580   5.586   4.874   1.527  0.6061  0.1241 -0.1697
 9030TIP3    H148581   5.560   4.789   1.562  0.0766  0.5321  0.4357
 9030TIP3    H248582   5.556   4.872   1.436  0.9713 -0.4968 -0.2814
 9031TIP3   OH248583   4.251   0.641   2.619  0.0390 -0.0380 -0.3462
 9031TIP3    H148584   4.253   0.566   2.559  1.1615 -0.6136  0.3734
 9031TIP3    H248585   4.341   0.647   2.652 -0.0230  1.6734 -0.4266
 9032TIP3   OH248586   2.257   6.247   5.226 -0.9302  0.4261  0.2275
 9032TIP3    H148587   2.228   6.234   5.316 -0.1621 -1.6197  0.2294
 9032TIP3    H248588   2.351   6.266   5.234 -0.7068 -0.4851 -0.1744
 9033TIP3   OH248589   6.641   1.525  11.987 -0.1156  0.0596  0.0497
 9033TIP3    H148590   6.732   1.529  11.955  0.3723 -3.5641  0.5666
 9033TIP3    H248591   6.588   1.555  11.913  1.4434  1.7712 -0.4407
 9034TIP3   OH248592   2.901   6.254  13.518 -0.6573 -0.0483  0.3639
 9034TIP3    H148593   2.907   6.316  13.590 -1.3084  2.2964 -1.4764
 9034TIP3    H248594   2.808   6.252  13.497 -0.3843 -0.1009 -0.8868
 9035TIP3   OH248595   3.442   5.758  14.424  0.6890 -0.1049  0.1925
 9035TIP3    H148596   3.406   5.767  14.335  1.1847 -3.2762 -0.4614
 9035TIP3    H248597   3.365   5.752  14.480  0.3228  0.1623 -0.2708
 9036TIP3   OH248598   0.536   2.051   3.104  0.2698  0.0168 -0.7314
 9036TIP3    H148599   0.554   2.144   3.111 -0.4615  0.3042 -2.2955
 9036TIP3    H248600   0.571   2.026   3.018  0.4806 -1.1667 -0.3247
 9037TIP3   OH248601   0.977   0.261  15.784 -0.1814  0.3231  0.2538
 9037TIP3    H148602   0.954   0.194  15.720  0.4537  0.0776  0.2816
 9037TIP3    H248603   1.057   0.301  15.749 -1.5375  2.3808 -0.7682
 9038TIP3   OH248604   2.304   5.571  14.422  0.2346 -0.2799 -0.1595
 9038TIP3    H148605   2.333   5.622  14.498  0.2689  0.6561 -0.7913
 9038TIP3    H248606   2.229   5.521  14.454 -0.4538  0.9531  0.2148
 9039TIP3   OH248607   1.308   1.392  10.908  0.0174 -0.2126  0.5439
 9039TIP3    H148608   1.263   1.449  10.845 -0.5219 -1.9959 -0.7710
 9039TIP3    H248609   1.398   1.389  10.875  0.0263 -0.1957  0.5662
 9040TIP3   OH248610   4.366   5.229   0.680 -0.1271 -0.1867 -0.0165
 9040TIP3    H148611   4.351   5.276   0.598 -1.0510  0.0692  0.2895
 9040TIP3    H248612   4.461   5.215   0.682  0.1407  1.3881 -0.2682
 9041TIP3   OH248613   2.799   4.897   4.447 -0.1691 -0.2123  0.3744
 9041TIP3    H148614   2.779   4.835   4.377 -1.2701  1.2766 -0.6766
 9041TIP3    H248615   2.850   4.966   4.405  0.7884 -0.2143  1.4617
 9042TIP3   OH248616   2.244   3.753   4.917 -0.2994 -0.4835 -0.3098
 9042TIP3    H148617   2.223   3.810   4.844 -0.3034 -2.1460 -1.6670
 9042TIP3    H248618   2.166   3.698   4.928  0.2449 -1.2181 -0.0061
 9043TIP3   OH248619   4.996   3.701  13.347  0.1017  0.3968  0.4204
 9043TIP3    H148620   4.928   3.633  13.346  0.3550  0.1501 -0.6356
 9043TIP3    H248621   5.077   3.654  13.329  0.3803  0.8880  0.3722
 9044TIP3   OH248622   1.022   6.225   0.678 -0.0028  0.3277  0.8296
 9044TIP3    H148623   0.989   6.287   0.743  2.3397  0.3822  2.0309
 9044TIP3    H248624   0.999   6.265   0.594 -1.3143  1.2325  1.5773
 9045TIP3   OH248625   0.952   5.512  13.664  0.7417 -0.2443 -0.1440
 9045TIP3    H148626   0.958   5.586  13.725 -0.1947  1.1012 -1.6034
 9045TIP3    H248627   1.017   5.531  13.597 -0.3312 -0.0685 -1.1800
 9046TIP3   OH248628   3.550   6.274  11.692  0.1033 -0.1214 -0.6015
 9046TIP3    H148629   3.622   6.276  11.755  0.2272  3.4480 -0.6648
 9046TIP3    H248630   3.593   6.269  11.606  0.0003 -2.5460 -0.6000
 9047TIP3   OH248631   4.235   2.163   5.837  0.0168 -0.0256  0.5884
 9047TIP3    H148632   4.214   2.081   5.792 -0.7434  0.5705 -0.1749
 9047TIP3    H248633   4.330   2.160   5.848  0.0919 -0.6729 -0.1268
 9048TIP3   OH248634   3.492   5.193  14.224 -0.4345  0.3295 -0.1196
 9048TIP3    H148635   3.457   5.105  14.241 -0.0983  0.3842  0.9557
 9048TIP3    H248636   3.557   5.180  14.155 -1.0243 -0.1170 -0.6052
 9049TIP3   OH248637   6.241   2.263   0.613  0.1216 -0.0458 -0.4796
 9049TIP3    H148638   6.267   2.186   0.662  0.1648  0.6621  0.6373
 9049TIP3    H248639   6.263   2.337   0.670 -0.4434  0.7654 -1.2792
 9050TIP3   OH248640   0.944   2.217   1.702  0.1093  0.1869 -0.5916
 9050TIP3    H148641   0.983   2.131   1.685  0.5089 -0.0244  1.2255
 9050TIP3    H248642   1.008   2.280   1.670 -0.2599 -0.1602 -2.0966
 9051TIP3   OH248643   0.591   5.516  12.246  0.2640 -0.3995 -0.0677
 9051TIP3    H148644   0.564   5.449  12.183 -1.9628  0.7235 -0.4086
 9051TIP3    H248645   0.534   5.502  12.322  0.8526  0.1421  0.4869
 9052TIP3   OH248646   2.571   5.142  12.307  0.0491 -0.7512 -0.3280
 9052TIP3    H148647   2.543   5.155  12.216 -0.3470 -0.6661 -0.1924
 9052TIP3    H248648   2.666   5.156  12.305 -0.2202  1.3387 -0.3505
 9053TIP3   OH248649   2.124   2.844  14.039 -0.5005  0.2013 -0.5437
 9053TIP3    H148650   2.052   2.901  14.065  0.9169  1.6853  0.3099
 9053TIP3    H248651   2.126   2.775  14.106 -2.0005 -0.6947 -1.3823
 9054TIP3   OH248652   5.408   2.732   1.704 -0.2269 -0.6505  0.0050
 9054TIP3    H148653   5.458   2.768   1.777  0.1896 -1.2307  0.0129
 9054TIP3    H248654   5.453   2.763   1.626 -0.0979 -0.8317  0.0072
 9055TIP3   OH248655   1.338   3.013   4.229 -0.2553  0.0679 -0.3362
 9055TIP3    H148656   1.301   3.101   4.225  0.5319  0.4383  0.3642
 9055TIP3    H248657   1.407   3.013   4.163 -0.9597 -0.3806 -1.0975
 9056TIP3   OH248658   1.029   4.939  15.688 -0.4775  0.0366 -0.0239
 9056TIP3    H148659   0.987   4.876  15.748 -1.1707  1.2671  0.8506
 9056TIP3    H248660   1.099   4.978  15.740 -0.5189  0.4958 -0.3103
 9057TIP3   OH248661   2.559   5.336   5.787  0.2424  0.0457 -0.0877
 9057TIP3    H148662   2.631   5.307   5.842 -0.8234 -0.7061  0.9616
 9057TIP3    H248663   2.586   5.314   5.698  1.1209 -0.5940  0.3260
 9058TIP3   OH248664   3.248   2.914  11.284  0.5823 -0.1485  0.0036
 9058TIP3    H148665   3.319   2.963  11.327  0.6744 -0.6815  0.4646
 9058TIP3    H248666   3.185   2.981  11.258  1.4849  0.3997 -0.8773
 9059TIP3   OH248667   5.009   2.935  14.332 -0.3848  0.4329  0.0911
 9059TIP3    H148668   4.940   2.962  14.271 -0.3807 -0.8466 -0.5033
 9059TIP3    H248669   5.040   3.017  14.370 -0.4789  1.2554 -1.5309
 9060TIP3   OH248670   5.558   6.423  15.501  0.0111 -0.3607  0.1199
 9060TIP3    H148671   5.633   6.478  15.475  0.8183 -1.3441  0.2941
 9060TIP3    H248672   5.489   6.447  15.439  0.2639  0.9903  0.3163
 9061TIP3   OH248673   3.448   2.813  13.552  0.2082 -0.3439  0.3119
 9061TIP3    H148674   3.413   2.739  13.502 -1.2471  0.4212  0.1295
 9061TIP3    H248675   3.513   2.774  13.610  1.5631 -1.3480 -1.7541
 9062TIP3   OH248676   3.226   0.127  13.959 -0.0225  0.1643  0.4465
 9062TIP3    H148677   3.185   0.079  13.887 -1.9753 -1.7029  2.6247
 9062TIP3    H248678   3.315   0.092  13.962  0.3074  0.7216 -1.3622
 9063TIP3   OH248679   1.726   5.067  13.473 -0.2159  0.6624  0.1189
 9063TIP3    H148680   1.767   5.025  13.398 -0.1477 -0.3472  0.6987
 9063TIP3    H248681   1.671   5.135  13.435 -2.2935 -1.5333 -1.0757
 9064TIP3   OH248682   3.740   0.157  12.724  0.6275 -0.3760 -0.1358
 9064TIP3    H148683   3.684   0.174  12.799  0.4460  0.4331 -0.4421
 9064TIP3    H248684   3.687   0.100  12.668  0.9121 -1.2944  0.5153
 9065TIP3   OH248685   6.665   6.322   0.379 -0.1676 -0.8468  0.0089
 9065TIP3    H148686   6.625   6.374   0.309  0.8845 -0.1949 -0.1370
 9065TIP3    H248687   6.738   6.276   0.337  1.1845  0.4139  0.8389
 9066TIP3   OH248688   4.387   4.838   5.293 -0.1373 -0.1825 -0.1736
 9066TIP3    H148689   4.440   4.865   5.368  1.0142 -0.4957 -0.8552
 9066TIP3    H248690   4.319   4.905   5.286 -0.8494 -0.6368  1.7090
 9067TIP3   OH248691   6.449   0.743  10.736 -0.2019 -0.2642 -0.7373
 9067TIP3    H148692   6.434   0.813  10.672  0.4069  1.2822  0.7217
 9067TIP3    H248693   6.398   0.770  10.813  1.3339 -0.5452  0.4278
 9068TIP3   OH248694   2.082   6.027  12.975 -0.2653  0.4099  0.2648
 9068TIP3    H148695   2.033   6.085  13.034  0.6689 -0.3386  1.8537
 9068TIP3    H248696   2.112   5.956  13.032 -1.1493 -1.5178 -1.5539
 9069TIP3   OH248697   3.637   1.125  15.985  0.3410  0.0966 -0.0532
 9069TIP3    H148698   3.681   1.090  16.063  0.7932  0.1764 -0.2708
 9069TIP3    H248699   3.682   1.207  15.967  1.8183 -1.0280 -1.7675
 9070TIP3   OH248700   1.782   6.151  14.938  0.5403  0.2199 -0.0932
 9070TIP3    H148701   1.800   6.207  14.863 -1.3022  0.4929 -0.3844
 9070TIP3    H248702   1.801   6.062  14.907 -0.9688  0.2423 -1.2016
 9071TIP3   OH248703   5.337   6.177   2.262 -0.3684 -0.0890 -0.4535
 9071TIP3    H148704   5.287   6.244   2.217 -2.1088 -1.2940 -0.3922
 9071TIP3    H248705   5.394   6.139   2.195 -0.6460  0.2617 -0.8823
 9072TIP3   OH248706   1.081   2.492   2.887 -0.3007 -0.0980  0.0442
 9072TIP3    H148707   0.986   2.479   2.879 -0.0007 -1.6220 -1.5494
 9072TIP3    H248708   1.098   2.484   2.981 -1.6447 -0.5352  0.2715
 9073TIP3   OH248709   5.233   2.569  13.452 -0.2591  0.5051  0.6186
 9073TIP3    H148710   5.177   2.504  13.495 -1.7551  1.1712 -0.2621
 9073TIP3    H248711   5.199   2.576  13.363  0.4518  1.8281  0.4243
 9074TIP3   OH248712   6.759   2.243  11.509 -0.0610 -0.0757  0.0181
 9074TIP3    H148713   6.844   2.258  11.551  0.3564  2.3331 -1.4450
 9074TIP3    H248714   6.778   2.245  11.415 -1.5211 -1.2479 -0.3436
 9075TIP3   OH248715   2.350   0.365   0.165  0.6579  0.3690  0.0889
 9075TIP3    H148716   2.369   0.392   0.255  0.2268  0.1830  0.2391
 9075TIP3    H248717   2.257   0.344   0.165  0.6125  0.5463 -0.4513
 9076TIP3   OH248718   1.683   4.215  13.128  0.1216 -0.2000 -0.4074
 9076TIP3    H148719   1.749   4.282  13.147  0.5298 -0.4008 -1.0695
 9076TIP3    H248720   1.701   4.190  13.037  0.2129 -1.4700 -0.0563
 9077TIP3   OH248721   2.607   3.570  12.070 -0.3288 -0.6533  0.1869
 9077TIP3    H148722   2.670   3.600  12.005 -0.9001 -1.3854 -0.7296
 9077TIP3    H248723   2.618   3.629  12.144  0.4149  0.1225 -0.5340
 9078TIP3   OH248724   3.340   4.537   1.506 -0.2547  0.0626 -0.4391
 9078TIP3    H148725   3.415   4.480   1.488  0.4499  0.1960  1.8241
 9078TIP3    H248726   3.374   4.626   1.499 -0.5110  0.1538 -0.5638
 9079TIP3   OH248727   4.268   4.543  11.361 -0.5624 -0.4928 -0.0258
 9079TIP3    H148728   4.363   4.555  11.364 -0.7453  1.4441 -0.4113
 9079TIP3    H248729   4.249   4.523  11.270 -0.4658 -1.7572  0.2154
 9080TIP3   OH248730   2.606   4.844   3.671 -0.3383  0.1026  0.4269
 9080TIP3    H148731   2.677   4.907   3.682  0.9771 -1.1659 -0.4967
 9080TIP3    H248732   2.611   4.788   3.749 -0.4996  0.1656  0.4836
 9081TIP3   OH248733   4.024   0.757  10.594 -0.3190 -0.5423  0.2057
 9081TIP3    H148734   3.941   0.791  10.559 -0.1324 -0.3780 -0.0748
 9081TIP3    H248735   4.080   0.833  10.601  0.0938 -0.7806 -0.4007
 9082TIP3   OH248736   4.427   1.710  12.853 -0.0053  0.2363  0.5169
 9082TIP3    H148737   4.422   1.654  12.930 -1.6928 -1.9055 -1.0131
 9082TIP3    H248738   4.502   1.676  12.804 -1.3209 -1.1461 -0.6506
 9083TIP3   OH248739   3.005   0.758  14.989 -0.1907 -0.1739 -0.0082
 9083TIP3    H148740   2.954   0.717  15.059  0.5426 -0.6523  0.2667
 9083TIP3    H248741   3.002   0.851  15.008  0.2658 -0.3182  0.8666
 9084TIP3   OH248742   2.902   6.414  12.026 -0.6398 -0.3455  0.5922
 9084TIP3    H148743   2.976   6.362  11.995  0.8323  2.6345 -1.3830
 9084TIP3    H248744   2.825   6.362  12.005  0.7333 -1.9956 -0.6279
 9085TIP3   OH248745   5.850   6.444  14.844 -0.2257  0.7189  0.3896
 9085TIP3    H148746   5.873   6.360  14.885  0.0809  0.6021 -0.0086
 9085TIP3    H248747   5.934   6.489  14.835 -0.0335  0.0753 -1.5599
 9086TIP3   OH248748   3.313   4.438  11.540 -0.0425  0.3551  0.2223
 9086TIP3    H148749   3.218   4.431  11.526 -0.2531  1.4989  0.8878
 9086TIP3    H248750   3.333   4.367  11.600 -0.2393 -0.6736 -0.8973
 9087TIP3   OH248751   4.982   3.712  16.574  0.5958 -0.6117 -0.1108
 9087TIP3    H148752   4.917   3.745  16.636 -0.0827 -0.9738 -0.6161
 9087TIP3    H248753   4.934   3.702  16.491  1.2526 -1.0366 -0.4513
 9088TIP3   OH248754   6.033   1.728   0.374  0.6249 -0.0408 -0.0161
 9088TIP3    H148755   5.964   1.769   0.322  0.4020 -0.2576  0.1073
 9088TIP3    H248756   6.094   1.799   0.394 -0.3448  0.4739  1.1852
 9089TIP3   OH248757   1.566   0.589   6.294  0.0400  0.2674  0.6232
 9089TIP3    H148758   1.528   0.672   6.321  1.9304  1.6847 -0.8265
 9089TIP3    H248759   1.655   0.590   6.329  0.8279 -0.1015 -1.2254
 9090TIP3   OH248760   4.771   4.455   2.518  0.1084  0.3662 -0.3815
 9090TIP3    H148761   4.816   4.517   2.461  0.0162  0.0987 -0.7478
 9090TIP3    H248762   4.688   4.497   2.540  0.5508  0.8859  0.3400
 9091TIP3   OH248763   4.988   3.089  13.980  0.3252  0.1141 -0.1548
 9091TIP3    H148764   5.080   3.083  14.006  0.3013  0.5704  0.0590
 9091TIP3    H248765   4.960   2.999  13.965  0.6291 -0.0756  0.4013
 9092TIP3   OH248766   1.924   6.788  16.466  0.2650 -0.2987 -0.1180
 9092TIP3    H148767   1.860   6.816  16.532  0.6651  1.9016 -0.5889
 9092TIP3    H248768   1.875   6.729  16.408 -1.0322  0.4584  0.1683
 9093TIP3   OH248769   3.523   2.874   4.735 -0.2953 -0.2379 -0.8670
 9093TIP3    H148770   3.487   2.962   4.749 -1.1830 -0.7641  0.3031
 9093TIP3    H248771   3.474   2.818   4.795  1.7632 -1.1817  0.0414
 9094TIP3   OH248772   5.167   3.652   5.308  0.4201  0.1577 -0.2113
 9094TIP3    H148773   5.209   3.721   5.359 -0.6636  0.3319  0.4913
 9094TIP3    H248774   5.180   3.677   5.217  2.7352 -0.3509 -0.0833
 9095TIP3   OH248775   0.445   2.867  11.277  0.3005 -0.0205 -0.1020
 9095TIP3    H148776   0.502   2.921  11.331  0.2667 -0.3297  0.2431
 9095TIP3    H248777   0.379   2.833  11.337  0.8875 -1.2434 -0.1019
 9096TIP3   OH248778   1.151   1.522  11.091 -0.7326 -0.3498  0.1189
 9096TIP3    H148779   1.064   1.507  11.055 -0.5802  0.0070 -0.4000
 9096TIP3    H248780   1.210   1.473  11.033 -0.4631  0.4169 -0.2644
 9097TIP3   OH248781   3.634   0.147   1.844  0.2221 -0.0287 -0.5251
 9097TIP3    H148782   3.562   0.088   1.822  0.2287 -0.3560  0.2724
 9097TIP3    H248783   3.636   0.211   1.773 -0.8743  0.0050 -0.5430
 9098TIP3   OH248784   2.054   4.175  13.188 -0.7865  0.1309 -0.5335
 9098TIP3    H148785   2.010   4.235  13.127 -0.2726 -0.5646 -1.6339
 9098TIP3    H248786   2.053   4.091  13.142  0.1864 -0.2691  0.1617
 9099TIP3   OH248787   5.504   0.981   5.583 -0.5321 -0.4211 -0.0894
 9099TIP3    H148788   5.583   0.953   5.630 -0.2669  0.0940 -0.2138
 9099TIP3    H248789   5.435   0.924   5.615 -0.0825 -0.9545 -0.0597
 9100TIP3   OH248790   1.908   1.737   5.683  0.2427  0.0219  0.0954
 9100TIP3    H148791   1.867   1.692   5.757  0.7003  0.4689  0.6360
 9100TIP3    H248792   1.883   1.829   5.695  2.4080  0.5443  1.1771
 9101TIP3   OH248793   4.551   3.434  14.474 -0.2439 -0.2573  0.1873
 9101TIP3    H148794   4.481   3.497  14.456 -1.0241 -1.5013 -1.3323
 9101TIP3    H248795   4.632   3.483  14.457 -0.8221  0.5352 -0.3627
 9102TIP3   OH248796   5.417   5.354  15.168 -0.0655  0.4581  0.4912
 9102TIP3    H148797   5.435   5.377  15.077 -0.8861  0.5690  0.3478
 9102TIP3    H248798   5.373   5.269  15.163 -1.2098  1.0303  0.6922
 9103TIP3   OH248799   2.213   3.579   0.990 -0.1119 -0.0360 -0.0523
 9103TIP3    H148800   2.164   3.497   0.991  1.7349 -1.2693 -1.7504
 9103TIP3    H248801   2.301   3.554   0.963  0.2139  2.6345 -1.9002
 9104TIP3   OH248802   3.274   6.685  11.876  0.5805 -0.2788  0.4250
 9104TIP3    H148803   3.238   6.716  11.792 -0.1396  0.3150  0.9390
 9104TIP3    H248804   3.363   6.659  11.855 -0.3727 -2.7072 -1.1372
 9105TIP3   OH248805   0.523   6.818   2.396  0.3695  0.4665  0.3340
 9105TIP3    H148806   0.481   6.733   2.394  0.2953  0.4668  1.4251
 9105TIP3    H248807   0.478   6.869   2.328  2.5183 -1.2846 -2.6512
 9106TIP3   OH248808   5.622   6.325  13.959 -0.6473 -0.2723 -0.0810
 9106TIP3    H148809   5.548   6.300  13.903 -0.6457  1.2540 -0.8094
 9106TIP3    H248810   5.688   6.358  13.898  0.0015 -0.1059  0.7020
 9107TIP3   OH248811   4.491   2.271  16.341  0.1811 -0.0056 -0.4587
 9107TIP3    H148812   4.545   2.225  16.405 -0.2949 -0.6669 -0.5089
 9107TIP3    H248813   4.487   2.361  16.372  0.5304 -0.1649  0.0575
 9108TIP3   OH248814   5.432   6.168   0.515  0.3642  0.6255  0.2400
 9108TIP3    H148815   5.411   6.244   0.569  0.4668  1.3209 -0.6782
 9108TIP3    H248816   5.438   6.203   0.426 -0.7664 -0.6770 -0.3648
 9109TIP3   OH248817   3.760   2.662  10.995 -0.6956 -0.1869 -0.1547
 9109TIP3    H148818   3.697   2.699  10.933  0.9983  0.3030 -1.6750
 9109TIP3    H248819   3.747   2.568  10.988 -2.0543 -0.0765  0.4698
 9110TIP3   OH248820   3.309   0.418   3.470  0.4170  0.1252  0.1491
 9110TIP3    H148821   3.285   0.361   3.543 -0.0400 -1.4551 -1.1823
 9110TIP3    H248822   3.245   0.489   3.473 -1.5910 -1.5554 -0.5178
 9111TIP3   OH248823   3.343   1.446   1.332 -0.2588 -0.2500  0.4584
 9111TIP3    H148824   3.300   1.500   1.266 -0.2508 -1.4548 -0.5747
 9111TIP3    H248825   3.361   1.506   1.404 -0.4250  1.0691 -0.5523
 9112TIP3   OH248826   5.452   3.277   5.399  0.3560 -0.0307 -0.2039
 9112TIP3    H148827   5.367   3.314   5.375  0.4089  0.3497  0.1829
 9112TIP3    H248828   5.433   3.186   5.422 -0.3564  0.6319  2.1231
 9113TIP3   OH248829   1.925   3.753   1.689 -0.1402 -0.2118  0.1121
 9113TIP3    H148830   1.931   3.701   1.609  0.7852  1.2021 -0.7789
 9113TIP3    H248831   2.008   3.739   1.733  0.0707  0.4044 -0.0785
 9114TIP3   OH248832   4.032   5.250  15.234 -0.1392 -0.4287  0.2337
 9114TIP3    H148833   4.088   5.317  15.194  0.3668 -0.5247  0.7813
 9114TIP3    H248834   4.091   5.180  15.258 -0.4914 -0.5353  0.8195
 9115TIP3   OH248835   6.129   6.600  16.741  0.3969 -0.4021  0.6616
 9115TIP3    H148836   6.142   6.575  16.832  1.4681 -1.1722  0.3184
 9115TIP3    H248837   6.196   6.666  16.725 -0.6466  0.7039  0.7901
 9116TIP3   OH248838   0.641   0.932   0.793  0.5375  0.4024  0.5845
 9116TIP3    H148839   0.589   0.855   0.816 -0.7349  1.6008  1.9781
 9116TIP3    H248840   0.704   0.940   0.865  0.7076  0.5996  0.4137
 9117TIP3   OH248841   2.060   6.056   6.075  0.0311 -0.1351 -0.3679
 9117TIP3    H148842   2.013   6.025   5.998 -1.2517 -0.0967  0.3682
 9117TIP3    H248843   2.042   6.150   6.078 -1.5167 -0.4431  1.0059
 9118TIP3   OH248844   2.026   1.845  11.052 -0.1481 -0.3311  0.0966
 9118TIP3    H148845   2.091   1.914  11.064 -0.4556  0.1275 -0.7875
 9118TIP3    H248846   2.021   1.833  10.957 -1.2363 -0.4748  0.1599
 9119TIP3   OH248847   3.812   6.439   4.439  0.0851  0.1323 -0.0226
 9119TIP3    H148848   3.837   6.350   4.414  0.1248 -0.0747  0.7065
 9119TIP3    H248849   3.893   6.477   4.474  0.3540  0.8556 -1.3682
 9120TIP3   OH248850   6.054   1.500  10.986  0.1672 -0.2755 -0.1338
 9120TIP3    H148851   6.011   1.583  11.007  2.1969  1.0765 -0.9449
 9120TIP3    H248852   6.105   1.519  10.907  1.7847 -1.8690  0.4464
 9121TIP3   OH248853   2.056   2.648  17.002  0.5148 -0.2938 -0.0065
 9121TIP3    H148854   2.111   2.608  16.935  0.7731  1.1572 -0.6935
 9121TIP3    H248855   1.970   2.608  16.991  0.1731  0.9406 -2.1569
 9122TIP3   OH248856   4.002   0.058   1.538  0.4875 -0.4241 -0.0224
 9122TIP3    H148857   4.067   0.126   1.523  0.9198 -0.5992  0.9622
 9122TIP3    H248858   4.039   0.004   1.608 -1.4056  0.4028  1.7220
 9123TIP3   OH248859   2.400   5.014   2.291 -0.0165  0.2848  0.0854
 9123TIP3    H148860   2.324   4.956   2.288  1.3865 -1.6233 -0.0074
 9123TIP3    H248861   2.431   5.016   2.200  1.9518 -1.6892  0.6291
 9124TIP3   OH248862   0.233   2.537   5.585 -0.1405 -0.0435 -0.3094
 9124TIP3    H148863   0.199   2.626   5.595  2.8878  1.1754  0.1643
 9124TIP3    H248864   0.159   2.481   5.607 -1.9589  2.3363  0.0987
 9125TIP3   OH248865   6.597   1.511  13.998 -0.0266 -0.7947  0.1313
 9125TIP3    H148866   6.628   1.435  13.949  1.3169 -0.4059  0.3176
 9125TIP3    H248867   6.614   1.585  13.939 -0.3017 -0.5300  0.3847
 9126TIP3   OH248868   2.119   2.391  13.440  0.5714 -0.1950 -0.0594
 9126TIP3    H148869   2.065   2.436  13.375  1.3663  2.1581  0.7974
 9126TIP3    H248870   2.057   2.345  13.495 -0.2940 -0.2471 -1.0490
 9127TIP3   OH248871   4.874   0.365  15.218 -0.1822  0.5501 -0.1716
 9127TIP3    H148872   4.935   0.397  15.285  0.5787 -2.2315  0.5953
 9127TIP3    H248873   4.920   0.379  15.135  1.3059 -0.9441  0.3481
 9128TIP3   OH248874   5.835   6.491   4.359  0.3451  0.2349  0.2692
 9128TIP3    H148875   5.856   6.557   4.425 -0.2046  0.1303  0.5583
 9128TIP3    H248876   5.915   6.439   4.351  1.1062  1.4757 -0.6353
 9129TIP3   OH248877   5.539   6.545   4.323 -0.1401 -0.5681  0.1273
 9129TIP3    H148878   5.530   6.611   4.254 -0.1382 -0.6177  0.0796
 9129TIP3    H248879   5.633   6.531   4.331 -0.0417  0.5619  1.2073
 9130TIP3   OH248880   6.020   1.679   2.319  0.1954  0.4272 -0.0423
 9130TIP3    H148881   5.933   1.695   2.284  0.0926 -1.1057 -0.5394
 9130TIP3    H248882   6.073   1.657   2.243  0.8251  0.5139  0.3613
 9131TIP3   OH248883   6.190   0.732   1.276  0.0958  0.1621 -0.4872
 9131TIP3    H148884   6.235   0.668   1.222  0.5223  0.8283 -0.9367
 9131TIP3    H248885   6.142   0.680   1.340  2.9960 -0.5762  1.2505
 9132TIP3   OH248886   5.377   1.440  11.664  0.1817 -0.2482 -0.3217
 9132TIP3    H148887   5.302   1.497  11.673  0.3359 -0.2842  1.7718
 9132TIP3    H248888   5.340   1.352  11.658  0.0259 -0.2727  0.7858
 9133TIP3   OH248889   1.059   5.591  16.234 -0.6612  0.4387 -0.7091
 9133TIP3    H148890   1.140   5.642  16.242 -1.3887  1.5991 -0.6578
 9133TIP3    H248891   1.054   5.568  16.142  0.3947 -0.7813 -0.4958
 9134TIP3   OH248892   4.608   0.778  16.516 -0.0079  0.1793 -0.1796
 9134TIP3    H148893   4.595   0.747  16.426  1.4902 -2.9233  0.5231
 9134TIP3    H248894   4.690   0.827  16.513 -0.6245  1.2164 -0.6903
 9135TIP3   OH248895   6.040   1.869  15.039  0.0614  0.4249 -0.1093
 9135TIP3    H148896   5.951   1.834  15.041 -0.2899  1.1582 -1.8246
 9135TIP3    H248897   6.030   1.962  15.060 -0.0910  1.3516 -3.7350
 9136TIP3   OH248898   0.903   1.842  13.751  0.8361  0.4940  0.4144
 9136TIP3    H148899   0.971   1.873  13.812 -0.5791  3.2472  0.7578
 9136TIP3    H248900   0.826   1.894  13.773 -1.6677 -2.8545  0.4194
 9137TIP3   OH248901   3.620   2.293  15.587 -0.0968  0.0318 -0.4147
 9137TIP3    H148902   3.646   2.375  15.628 -1.1478  0.4386 -0.5504
 9137TIP3    H248903   3.575   2.318  15.507 -3.9633 -0.4038  1.3927
 9138TIP3   OH248904   3.931   1.959  12.596  0.6524 -0.7457  0.2818
 9138TIP3    H148905   3.950   1.932  12.506 -0.6866 -0.4275 -0.1295
 9138TIP3    H248906   3.962   2.050  12.601  0.2411 -0.5818 -0.0417
 9139TIP3   OH248907   2.790   1.846   0.146 -0.0153 -0.1370 -0.1939
 9139TIP3    H148908   2.790   1.785   0.219 -0.1373  0.5422  0.3827
 9139TIP3    H248909   2.875   1.835   0.105  0.4540  0.1899  0.6630
 9140TIP3   OH248910   2.102   3.543  13.866 -0.3531 -0.4063 -0.6998
 9140TIP3    H148911   2.050   3.490  13.926  2.2713 -1.1396  1.0933
 9140TIP3    H248912   2.127   3.620  13.917  1.0326 -0.5190 -1.1583
 9141TIP3   OH248913   1.686   6.617  11.988  0.3122 -0.1907 -0.0953
 9141TIP3    H148914   1.659   6.541  11.936  0.6799 -0.6821  0.4224
 9141TIP3    H248915   1.740   6.580  12.058  0.9972  0.6153 -0.1904
 9142TIP3   OH248916   4.935   3.866   0.860  0.0066  0.7191 -0.4982
 9142TIP3    H148917   4.860   3.807   0.852  0.3668  0.2400 -0.4486
 9142TIP3    H248918   4.985   3.852   0.780  1.1085 -0.5143  0.3375
 9143TIP3   OH248919   4.373   2.307   0.220 -0.2359  0.4045 -0.0422
 9143TIP3    H148920   4.380   2.213   0.205 -0.7084  0.5796 -1.6050
 9143TIP3    H248921   4.381   2.318   0.314 -1.1789 -1.2881  0.2660
 9144TIP3   OH248922   5.585   5.460   2.326 -0.2066  0.3936 -0.2962
 9144TIP3    H148923   5.609   5.544   2.286 -0.0971  0.9038  0.7963
 9144TIP3    H248924   5.542   5.412   2.256  0.9319  0.8181 -1.3305
 9145TIP3   OH248925   6.135   1.613   1.020  0.0172 -0.0468 -0.2810
 9145TIP3    H148926   6.157   1.550   1.089 -1.1127  0.5144  0.6243
 9145TIP3    H248927   6.062   1.572   0.974 -0.1920  0.2377 -0.2018
 9146TIP3   OH248928   6.747   1.869  14.143  0.3361 -0.3482  0.1691
 9146TIP3    H148929   6.791   1.803  14.198  2.1791  1.8173  1.4717
 9146TIP3    H248930   6.813   1.895  14.079  0.0023  0.9496  0.3288
 9147TIP3   OH248931   5.320   2.561  14.846  0.3740 -0.4050  0.3910
 9147TIP3    H148932   5.367   2.552  14.763 -0.2217 -0.3245  0.0399
 9147TIP3    H248933   5.346   2.647  14.879  1.3211 -0.8131  0.7413
 9148TIP3   OH248934   1.907   3.171  15.366  0.0526  0.1417  0.1363
 9148TIP3    H148935   1.889   3.078  15.380  1.5419 -0.1114  0.6261
 9148TIP3    H248936   1.851   3.196  15.293 -0.6924 -1.0248  0.2806
 9149TIP3   OH248937   0.804   6.662   1.549 -0.4995  0.0095 -0.2522
 9149TIP3    H148938   0.869   6.600   1.518  0.7135  1.5077 -0.8295
 9149TIP3    H248939   0.817   6.665   1.644  1.3088  1.3515 -0.4956
 9150TIP3   OH248940   4.666   4.712  15.752 -0.1809  0.0722 -0.0962
 9150TIP3    H148941   4.690   4.694  15.661  0.4882 -0.5424  0.1908
 9150TIP3    H248942   4.574   4.689  15.758  0.0699 -1.0551 -0.3284
 9151TIP3   OH248943   6.360   2.397  13.977  0.3906  0.2394 -0.5281
 9151TIP3    H148944   6.317   2.477  13.948  1.0973  0.3596 -1.3015
 9151TIP3    H248945   6.294   2.351  14.029  0.3386  1.8824  0.9686
 9152TIP3   OH248946   4.087   6.441  14.174 -0.5425 -0.0092 -0.6073
 9152TIP3    H148947   4.159   6.503  14.181  0.0251 -0.6828 -0.2627
 9152TIP3    H248948   4.040   6.449  14.256  0.4850 -1.1462  0.1430
 9153TIP3   OH248949   2.228   1.452  12.969  0.3444  0.4265  0.1735
 9153TIP3    H148950   2.206   1.531  12.921  0.5146  1.3910  1.6231
 9153TIP3    H248951   2.322   1.443  12.959  0.9312  2.4047  2.7743
 9154TIP3   OH248952   4.155   2.459  14.941  0.2970 -0.3238 -0.3732
 9154TIP3    H148953   4.107   2.530  14.985 -0.4977 -1.4501  0.6535
 9154TIP3    H248954   4.226   2.438  15.001  0.4923 -0.4393 -0.6442
 9155TIP3   OH248955   3.450   6.399   4.362  0.1805  0.0713  0.0497
 9155TIP3    H148956   3.460   6.436   4.274  0.2221  0.2359  0.1246
 9155TIP3    H248957   3.448   6.474   4.421 -0.2323 -0.0158  0.1577
 9156TIP3   OH248958   2.311   3.071  14.219  0.1687  0.0382 -0.0681
 9156TIP3    H148959   2.264   3.009  14.164 -3.7601  1.8601  0.8542
 9156TIP3    H248960   2.302   3.155  14.173  1.4137  0.7179  0.8630
 9157TIP3   OH248961   6.171   2.678  12.869  0.4354 -0.7340 -0.1024
 9157TIP3    H148962   6.263   2.698  12.852 -0.0459  1.2379 -0.7036
 9157TIP3    H248963   6.150   2.730  12.947 -0.2492 -0.8740 -0.1893
 9158TIP3   OH248964   0.790   2.976   1.336  0.1924  0.4640  0.0868
 9158TIP3    H148965   0.732   3.018   1.273 -1.6552 -0.3929  1.1327
 9158TIP3    H248966   0.848   2.922   1.284  0.0729  1.3567 -1.0014
 9159TIP3   OH248967   3.159   5.837  11.390 -0.1724 -0.3100  0.5013
 9159TIP3    H148968   3.074   5.814  11.426 -0.7284  0.0677 -0.5417
 9159TIP3    H248969   3.140   5.878  11.306  1.1031 -1.7976 -0.5885
 9160TIP3   OH248970   0.796   6.687   5.898  0.7065  0.2420  0.8668
 9160TIP3    H148971   0.766   6.624   5.832 -0.6672  1.8595 -0.1642
 9160TIP3    H248972   0.890   6.696   5.882  1.0444 -1.9029  1.4102
 9161TIP3   OH248973   2.980   3.054  12.885 -0.0883 -0.0562  0.2128
 9161TIP3    H148974   2.897   3.031  12.927  0.8703 -2.1268  1.1113
 9161TIP3    H248975   3.047   3.032  12.950  1.1830  2.0647 -0.2818
 9162TIP3   OH248976   3.378   1.149  16.208  0.2807  0.9929  0.5881
 9162TIP3    H148977   3.438   1.116  16.141 -1.6345 -1.2896 -0.1470
 9162TIP3    H248978   3.434   1.167  16.283  1.8588 -1.6006  0.1577
 9163TIP3   OH248979   1.081   1.499  12.686 -0.2269 -0.2136  0.2827
 9163TIP3    H148980   1.009   1.448  12.726 -0.6567 -0.8418 -1.2216
 9163TIP3    H248981   1.123   1.437  12.626  0.8399  0.5045  0.2727
 9164TIP3   OH248982   6.358   6.190   2.610 -0.2946  0.0171 -0.4949
 9164TIP3    H148983   6.308   6.111   2.632 -0.6468  0.2326 -0.5116
 9164TIP3    H248984   6.302   6.262   2.639 -0.7460  0.3186 -2.0260
 9165TIP3   OH248985   1.461   6.829   0.241  0.0444 -0.8585  0.2495
 9165TIP3    H148986   1.422   6.867   0.162  1.1667 -1.2763 -0.5377
 9165TIP3    H248987   1.520   6.762   0.208 -0.5523 -2.0622  1.5329
 9166TIP3   OH248988   2.431   2.082  14.129 -0.1186 -0.0427 -0.1240
 9166TIP3    H148989   2.433   1.990  14.101 -0.7549  0.0317 -0.4229
 9166TIP3    H248990   2.368   2.124  14.070 -0.8373  0.3041  0.8699
 9167TIP3   OH248991   5.493   4.209   3.851 -0.1924  0.6914 -0.4329
 9167TIP3    H148992   5.556   4.188   3.783 -0.4653 -0.4092 -0.3716
 9167TIP3    H248993   5.475   4.125   3.894 -1.0421  1.1306  0.1076
 9168TIP3   OH248994   5.501   6.180   0.215 -0.4122  0.1269  0.2052
 9168TIP3    H148995   5.587   6.194   0.254 -0.4608  1.7958 -0.1763
 9168TIP3    H248996   5.515   6.192   0.121 -1.3384  2.4198  0.2748
 9169TIP3   OH248997   5.183   1.741  12.250 -0.0793  0.3377  0.0106
 9169TIP3    H148998   5.102   1.778  12.284  0.4004  0.9191  0.5649
 9169TIP3    H248999   5.247   1.812  12.258  0.9689 -0.7044  1.4997
 9170TIP3   OH249000   1.461   1.454  11.835 -0.0902 -0.0209 -0.0947
 9170TIP3    H149001   1.367   1.466  11.848  0.1294  1.9104  0.0199
 9170TIP3    H249002   1.473   1.460  11.740 -0.3660 -3.1276 -0.4249
 9171TIP3   OH249003   2.448   3.044   1.130 -0.2177  0.3780 -0.5251
 9171TIP3    H149004   2.407   2.961   1.153 -0.1446  0.7282  0.9672
 9171TIP3    H249005   2.535   3.020   1.098  0.2595 -0.0778  1.0115
 9172TIP3   OH249006   5.508   3.708  10.704 -0.1209  0.3123 -0.0936
 9172TIP3    H149007   5.541   3.775  10.645  0.3410  2.1334  2.1280
 9172TIP3    H249008   5.416   3.697  10.678  0.3368  0.2112 -1.8243
 9173TIP3   OH249009   2.163   1.882   0.666  0.0979  0.2617  0.3485
 9173TIP3    H149010   2.075   1.918   0.673 -0.4222 -1.2252  2.2630
 9173TIP3    H249011   2.149   1.790   0.641  1.1897  0.3220 -0.5889
 9174TIP3   OH249012   6.434   3.863  15.870 -0.1406  0.6159  0.2732
 9174TIP3    H149013   6.376   3.800  15.826  0.1546 -0.1343  0.9195
 9174TIP3    H249014   6.381   3.896  15.943 -0.6942  1.9951 -0.7161
 9175TIP3   OH249015   6.145   4.039  12.073  0.7788 -0.2871  0.3618
 9175TIP3    H149016   6.182   4.115  12.117  0.6236  0.5978 -0.9690
 9175TIP3    H249017   6.219   3.979  12.064  0.9877 -0.1539  1.1105
 9176TIP3   OH249018   3.414   5.232   5.071  0.5288  0.4459  1.1105
 9176TIP3    H149019   3.333   5.247   5.120  1.3027  1.4391  2.1704
 9176TIP3    H249020   3.388   5.183   4.993 -1.2938  1.9925  0.6975
 9177TIP3   OH249021   4.909   5.267   2.853  0.3072  0.9402  0.1614
 9177TIP3    H149022   4.973   5.200   2.829 -0.6613 -0.3031  0.9236
 9177TIP3    H249023   4.871   5.294   2.769 -2.8230 -3.1232 -0.0923
 9178TIP3   OH249024   2.786   4.033   3.104  0.6619 -0.1430  0.1821
 9178TIP3    H149025   2.713   4.091   3.123  0.5786 -0.5461  1.1998
 9178TIP3    H249026   2.763   3.951   3.148  2.6469  0.3700  2.4213
 9179TIP3   OH249027   1.410   2.382  10.725 -0.0679  0.2768  0.6634
 9179TIP3    H149028   1.333   2.384  10.669 -0.9705  1.2775  1.8681
 9179TIP3    H249029   1.391   2.445  10.795  1.3065 -0.3722  1.6942
 9180TIP3   OH249030   5.341   3.451  16.456 -0.6636 -0.0204 -0.1541
 9180TIP3    H149031   5.247   3.462  16.437 -1.0179  1.7146  2.1857
 9180TIP3    H249032   5.384   3.516  16.399 -0.9428 -0.2289 -0.6137
 9181TIP3   OH249033   5.325   5.792  11.727 -0.0535  0.3995 -0.4797
 9181TIP3    H149034   5.398   5.763  11.781 -0.4663 -2.5737 -1.3265
 9181TIP3    H249035   5.247   5.760  11.773 -0.7537  1.8603 -0.5667
 9182TIP3   OH249036   0.589   3.973  13.629  0.1495 -0.5659  0.4647
 9182TIP3    H149037   0.609   4.034  13.699 -1.4189  0.8797 -0.2812
 9182TIP3    H249038   0.494   3.980  13.616  0.2187 -1.6510 -1.0157
 9183TIP3   OH249039   1.374   5.519  11.167 -0.4986 -0.1158  0.0437
 9183TIP3    H149040   1.456   5.492  11.209  0.7490 -0.0149 -2.1689
 9183TIP3    H249041   1.314   5.447  11.183 -0.9939  0.9204  4.0220
 9184TIP3   OH249042   0.942   2.246  12.868 -0.1886  0.3789  0.5693
 9184TIP3    H149043   0.925   2.336  12.896 -0.3884  1.5335 -2.7399
 9184TIP3    H249044   0.859   2.218  12.828  0.6083 -0.3238 -0.6434
 9185TIP3   OH249045   0.538   2.884   6.093  0.0778 -0.5421 -0.0944
 9185TIP3    H149046   0.622   2.857   6.130  0.7334  1.9258  0.3995
 9185TIP3    H249047   0.475   2.867   6.162  0.2176 -1.9293 -0.2775
 9186TIP3   OH249048   2.627   1.947   4.348 -0.2151 -0.5955  0.1123
 9186TIP3    H149049   2.596   1.892   4.276  0.9514 -0.2746 -0.6633
 9186TIP3    H249050   2.693   2.004   4.308  1.1646 -1.0656  1.6136
 9187TIP3   OH249051   4.682   6.405   0.343  0.0838  0.2017  0.2229
 9187TIP3    H149052   4.617   6.338   0.320  0.4329 -0.3545  0.7955
 9187TIP3    H249053   4.631   6.484   0.359 -0.8804 -0.9094  3.5447
 9188TIP3   OH249054   5.942   0.421   5.523 -0.8820  0.6041 -0.2481
 9188TIP3    H149055   5.855   0.393   5.495 -0.7811 -0.6631  0.6005
 9188TIP3    H249056   5.988   0.443   5.442 -0.9907 -1.7348 -1.0241
 9189TIP3   OH249057   4.186   1.717   0.833  0.0437  0.0671 -0.7676
 9189TIP3    H149058   4.231   1.642   0.793  0.0886 -2.0513  2.8595
 9189TIP3    H249059   4.242   1.743   0.906 -0.8115  2.6363 -0.9232
 9190TIP3   OH249060   5.167   3.378   5.426 -0.4334  0.0048 -0.1160
 9190TIP3    H149061   5.143   3.457   5.377  1.3549  0.3641 -0.4882
 9190TIP3    H249062   5.150   3.401   5.518 -1.4945  0.2015 -0.3464
 9191TIP3   OH249063   0.807   4.092   0.586  0.1453  0.5797 -0.7709
 9191TIP3    H149064   0.777   4.003   0.568  2.7380 -1.3103  2.7867
 9191TIP3    H249065   0.737   4.131   0.639  0.0432 -0.3339 -0.2135
 9192TIP3   OH249066   1.222   6.801   2.849 -0.3651 -0.4406  0.4882
 9192TIP3    H149067   1.294   6.821   2.908  0.6585  0.0756 -0.8985
 9192TIP3    H249068   1.207   6.707   2.861  1.2496 -0.7776  0.0162
 9193TIP3   OH249069   0.586   6.123   2.050  0.5561 -0.0682 -0.2533
 9193TIP3    H149070   0.583   6.219   2.059  0.6607 -0.2320  2.1793
 9193TIP3    H249071   0.679   6.104   2.036  0.4291  0.1972 -1.6641
 9194TIP3   OH249072   3.825   4.378  12.471  0.8500 -0.0270  0.0963
 9194TIP3    H149073   3.880   4.426  12.409  0.1368 -0.9039 -1.2604
 9194TIP3    H249074   3.767   4.445  12.508  0.0425  0.2334 -1.5695
 9195TIP3   OH249075   5.695   1.768   0.064 -0.0849 -0.8115  0.7080
 9195TIP3    H149076   5.685   1.712   0.141 -2.0775 -1.0356  0.3352
 9195TIP3    H249077   5.621   1.745   0.007  2.1520 -1.7562 -2.0296
 9196TIP3   OH249078   4.353   2.686  12.546 -0.2936 -0.2248  0.1273
 9196TIP3    H149079   4.361   2.763  12.602 -0.5332 -0.9562  1.1936
 9196TIP3    H249080   4.263   2.657  12.558  0.1944 -1.5116  0.8817
 9197TIP3   OH249081   5.038   2.242  12.701 -0.3919 -0.0511 -0.3562
 9197TIP3    H149082   5.120   2.242  12.751 -0.5310  1.0989 -0.1174
 9197TIP3    H249083   5.007   2.151  12.707  1.3737 -0.7862 -1.3280
 9198TIP3   OH249084   5.203   5.629  13.569 -0.3695  0.0990  0.0677
 9198TIP3    H149085   5.212   5.665  13.657  0.1807 -1.8242  0.8582
 9198TIP3    H249086   5.116   5.590  13.567 -0.7248  0.8874 -0.5687
 9199TIP3   OH249087   2.117   6.431   0.525  0.1444  0.2762 -0.0471
 9199TIP3    H149088   2.108   6.376   0.447 -1.1799 -0.1097  0.3495
 9199TIP3    H249089   2.189   6.491   0.504  1.3066 -1.2736 -0.6813
 9200TIP3   OH249090   4.287   5.963   3.730  0.1200 -0.1090  0.5600
 9200TIP3    H149091   4.345   5.914   3.672 -0.4360 -0.6224  0.4188
 9200TIP3    H249092   4.260   6.039   3.679 -2.6173 -1.9629 -1.0288
 9201TIP3   OH249093   0.180   5.511  14.382 -0.2962 -0.2852 -0.4659
 9201TIP3    H149094   0.155   5.522  14.291  0.5898 -0.8770 -0.7918
 9201TIP3    H249095   0.127   5.575  14.429 -1.3133 -0.5007 -1.2959
 9202TIP3   OH249096   2.254   3.648  12.929 -0.2106 -0.0818  0.8768
 9202TIP3    H149097   2.171   3.639  12.882 -0.4308 -0.6429  1.3666
 9202TIP3    H249098   2.321   3.632  12.862 -0.4611  1.2289  0.2826
 9203TIP3   OH249099   5.717   1.237  16.486  0.9345 -0.1614  0.3800
 9203TIP3    H149100   5.726   1.287  16.567 -0.0619  1.0507 -0.2234
 9203TIP3    H249101   5.633   1.192  16.494  0.1123  1.1508 -0.5776
 9204TIP3   OH249102   5.754   3.103   1.051 -0.1087  0.1679 -0.7418
 9204TIP3    H149103   5.665   3.076   1.074  0.0114 -0.9585 -1.5266
 9204TIP3    H249104   5.773   3.055   0.970  1.1935  0.4514 -0.6206
 9205TIP3   OH249105   5.938   6.456   1.003 -0.1603  0.2336  0.1643
 9205TIP3    H149106   5.863   6.447   1.061 -1.4552  0.1005 -1.4467
 9205TIP3    H249107   5.933   6.380   0.945  0.7221  0.6680 -0.5157
 9206TIP3   OH249108   0.459   6.797   2.679  0.2776 -0.0262  0.0100
 9206TIP3    H149109   0.422   6.710   2.662  0.6602 -0.3072  0.5492
 9206TIP3    H249110   0.491   6.827   2.594 -0.8610  0.0760 -0.3948
 9207TIP3   OH249111   6.450   6.395   2.337  0.1619  0.8366 -0.0295
 9207TIP3    H149112   6.502   6.475   2.345 -0.3446  1.0752  1.1000
 9207TIP3    H249113   6.362   6.421   2.364 -0.3734  0.2398 -1.1045
 9208TIP3   OH249114   3.560   0.117  11.591  0.4777 -0.6643  0.3630
 9208TIP3    H149115   3.530   0.065  11.516  0.0489 -1.1559  0.8728
 9208TIP3    H249116   3.565   0.055  11.663  2.8093 -0.6321  0.3184
 9209TIP3   OH249117   1.408   6.089   5.061  0.1946  0.5318 -0.1184
 9209TIP3    H149118   1.482   6.144   5.086  1.7224 -1.1702 -0.7192
 9209TIP3    H249119   1.355   6.083   5.140 -0.2404  3.0945 -0.1243
 9210TIP3   OH249120   3.740   2.154   2.808 -0.3831 -0.4386  0.6062
 9210TIP3    H149121   3.793   2.081   2.777 -0.4208 -1.0771  2.0004
 9210TIP3    H249122   3.802   2.211   2.854 -0.3009  0.5850 -0.6911
 9211TIP3   OH249123   4.673   3.666   5.558  0.1860  0.7677  0.3549
 9211TIP3    H149124   4.678   3.578   5.595  0.7823  0.5981 -0.1206
 9211TIP3    H249125   4.758   3.680   5.518  1.0827  2.5568  2.6262
 9212TIP3   OH249126   2.056   0.953   6.454  0.9218 -0.0357 -0.7114
 9212TIP3    H149127   2.016   0.902   6.524  0.9280 -0.8785 -1.3133
 9212TIP3    H249128   2.070   1.040   6.493  0.4431 -0.3361  0.1576
 9213TIP3   OH249129   4.695   6.129  12.134 -0.0771 -0.2489 -0.1456
 9213TIP3    H149130   4.645   6.151  12.055  1.1656  0.9908 -0.6296
 9213TIP3    H249131   4.781   6.102  12.102  0.1013 -0.7865  0.7460
 9214TIP3   OH249132   1.070   0.937  12.155  0.4763  0.0433  0.0117
 9214TIP3    H149133   1.127   0.976  12.221 -0.1756 -0.6649  1.0238
 9214TIP3    H249134   0.998   0.999  12.145  0.4743  0.0603  0.1293
 9215TIP3   OH249135   6.576   3.186  13.575 -0.2962  0.1060 -0.0581
 9215TIP3    H149136   6.594   3.166  13.484  1.1194 -0.1759  0.2620
 9215TIP3    H249137   6.555   3.102  13.615  0.5793  0.0043  0.1938
 9216TIP3   OH249138   6.828   0.501   6.684  0.0059 -0.6301 -0.2711
 9216TIP3    H149139   6.807   0.546   6.766  2.5127  1.5360 -0.6617
 9216TIP3    H249140   6.745   0.496   6.637 -0.9173  1.0059  1.0614
 9217TIP3   OH249141   3.251   1.281   1.078 -0.0157 -0.0486  0.0516
 9217TIP3    H149142   3.273   1.210   1.138  0.6866  0.1860  0.0769
 9217TIP3    H249143   3.321   1.280   1.012 -0.4090  0.1363 -0.3777
 9218TIP3   OH249144   1.923   0.316  12.577  0.2608 -0.0618  0.1277
 9218TIP3    H149145   1.899   0.224  12.584 -0.0199  0.0673  0.9609
 9218TIP3    H249146   1.863   0.361  12.636  1.4611  0.4614  0.9912
 9219TIP3   OH249147   5.068   2.478   6.048  0.3621 -0.2521 -0.5549
 9219TIP3    H149148   5.116   2.435   6.119  1.5207  1.0530 -0.5098
 9219TIP3    H249149   4.979   2.444   6.055  1.1234 -2.3256 -0.2921
 9220TIP3   OH249150   5.478   2.006   3.522 -0.5136  0.3391  0.6268
 9220TIP3    H149151   5.396   1.996   3.474  0.8736 -0.7967 -1.7201
 9220TIP3    H249152   5.517   2.086   3.485  0.3167 -0.2337  0.2317
 9221TIP3   OH249153   4.096   1.540   5.168  0.0523 -0.1325 -0.1371
 9221TIP3    H149154   4.054   1.505   5.247  0.7693 -0.9855 -0.1083
 9221TIP3    H249155   4.055   1.493   5.096  0.1790 -0.1647 -0.1883
 9222TIP3   OH249156   3.658   3.294  11.797  0.0648 -0.8601 -0.1360
 9222TIP3    H149157   3.748   3.326  11.789  0.4237 -1.8294 -0.0962
 9222TIP3    H249158   3.667   3.199  11.799 -1.0499 -1.0073 -1.2486
 9223TIP3   OH249159   2.261   2.873  10.604  0.7423  0.5171  0.0537
 9223TIP3    H149160   2.288   2.811  10.536  1.5600 -1.0910  1.7536
 9223TIP3    H249161   2.344   2.910  10.636  0.8743 -1.9637  3.0314
 9224TIP3   OH249162   6.405   1.574  11.857 -0.1627 -0.0773 -0.0895
 9224TIP3    H149163   6.400   1.567  11.761 -2.6650  0.4764 -0.0586
 9224TIP3    H249164   6.362   1.495  11.889 -0.2672  0.2382  0.5622
 9225TIP3   OH249165   5.193   0.847   0.391  0.3858  0.1513 -0.5548
 9225TIP3    H149166   5.259   0.780   0.405  0.1044 -0.1193 -0.5265
 9225TIP3    H249167   5.228   0.924   0.436  0.5759 -0.0512 -0.3514
 9226TIP3   OH249168   2.910   2.173   4.879 -0.0169 -0.4142 -0.1996
 9226TIP3    H149169   2.865   2.248   4.840 -0.1228 -0.7881 -0.8090
 9226TIP3    H249170   2.943   2.123   4.804 -0.9647 -1.6151  0.1553
 9227TIP3   OH249171   4.306   3.384   1.786 -0.2844  0.1477 -0.4566
 9227TIP3    H149172   4.288   3.335   1.706 -2.7676 -0.0752  0.1338
 9227TIP3    H249173   4.266   3.469   1.771 -2.2868 -0.4256  1.0416
 9228TIP3   OH249174   1.799   3.780  15.960 -0.1479  0.2265 -0.2901
 9228TIP3    H149175   1.731   3.798  15.895 -0.3316  1.8244  0.3193
 9228TIP3    H249176   1.767   3.820  16.041  0.7794 -0.4056  0.4181
 9229TIP3   OH249177   3.836   0.858  13.174  0.2183 -0.3016 -0.2600
 9229TIP3    H149178   3.782   0.824  13.103  1.0635 -1.5947 -0.3230
 9229TIP3    H249179   3.773   0.873  13.246 -0.6216  0.9288 -1.2175
 9230TIP3   OH249180   6.499   2.134  14.850 -0.2548  0.0929  0.1021
 9230TIP3    H149181   6.568   2.069  14.844  0.3733  0.7783 -0.3393
 9230TIP3    H249182   6.441   2.114  14.776 -1.2886 -1.3090  1.2523
 9231TIP3   OH249183   4.922   1.488   2.719 -0.2118  0.4293  0.3327
 9231TIP3    H149184   4.886   1.498   2.631  0.4269 -0.1787 -0.0002
 9231TIP3    H249185   4.917   1.395   2.737 -1.4907  0.6850  1.4494
 9232TIP3   OH249186   3.523   0.747  14.467  0.6726  0.4432 -0.1991
 9232TIP3    H149187   3.566   0.831  14.481  2.0878 -0.5622  2.1146
 9232TIP3    H249188   3.568   0.687  14.526 -0.9378 -1.7452 -1.0496
 9233TIP3   OH249189   2.485   3.729  15.203 -0.6704 -0.0735 -0.0218
 9233TIP3    H149190   2.474   3.726  15.298  0.8948 -0.3453  0.1796
 9233TIP3    H249191   2.396   3.741  15.169 -1.1946  0.6065  1.4910
 9234TIP3   OH249192   0.637   3.923   4.956 -0.3375  0.1608 -0.1861
 9234TIP3    H149193   0.619   3.975   5.035 -1.0521 -0.3291 -0.0193
 9234TIP3    H249194   0.732   3.924   4.949 -0.0132 -1.9780  2.2335
 9235TIP3   OH249195   4.256   2.235  15.738  0.1130 -0.1249 -0.1517
 9235TIP3    H149196   4.280   2.305  15.797  1.0555  0.4211 -1.1545
 9235TIP3    H249197   4.290   2.262  15.653 -3.5587  0.4815 -1.6291
 9236TIP3   OH249198   2.990   3.699  11.570 -0.2113  0.3389 -0.6550
 9236TIP3    H149199   3.053   3.647  11.619 -1.6276 -0.6782  0.1599
 9236TIP3    H249200   2.921   3.637  11.546 -0.1090  1.0319 -3.0240
 9237TIP3   OH249201   0.599   6.143  13.113 -0.3341 -0.2126  0.2018
 9237TIP3    H149202   0.669   6.120  13.174  0.6504 -0.4154 -0.9672
 9237TIP3    H249203   0.608   6.080  13.042  0.0368  1.4276 -1.2709
 9238TIP3   OH249204   5.616   1.533  11.489 -0.2684  0.1469 -0.2291
 9238TIP3    H149205   5.700   1.490  11.504 -0.5584 -0.4682 -0.3142
 9238TIP3    H249206   5.627   1.621  11.523 -0.0830 -0.4033  1.2035
 9239TIP3   OH249207   2.728   2.571   5.240  0.0925 -0.2062  0.2763
 9239TIP3    H149208   2.723   2.652   5.189  0.1227  0.6084  1.5138
 9239TIP3    H249209   2.687   2.505   5.185  0.1436  0.6352 -0.7949
 9240TIP3   OH249210   0.419   2.620  15.173 -0.5871 -0.5798 -0.3665
 9240TIP3    H149211   0.345   2.592  15.227 -2.5876  0.3801 -2.4046
 9240TIP3    H249212   0.463   2.538  15.149 -2.5989 -1.4988 -1.1947
 9241TIP3   OH249213   3.557   5.684   5.363 -0.3850  0.6496  0.5609
 9241TIP3    H149214   3.625   5.732   5.316 -1.7879  0.5666 -1.6700
 9241TIP3    H249215   3.596   5.598   5.380 -0.6080 -0.2013 -2.6982
 9242TIP3   OH249216   1.656   4.952  14.029  0.3373 -0.6968 -0.4651
 9242TIP3    H149217   1.671   5.015  13.959  0.4650 -1.3767 -1.0655
 9242TIP3    H249218   1.740   4.906  14.038  0.1128 -1.0939 -0.3532
 9243TIP3   OH249219   1.274   5.887  11.663  0.2210  0.1537  0.1803
 9243TIP3    H149220   1.301   5.960  11.720  0.9121 -0.7483  1.0443
 9243TIP3    H249221   1.247   5.929  11.581  0.2217  1.4075  0.7955
 9244TIP3   OH249222   2.027   2.894  15.753  0.0461  0.1434 -0.0684
 9244TIP3    H149223   2.103   2.946  15.779  0.5432 -1.3350  1.6367
 9244TIP3    H249224   1.954   2.933  15.801 -0.2031  1.2400 -1.3031
 9245TIP3   OH249225   2.298   4.150  12.980 -0.0911 -0.4911  0.3691
 9245TIP3    H149226   2.212   4.158  12.938  1.3127  0.3481 -2.6002
 9245TIP3    H249227   2.304   4.226  13.038 -0.4833  0.7110 -1.1248
 9246TIP3   OH249228   0.696   2.118  11.295 -0.5157  0.1884 -0.1223
 9246TIP3    H149229   0.784   2.084  11.279  0.5913  0.6639  3.7745
 9246TIP3    H249230   0.642   2.041  11.310  0.1964 -0.0939  1.1606
 9247TIP3   OH249231   5.045   3.602  13.018  0.6214  0.0175 -1.0806
 9247TIP3    H149232   5.016   3.512  13.006  0.8692 -0.0566 -1.1260
 9247TIP3    H249233   5.062   3.635  12.930 -0.9072  0.5973 -1.1924
 9248TIP3   OH249234   2.025   4.784  16.083 -0.4167  0.4747  0.4691
 9248TIP3    H149235   2.051   4.740  16.164  1.6823 -1.3950 -1.1071
 9248TIP3    H249236   2.018   4.714  16.018  1.3704  2.2348 -1.7803
 9249TIP3   OH249237   1.151   2.193   1.425  0.1763 -0.3336  0.0821
 9249TIP3    H149238   1.118   2.151   1.504  0.5817  1.2274  1.1279
 9249TIP3    H249239   1.207   2.127   1.384  0.5377 -0.9355  1.4917
 9250TIP3   OH249240   0.423   5.437   0.839 -0.8710 -0.8973  0.4406
 9250TIP3    H149241   0.382   5.521   0.815 -1.0301 -1.3991 -1.1599
 9250TIP3    H249242   0.358   5.371   0.815  0.0921 -1.5932 -0.3461
 9251TIP3   OH249243   0.522   3.965  16.746  0.1344  0.1096  0.5190
 9251TIP3    H149244   0.562   3.892  16.794 -0.0111 -1.1731 -1.1884
 9251TIP3    H249245   0.596   4.012  16.708  0.1950  0.3534  0.9366
 9252TIP3   OH249246   1.133   4.696  14.013  0.1844  0.0634 -0.1767
 9252TIP3    H149247   1.214   4.682  13.964 -0.3018 -0.9466 -0.7259
 9252TIP3    H249248   1.080   4.619  13.995 -1.0873  0.9037 -0.1718
 9253TIP3   OH249249   0.355   4.746  11.920 -0.2311 -0.4961 -0.5938
 9253TIP3    H149250   0.285   4.686  11.946  0.0108 -1.0181 -1.1289
 9253TIP3    H249251   0.370   4.801  11.997 -0.3544 -1.2169 -0.0457
 9254TIP3   OH249252   0.886   4.262  14.503 -0.2399 -0.0015 -0.8174
 9254TIP3    H149253   0.893   4.170  14.476  1.7454 -1.0579  2.6343
 9254TIP3    H249254   0.811   4.296  14.454 -2.7857 -4.2121 -0.3465
 9255TIP3   OH249255   5.173   0.241  16.709 -0.0361  0.7591 -0.4543
 9255TIP3    H149256   5.135   0.153  16.716  0.3047  0.4857 -1.7339
 9255TIP3    H249257   5.257   0.234  16.754 -0.6527  0.8664  0.7728
 9256TIP3   OH249258   3.487   3.105   4.221  0.4729 -0.0865 -0.5362
 9256TIP3    H149259   3.407   3.156   4.210 -0.0854 -0.8506 -0.1147
 9256TIP3    H249260   3.469   3.046   4.294  1.3247 -0.4570 -0.6061
 9257TIP3   OH249261   0.312   4.072   4.993  0.6886  0.0353  0.0355
 9257TIP3    H149262   0.379   4.106   5.052 -0.5318  1.1497  0.8398
 9257TIP3    H249263   0.259   4.014   5.047  0.2348  0.1844 -0.2401
 9258TIP3   OH249264   0.104   2.757   5.645 -0.5685 -0.1666  0.1969
 9258TIP3    H149265   0.067   2.734   5.730  0.3362  1.8969  1.2219
 9258TIP3    H249266   0.069   2.844   5.626 -0.5016 -0.4564 -1.4071
 9259TIP3   OH249267   1.451   2.713   5.291 -0.4314 -0.3890 -0.2033
 9259TIP3    H149268   1.465   2.655   5.216 -1.5962  0.4391 -1.1125
 9259TIP3    H249269   1.439   2.800   5.252 -2.5248 -0.1626  0.7828
 9260TIP3   OH249270   2.539   4.787  13.803  0.5095 -0.1185  0.1053
 9260TIP3    H149271   2.551   4.704  13.848 -1.2127  0.0092  0.8781
 9260TIP3    H249272   2.622   4.803  13.760  1.1462 -1.8294  0.6230
 9261TIP3   OH249273   5.608   4.118   1.898  0.2455  0.3113 -0.7382
 9261TIP3    H149274   5.633   4.155   1.814  1.1061  0.3647 -0.4712
 9261TIP3    H249275   5.599   4.194   1.956  1.8553  0.1648 -0.2294
 9262TIP3   OH249276   3.306   6.277  11.884  0.4135 -0.5453  0.2973
 9262TIP3    H149277   3.356   6.320  11.815  0.5008 -0.0255  0.6688
 9262TIP3    H249278   3.313   6.184  11.865  1.3074 -0.4690  0.1904
 9263TIP3   OH249279   2.967   1.143  16.649  0.2840 -0.4732 -0.1157
 9263TIP3    H149280   2.911   1.193  16.590  0.1062  0.2392  0.6461
 9263TIP3    H249281   2.935   1.164  16.737  0.6641 -1.3732  0.2475
 9264TIP3   OH249282   3.753   4.499   6.337 -0.4142  0.8171  0.2164
 9264TIP3    H149283   3.726   4.412   6.308  0.2553  0.8881 -0.6631
 9264TIP3    H249284   3.763   4.491   6.432 -2.6276  0.5640  0.4844
 9265TIP3   OH249285   1.389   1.666   1.903  0.2802 -0.7439 -0.1706
 9265TIP3    H149286   1.386   1.708   1.989  1.0251  0.1960 -0.5848
 9265TIP3    H249287   1.414   1.575   1.922 -2.4594 -1.3706  0.8327
 9266TIP3   OH249288   3.720   6.761  11.064 -0.0158  1.0027  0.0078
 9266TIP3    H149289   3.723   6.721  10.977  0.9364  0.0749  0.4408
 9266TIP3    H249290   3.738   6.689  11.125 -0.5226  1.6604  0.9694
 9267TIP3   OH249291   1.239   5.671   4.866 -0.6994  0.1262  0.1181
 9267TIP3    H149292   1.227   5.576   4.862 -0.5664  0.1591 -1.4171
 9267TIP3    H249293   1.327   5.686   4.831 -0.8922  0.8613 -0.0694
 9268TIP3   OH249294   6.753   1.963   3.801 -0.1548  0.1869 -0.0021
 9268TIP3    H149295   6.698   1.964   3.723  0.6500  1.3274 -0.5776
 9268TIP3    H249296   6.767   1.870   3.820 -0.4951 -0.1011 -1.1176
 9269TIP3   OH249297   5.874   4.618  12.180 -0.1981  0.0097 -0.0686
 9269TIP3    H149298   5.909   4.535  12.148  1.1558  0.5578 -0.0518
 9269TIP3    H249299   5.837   4.597  12.266 -1.3540 -0.8871 -0.7500
 9270TIP3   OH249300   2.203   6.139   0.004 -0.4452  0.1595 -0.1917
 9270TIP3    H149301   2.258   6.200   0.054 -0.3120 -0.4924  0.4847
 9270TIP3    H249302   2.224   6.053   0.041 -2.1015 -0.0841  0.2618
 9271TIP3   OH249303   3.966   6.132  11.975  0.2383  0.2498  0.5041
 9271TIP3    H149304   4.044   6.186  11.968  0.5109  0.1062  2.0529
 9271TIP3    H249305   3.976   6.065  11.908  0.2329  1.6652 -0.9751
 9272TIP3   OH249306   3.681   4.970   2.067 -0.1141  0.3431  0.1865
 9272TIP3    H149307   3.673   4.996   2.159  0.1785  0.8194  0.0806
 9272TIP3    H249308   3.774   4.981   2.047 -0.6345  3.4606 -1.0750
 9273TIP3   OH249309   4.743   4.123  12.952 -0.6688 -0.5210 -0.2907
 9273TIP3    H149310   4.697   4.081  12.880 -0.2801 -1.4797 -0.0024
 9273TIP3    H249311   4.793   4.052  12.993 -0.6768  0.0493  0.7543
 9274TIP3   OH249312   6.185   6.236  15.037 -0.0235 -0.5803  0.3830
 9274TIP3    H149313   6.153   6.193  14.958  0.6256 -0.1622 -0.1234
 9274TIP3    H249314   6.196   6.165  15.100  3.0444 -1.6086 -1.0669
 9275TIP3   OH249315   5.382   3.746   0.466  0.3826 -0.1866  0.0533
 9275TIP3    H149316   5.386   3.812   0.397  0.0768 -1.0932 -0.8686
 9275TIP3    H249317   5.339   3.790   0.539 -1.2850  0.1885 -1.0940
 9276TIP3   OH249318   0.173   0.804   1.690 -0.2095 -0.3998  0.3438
 9276TIP3    H149319   0.187   0.718   1.652  0.7899 -1.0682  2.1142
 9276TIP3    H249320   0.244   0.815   1.753 -1.0255  1.1870  1.0633
 9277TIP3   OH249321   4.048   5.209   0.710 -0.4397  0.0931  0.8412
 9277TIP3    H149322   4.001   5.262   0.775  0.1772 -0.5050  1.7933
 9277TIP3    H249323   4.121   5.264   0.683 -0.8303  0.4371  0.4620
 9278TIP3   OH249324   2.777   6.644  13.477  0.4568  0.1608  0.0679
 9278TIP3    H149325   2.801   6.610  13.391  1.7519 -0.1320  0.5158
 9278TIP3    H249326   2.778   6.739  13.466 -0.4712  0.1229 -0.4970
 9279TIP3   OH249327   1.158   2.947  15.116  0.1748  0.2496 -0.2325
 9279TIP3    H149328   1.073   2.990  15.109 -0.0873 -0.4034 -1.3477
 9279TIP3    H249329   1.205   2.972  15.037  0.3336 -0.8292 -0.4952
 9280TIP3   OH249330   5.240   6.358  13.571  0.3054  0.2790  0.0378
 9280TIP3    H149331   5.168   6.418  13.589 -0.4922 -0.4240 -0.6746
 9280TIP3    H249332   5.301   6.409  13.518  0.1532  0.7719  0.3339
 9281TIP3   OH249333   0.837   5.408   1.074 -0.1639  0.2200  0.3225
 9281TIP3    H149334   0.797   5.460   1.143  0.8233 -1.0040  1.8948
 9281TIP3    H249335   0.779   5.419   0.998 -1.5403  1.2324  1.4736
 9282TIP3   OH249336   2.875   2.646   0.650 -0.0290  0.1004  0.0264
 9282TIP3    H149337   2.948   2.707   0.663 -0.0154  0.1547 -0.2983
 9282TIP3    H249338   2.867   2.639   0.555  0.6784 -1.2219  0.0321
 9283TIP3   OH249339   4.902   4.827  11.676  0.4773  0.5787  0.3946
 9283TIP3    H149340   4.980   4.788  11.715 -0.3675 -1.0483  0.5216
 9283TIP3    H249341   4.921   4.921  11.673  2.1453  0.2878  1.0599
 9284TIP3   OH249342   5.932   5.424   2.604 -0.0334  0.2552  0.1919
 9284TIP3    H149343   5.888   5.499   2.564  0.8024 -0.2789 -1.8679
 9284TIP3    H249344   5.967   5.374   2.529  0.9315 -1.2474  1.5801
 9285TIP3   OH249345   5.592   4.629  13.556  0.2025 -0.1073  0.5086
 9285TIP3    H149346   5.505   4.605  13.526  0.4684 -1.1245  0.5207
 9285TIP3    H249347   5.587   4.723  13.572 -0.5637  0.0580 -0.6159
 9286TIP3   OH249348   4.936   5.272  11.516 -0.1969  0.0516  0.8091
 9286TIP3    H149349   4.855   5.316  11.542  0.2188  0.1926  1.9182
 9286TIP3    H249350   4.944   5.290  11.422 -0.8095  1.0702  0.9418
 9287TIP3   OH249351   2.596   5.047   3.071 -0.5847 -0.5529  0.3088
 9287TIP3    H149352   2.571   5.092   2.990  0.2524 -0.8046 -0.0944
 9287TIP3    H249353   2.644   4.970   3.042 -3.5204 -2.7728  0.8971
 9288TIP3   OH249354   0.280   0.300  15.632  0.5778 -0.1310 -0.1099
 9288TIP3    H149355   0.356   0.357  15.617  0.5297 -0.3985 -1.4620
 9288TIP3    H249356   0.279   0.287  15.727  0.7102  1.9448  0.2353
 9289TIP3   OH249357   5.495   5.807  11.979 -0.3827 -0.1050 -0.0290
 9289TIP3    H149358   5.577   5.757  11.973 -0.7261 -0.5589 -1.0876
 9289TIP3    H249359   5.434   5.748  12.024 -0.3503 -0.0438  0.0977
 9290TIP3   OH249360   6.758   3.111   4.636 -0.1450 -0.7314  0.4961
 9290TIP3    H149361   6.809   3.140   4.561  0.1899 -0.8579  0.6716
 9290TIP3    H249362   6.672   3.089   4.601  0.6212 -2.8239 -0.2079
 9291TIP3   OH249363   6.108   0.071  11.154 -0.5705 -0.2551  0.2809
 9291TIP3    H149364   6.037   0.007  11.169 -1.3715  0.5029 -0.1774
 9291TIP3    H249365   6.066   0.156  11.164  0.0126  0.2281 -1.1207
 9292TIP3   OH249366   5.813   4.023   5.344 -0.1125  0.2581 -0.1065
 9292TIP3    H149367   5.749   4.026   5.415 -0.6407  0.0939 -0.5677
 9292TIP3    H249368   5.768   4.063   5.269  0.8960  1.6525 -0.0057
 9293TIP3   OH249369   5.255   6.765  12.721 -0.4642 -0.0437 -0.3631
 9293TIP3    H149370   5.347   6.785  12.738 -0.4693  0.1160 -0.5233
 9293TIP3    H249371   5.207   6.819  12.785 -0.4056 -1.0139  0.5251
 9294TIP3   OH249372   6.194   5.075   0.592  0.8615  0.0313 -0.2953
 9294TIP3    H149373   6.270   5.067   0.533  1.1610  1.2863 -0.1004
 9294TIP3    H249374   6.118   5.075   0.533  1.0842 -0.0040 -0.5842
 9295TIP3   OH249375   3.536   5.910   3.023  0.0084 -0.1648 -0.2879
 9295TIP3    H149376   3.453   5.875   3.054  0.8967 -0.6828  1.7168
 9295TIP3    H249377   3.602   5.862   3.074  1.4806  0.9337 -1.0895
 9296TIP3   OH249378   3.832   1.494  13.536  0.3738 -0.0330  0.2180
 9296TIP3    H149379   3.808   1.455  13.620  0.1563 -0.8957 -0.2263
 9296TIP3    H249380   3.751   1.491  13.485  0.8328 -0.8452 -0.5033
 9297TIP3   OH249381   2.193   3.652   0.067  0.1644  0.7308  0.3142
 9297TIP3    H149382   2.106   3.631   0.033  1.3394 -1.6983 -1.4991
 9297TIP3    H249383   2.211   3.582   0.129  0.9636  1.0271  0.4208
 9298TIP3   OH249384   4.944   5.534  13.551 -0.2651 -0.0786 -0.3417
 9298TIP3    H149385   4.856   5.504  13.530 -0.6459  0.0799  0.9618
 9298TIP3    H249386   4.985   5.459  13.595 -0.1493  0.2390  0.0960
 9299TIP3   OH249387   4.510   0.199   3.601  0.5594  0.2977  0.4423
 9299TIP3    H149388   4.484   0.194   3.509  1.2597  0.7394  0.2024
 9299TIP3    H249389   4.553   0.285   3.608  3.9319 -1.1912  0.2201
 9300TIP3   OH249390   2.213   5.888   2.329 -0.5073  0.1585 -0.0646
 9300TIP3    H149391   2.236   5.979   2.350 -0.5606  0.4349 -1.1312
 9300TIP3    H249392   2.248   5.874   2.241  1.9635 -1.7708  1.0977
 9301TIP3   OH249393   4.622   2.131   0.701  0.1657  0.1519 -0.0617
 9301TIP3    H149394   4.697   2.111   0.645 -0.9409  0.3433 -1.6722
 9301TIP3    H249395   4.578   2.047   0.714  0.2567  0.1567  0.2796
 9302TIP3   OH249396   0.436   6.465  15.488  0.3170  0.1982 -0.3537
 9302TIP3    H149397   0.381   6.464  15.410  0.1777  1.5614 -0.2988
 9302TIP3    H249398   0.479   6.380  15.488 -0.9429 -0.4697 -1.0002
 9303TIP3   OH249399   1.105   4.464   0.227 -0.5993 -0.0783  0.7293
 9303TIP3    H149400   1.194   4.468   0.260 -0.8420 -2.7184  1.9804
 9303TIP3    H249401   1.100   4.379   0.183 -2.3193  0.3037  0.1085
 9304TIP3   OH249402   5.642   5.174  13.336  0.0249 -0.3792  0.1642
 9304TIP3    H149403   5.694   5.195  13.413  0.8441 -0.5402 -0.3388
 9304TIP3    H249404   5.558   5.219  13.351  0.4888  0.3138  0.7338
 9305TIP3   OH249405   4.530   0.420   3.119  0.1136 -0.4289 -0.1329
 9305TIP3    H149406   4.440   0.388   3.107  0.1351 -0.6959  0.3683
 9305TIP3    H249407   4.527   0.466   3.204  0.5480 -0.8096  0.0911
 9306TIP3   OH249408   1.073   5.431  15.601 -0.2052  0.3082 -0.2820
 9306TIP3    H149409   1.082   5.395  15.512  0.2675 -0.4931  0.0834
 9306TIP3    H249410   1.159   5.466  15.622 -0.2633  0.3208 -0.0642
 9307TIP3   OH249411   2.333   2.075   1.393 -0.5914  0.4852 -0.4153
 9307TIP3    H149412   2.353   1.998   1.447 -0.8211  0.8723  0.2351
 9307TIP3    H249413   2.366   2.053   1.306  1.8381  0.7166  0.3689
 9308TIP3   OH249414   3.652   3.935  14.673 -0.2986  0.1230 -0.4364
 9308TIP3    H149415   3.582   3.974  14.724 -0.2803 -0.0967 -0.2451
 9308TIP3    H249416   3.726   3.929  14.733 -0.3881 -0.4772 -0.3777
 9309TIP3   OH249417   0.729   2.266  10.811  0.3929 -0.1610 -0.3658
 9309TIP3    H149418   0.778   2.255  10.893  1.4348 -1.5285 -1.1263
 9309TIP3    H249419   0.640   2.236  10.832  0.8899 -1.4051  0.0355
 9310TIP3   OH249420   6.521   0.073   0.447 -0.5527  0.7165  0.2737
 9310TIP3    H149421   6.529  -0.020   0.427 -0.9554  0.7328  0.0411
 9310TIP3    H249422   6.610   0.100   0.471 -0.3055  0.4192 -0.2876
 9311TIP3   OH249423   4.758   1.554  14.669  0.1789  0.5275 -0.1897
 9311TIP3    H149424   4.690   1.514  14.614  1.1465  0.9959 -1.7667
 9311TIP3    H249425   4.827   1.580  14.608  1.5205  0.6252  1.3067
 9312TIP3   OH249426   3.664   6.499  12.142  0.0327 -0.3429  0.4814
 9312TIP3    H149427   3.755   6.513  12.118  0.2965  0.7820  1.9685
 9312TIP3    H249428   3.626   6.587  12.143 -1.5571 -0.9227 -1.7969
 9313TIP3   OH249429   4.208   6.216  16.252  0.6096  0.4895 -0.6186
 9313TIP3    H149430   4.288   6.268  16.245  0.8172  0.6036  1.6289
 9313TIP3    H249431   4.222   6.140  16.196  2.2919  0.5439 -0.3087
 9314TIP3   OH249432   2.541   6.725   5.145  0.2445 -0.6273 -0.0243
 9314TIP3    H149433   2.547   6.757   5.235 -0.0713 -0.8606  0.0796
 9314TIP3    H249434   2.596   6.786   5.095 -0.7151  0.3709  0.0931
 9315TIP3   OH249435   5.241   3.954  16.930  0.2395 -0.7712  0.0429
 9315TIP3    H149436   5.292   3.948  17.011 -1.2282 -0.5779  1.0250
 9315TIP3    H249437   5.232   3.864  16.900  0.4172 -0.8929  0.3568
 9316TIP3   OH249438   4.046   4.144  11.503  0.6322  0.0331  0.2148
 9316TIP3    H149439   4.047   4.094  11.584  1.1859  1.2527  0.9773
 9316TIP3    H249440   3.956   4.175  11.495 -0.7073 -3.7236 -2.0051
 9317TIP3   OH249441   4.650   4.996   3.131 -0.2129 -0.2040  0.2393
 9317TIP3    H149442   4.673   5.032   3.217  0.8709 -1.3086  0.4414
 9317TIP3    H249443   4.671   5.067   3.069 -0.9371  0.5720  0.8597
 9318TIP3   OH249444   1.846   3.493  15.923 -0.2146 -0.0477  0.1739
 9318TIP3    H149445   1.856   3.586  15.943  0.0135 -0.0828  0.2317
 9318TIP3    H249446   1.764   3.487  15.875 -0.0172  0.2423 -0.2064
 9319TIP3   OH249447   6.338   0.090  12.448 -0.7448 -0.2878  0.2006
 9319TIP3    H149448   6.384   0.020  12.400 -0.9577 -0.2670 -0.0363
 9319TIP3    H249449   6.256   0.049  12.477 -1.7293  0.3554 -1.5107
 9320TIP3   OH249450   5.131   2.853   4.615 -0.4220  0.0370  0.1731
 9320TIP3    H149451   5.137   2.781   4.552 -0.9914  0.0920  0.0457
 9320TIP3    H249452   5.039   2.852   4.643 -0.6970  1.3853 -0.6349
 9321TIP3   OH249453   5.585   4.219  16.902 -0.3393 -0.0449 -0.5032
 9321TIP3    H149454   5.522   4.276  16.858 -0.5580 -1.1280 -1.6529
 9321TIP3    H249455   5.666   4.230  16.852  0.0714  0.4796  0.2704
 9322TIP3   OH249456   0.345   0.503  16.863 -0.0657  0.1350 -0.4968
 9322TIP3    H149457   0.329   0.588  16.904 -0.8050  0.0790 -0.6634
 9322TIP3    H249458   0.413   0.521  16.797  0.6954  0.3394  0.3299
 9323TIP3   OH249459   4.717   4.607  10.327 -0.0497  0.8680 -0.0558
 9323TIP3    H149460   4.731   4.666  10.401  1.0605  1.6454 -0.8486
 9323TIP3    H249461   4.799   4.559  10.318 -0.4435  0.2240 -0.3136
 9324TIP3   OH249462   0.601   1.588   4.170 -0.2761 -0.1234  0.3347
 9324TIP3    H149463   0.692   1.570   4.147 -0.4131 -0.6008  0.1575
 9324TIP3    H249464   0.569   1.641   4.097 -0.3126 -0.4721  0.0935
 9325TIP3   OH249465   3.806   2.067   4.209  0.0631  0.0671 -0.3682
 9325TIP3    H149466   3.811   1.997   4.274 -1.4031  0.0556 -0.2240
 9325TIP3    H249467   3.719   2.105   4.222 -0.1799  0.2027 -2.2021
 9326TIP3   OH249468   3.047   1.616  13.493 -0.2565 -0.2667 -0.2999
 9326TIP3    H149469   3.100   1.538  13.480 -0.0959 -0.3632  0.8084
 9326TIP3    H249470   2.988   1.593  13.566 -0.8858  0.2990 -0.6164
 9327TIP3   OH249471   0.193   0.660   3.357 -0.2054  0.3009  0.1930
 9327TIP3    H149472   0.213   0.635   3.447  1.4880 -0.9669 -0.4946
 9327TIP3    H249473   0.098   0.657   3.352 -0.2517 -1.3425  1.4694
 9328TIP3   OH249474   6.029   1.375  13.547 -0.2723 -0.2327 -0.4322
 9328TIP3    H149475   6.051   1.463  13.579 -1.3315 -0.2905  0.5044
 9328TIP3    H249476   6.059   1.375  13.456 -2.2529  1.9178 -1.1893
 9329TIP3   OH249477   5.902   0.780  15.274 -0.1340  0.5146  0.3677
 9329TIP3    H149478   5.892   0.866  15.314  2.5526  0.6084  0.9775
 9329TIP3    H249479   5.943   0.797  15.189  0.9672 -0.1739  0.7391
 9330TIP3   OH249480   1.608   6.421  14.479  0.5050  0.3290 -0.0299
 9330TIP3    H149481   1.681   6.473  14.446  0.3457  0.4423 -0.2107
 9330TIP3    H249482   1.607   6.344  14.423  1.9729 -0.8547  1.4808
 9331TIP3   OH249483   5.515   3.298  16.636 -0.8736 -0.0701  0.6489
 9331TIP3    H149484   5.464   3.365  16.591 -1.1079 -0.9125 -0.3639
 9331TIP3    H249485   5.458   3.221  16.639  1.0859 -1.8760 -2.7790
 9332TIP3   OH249486   0.014   5.342   1.811 -0.8271  0.2235 -0.3359
 9332TIP3    H149487   0.091   5.391   1.781 -0.9604 -0.1183 -1.2866
 9332TIP3    H249488  -0.043   5.339   1.734 -1.4279 -0.2346  0.1189
 9333TIP3   OH249489   3.170   0.008   6.293 -0.3029 -0.2471 -0.1376
 9333TIP3    H149490   3.216  -0.000   6.376 -0.0080 -1.4126 -0.3994
 9333TIP3    H249491   3.077   0.007   6.316 -0.2210 -0.5710  0.1748
 9334TIP3   OH249492   4.044   2.574   1.495  0.5895  0.4093 -0.0037
 9334TIP3    H149493   4.106   2.531   1.435  0.7263 -0.5944  0.8225
 9334TIP3    H249494   4.081   2.559   1.582 -0.1415  0.9491  0.4068
 9335TIP3   OH249495   3.906   4.002  12.234  0.0483 -0.0929 -0.3540
 9335TIP3    H149496   3.837   4.068  12.229 -0.0255 -0.0120  1.1616
 9335TIP3    H249497   3.860   3.918  12.224  0.0105  0.0324 -1.3014
 9336TIP3   OH249498   0.563   3.715   1.276  0.0193 -0.2414 -0.7434
 9336TIP3    H149499   0.558   3.746   1.186  0.3556  0.7040 -0.4469
 9336TIP3    H249500   0.651   3.739   1.305  0.5136 -1.9701 -0.6620
 9337TIP3   OH249501   5.235   6.093  11.724 -0.2074 -0.0733  0.0589
 9337TIP3    H149502   5.260   6.014  11.676 -0.2762 -1.0708  1.5871
 9337TIP3    H249503   5.235   6.065  11.816  0.4685  1.8963  0.6966
 9338TIP3   OH249504   6.749   2.365   4.569  0.2437 -0.1668 -0.4054
 9338TIP3    H149505   6.688   2.383   4.498 -0.6555 -1.7527 -0.1026
 9338TIP3    H249506   6.815   2.307   4.530 -0.6298 -1.6033  0.1536
 9339TIP3   OH249507   1.186   4.815   4.889  0.0545 -0.6336 -0.1526
 9339TIP3    H149508   1.238   4.855   4.960  1.3783  0.2301 -1.5466
 9339TIP3    H249509   1.142   4.889   4.847 -0.3362 -1.0737 -0.5155
 9340TIP3   OH249510   5.137   3.449  13.920  0.2942 -0.4489  0.1019
 9340TIP3    H149511   5.171   3.476  13.835 -1.2133 -0.6772 -0.6060
 9340TIP3    H249512   5.179   3.364  13.936  0.9838 -0.1649 -0.1531
 9341TIP3   OH249513   1.090   5.812  13.630  0.0984  0.3371  0.2547
 9341TIP3    H149514   1.036   5.886  13.602 -0.2843  0.2506  0.7790
 9341TIP3    H249515   1.046   5.776  13.706 -0.2146 -1.0080 -0.5271
 9342TIP3   OH249516   5.206   3.495  15.583 -0.1372  0.0175  0.1751
 9342TIP3    H149517   5.120   3.486  15.624  0.4078  2.1856  2.0105
 9342TIP3    H249518   5.268   3.486  15.655  1.3312 -2.4671 -1.2488
 9343TIP3   OH249519   3.796   6.599  11.495  0.4364 -0.5115 -0.1019
 9343TIP3    H149520   3.701   6.601  11.503 -0.0510 -3.7006 -2.6771
 9343TIP3    H249521   3.824   6.528  11.553  1.4870  1.2227  1.6061
 9344TIP3   OH249522   6.712   6.351  13.037  0.3151  0.1257 -0.9494
 9344TIP3    H149523   6.781   6.292  13.008  0.7971  0.0786  0.2411
 9344TIP3    H249524   6.758   6.423  13.080 -0.3797  0.1216 -0.1820
 9345TIP3   OH249525   2.720   1.055   1.941 -0.0558 -0.0041 -0.3262
 9345TIP3    H149526   2.799   1.092   1.901  0.2809  0.8440  1.0494
 9345TIP3    H249527   2.649   1.112   1.910  0.1156  0.2731 -0.2198
 9346TIP3   OH249528   0.005   1.319   0.053  0.5402 -0.0059 -0.0446
 9346TIP3    H149529   0.095   1.332   0.083  1.0262 -0.6143 -1.1976
 9346TIP3    H249530  -0.048   1.324   0.133  1.6302  0.0154  0.6908
 9347TIP3   OH249531   6.112   0.288   5.920  0.1168 -0.8623 -0.6750
 9347TIP3    H149532   6.043   0.344   5.955  1.0787 -0.6388  0.9683
 9347TIP3    H249533   6.067   0.209   5.891 -0.7098 -1.3961  1.8096
 9348TIP3   OH249534   2.716   6.343   3.516  0.0366  0.3587 -0.3243
 9348TIP3    H149535   2.706   6.248   3.522 -2.9363  0.6350  0.2526
 9348TIP3    H249536   2.718   6.361   3.422  0.2157 -0.2209 -0.4358
 9349TIP3   OH249537   2.738   1.328   1.611  1.0151 -0.8164 -0.0773
 9349TIP3    H149538   2.653   1.324   1.566  1.6387  0.3641 -1.4445
 9349TIP3    H249539   2.764   1.419   1.604  1.7163 -0.8415  1.7000
 9350TIP3   OH249540   3.944   5.337  11.943 -0.6027  0.2515  0.3681
 9350TIP3    H149541   3.980   5.426  11.942 -0.4576  0.2716  2.9405
 9350TIP3    H249542   4.020   5.280  11.942 -0.6832  0.1395 -0.4204
 9351TIP3   OH249543   4.014   0.615  11.982 -0.8390  0.4651  0.2911
 9351TIP3    H149544   3.939   0.668  11.955 -1.8123 -0.7150  0.5668
 9351TIP3    H249545   3.991   0.584  12.069 -0.1616 -0.1713  0.2530
 9352TIP3   OH249546   2.717   4.392   1.912  0.3802 -0.5946 -0.2427
 9352TIP3    H149547   2.810   4.394   1.935  0.3174  0.2145 -0.0350
 9352TIP3    H249548   2.693   4.300   1.920  1.0603 -0.7498  0.1224
 9353TIP3   OH249549   0.753   5.332  13.991  0.2846 -0.8537 -0.4423
 9353TIP3    H149550   0.742   5.254  14.046 -1.0740 -0.3409  0.0712
 9353TIP3    H249551   0.693   5.317  13.917 -1.2722  0.3942  0.4998
 9354TIP3   OH249552   0.259   1.526   5.240  0.0368 -0.6424 -1.0530
 9354TIP3    H149553   0.241   1.619   5.224 -1.0239 -0.8646 -1.2479
 9354TIP3    H249554   0.177   1.491   5.275  1.1637 -0.9754  1.4983
 9355TIP3   OH249555   1.251   5.153  15.526  0.1301  0.1011  0.5650
 9355TIP3    H149556   1.267   5.059  15.516 -1.0007 -0.0985  0.4930
 9355TIP3    H249557   1.228   5.163  15.618  0.5396  0.3536  0.6390
 9356TIP3   OH249558   0.192   5.379  14.878  0.0941  0.3281 -0.4787
 9356TIP3    H149559   0.157   5.314  14.939  0.5291  1.8881  1.4964
 9356TIP3    H249560   0.285   5.356  14.870  0.8611  2.1050  2.2328
 9357TIP3   OH249561   6.467   2.303  14.444  0.1902  0.1295 -0.0422
 9357TIP3    H149562   6.386   2.318  14.494  1.1760  0.8657  1.4065
 9357TIP3    H249563   6.510   2.231  14.490 -0.2185 -1.1567 -1.5843
 9358TIP3   OH249564   6.026   3.074   1.961  0.1390  0.2584  0.3353
 9358TIP3    H149565   5.944   3.123   1.965  0.9301  1.9753 -2.1168
 9358TIP3    H249566   6.069   3.091   2.045 -1.0536  1.1054  0.7949
 9359TIP3   OH249567   6.495   5.143   0.554 -0.2953 -0.1546 -0.1452
 9359TIP3    H149568   6.579   5.120   0.515 -0.2083  0.9577 -0.6624
 9359TIP3    H249569   6.451   5.194   0.486 -0.5282  1.0242  0.8580
 9360TIP3   OH249570   5.822   1.690   2.680 -0.0525  0.2714  0.1413
 9360TIP3    H149571   5.806   1.712   2.772 -0.9765 -1.9207  0.5791
 9360TIP3    H249572   5.752   1.629   2.658 -1.0354  2.1963 -2.6524
 9361TIP3   OH249573   0.189   4.156   3.634  0.0126  0.3590  0.2556
 9361TIP3    H149574   0.284   4.145   3.629  0.0471  0.5365  0.4627
 9361TIP3    H249575   0.153   4.081   3.587  0.2330 -0.6145  1.5700
 9362TIP3   OH249576   6.653   4.012  14.815 -0.0009  0.2473 -0.3147
 9362TIP3    H149577   6.662   4.103  14.788  0.9671  0.7463  1.5364
 9362TIP3    H249578   6.559   3.995  14.810 -0.3663  1.7980  0.5703
 9363TIP3   OH249579   1.232   3.863  11.319  0.3826 -0.3568  0.2362
 9363TIP3    H149580   1.196   3.777  11.298 -0.1419 -0.5243  1.7059
 9363TIP3    H249581   1.178   3.925  11.271 -1.0431 -0.6919  1.3343
 9364TIP3   OH249582   2.236   5.294   0.569  0.1845  0.3170  0.0513
 9364TIP3    H149583   2.252   5.292   0.475 -1.6082 -1.4070 -0.2843
 9364TIP3    H249584   2.314   5.254   0.608 -0.0803 -1.2492 -0.9230
 9365TIP3   OH249585   4.322   2.018  12.340 -0.0265 -0.4106 -0.2572
 9365TIP3    H149586   4.270   1.938  12.336 -1.2836  0.3601  0.1364
 9365TIP3    H249587   4.347   2.035  12.249 -2.4143  0.4244 -0.8110
 9366TIP3   OH249588   5.645   1.397   1.409  0.0222  0.2718 -0.3216
 9366TIP3    H149589   5.723   1.448   1.389  0.7538 -0.4418  0.6115
 9366TIP3    H249590   5.581   1.461   1.439 -0.2471  1.0434 -2.3661
 9367TIP3   OH249591   5.949   0.633   4.559  0.1428 -0.1769  0.1189
 9367TIP3    H149592   5.875   0.575   4.577 -1.8379  1.5550 -1.8131
 9367TIP3    H249593   5.991   0.594   4.482 -1.4571  1.0265 -1.4577
 9368TIP3   OH249594   6.120   1.388  16.116  0.6298  0.6136  0.1311
 9368TIP3    H149595   6.032   1.395  16.153  1.3100  2.2315  1.5762
 9368TIP3    H249596   6.140   1.476  16.084  1.7248  0.2709 -0.1903
 9369TIP3   OH249597   0.750   3.161   4.266  0.6528  0.2829 -0.1879
 9369TIP3    H149598   0.759   3.250   4.233 -1.1713  1.0782  1.3137
 9369TIP3    H249599   0.721   3.110   4.191  1.8896  0.8683 -1.1087
 9370TIP3   OH249600   4.990   0.124  15.861  0.2819 -0.2419  0.3898
 9370TIP3    H149601   5.008   0.049  15.919  1.1487  0.5193  1.1243
 9370TIP3    H249602   4.910   0.098  15.814 -0.5690 -0.8081  2.0582
 9371TIP3   OH249603   5.101   2.597   4.213  0.1156  0.0337  0.3835
 9371TIP3    H149604   5.081   2.686   4.184 -1.0961 -0.3484 -0.0120
 9371TIP3    H249605   5.089   2.599   4.308 -2.8347 -0.3579  0.1187
 9372TIP3   OH249606   0.144   6.215  16.308 -0.8445  0.1706 -0.1359
 9372TIP3    H149607   0.070   6.218  16.247 -1.5837  2.3131  0.7622
 9372TIP3    H249608   0.147   6.302  16.347  1.6858 -0.0841  0.4639
 9373TIP3   OH249609   2.881   0.671  12.294 -0.2476 -0.3620 -0.3564
 9373TIP3    H149610   2.861   0.579  12.281 -1.0084 -0.2546 -0.0369
 9373TIP3    H249611   2.974   0.673  12.319 -0.7235 -1.2510  1.7303
 9374TIP3   OH249612   5.253   2.529  11.582  0.2051  0.4499  0.0224
 9374TIP3    H149613   5.301   2.446  11.576 -0.5096 -0.0641  1.0026
 9374TIP3    H249614   5.180   2.519  11.522 -0.4402 -0.0456  0.8698
 9375TIP3   OH249615   6.801   3.433  17.123  0.1737  0.4328  0.0374
 9375TIP3    H149616   6.732   3.381  17.082  1.0788  1.5301 -3.1636
 9375TIP3    H249617   6.767   3.523  17.123  1.5739  1.0178 -1.7552
 9376TIP3   OH249618   0.410   0.399   2.459 -0.3799 -0.5144  0.2576
 9376TIP3    H149619   0.500   0.402   2.490 -0.4465 -1.3786  0.5584
 9376TIP3    H249620   0.415   0.421   2.366  0.1121 -0.3227  0.3302
 9377TIP3   OH249621   5.539   1.246  17.092 -0.0553 -0.7844  0.3135
 9377TIP3    H149622   5.459   1.281  17.130  1.2799 -0.3761  3.0190
 9377TIP3    H249623   5.586   1.323  17.059  1.1383 -0.3310  2.7925
 9378TIP3   OH249624   1.347   2.496   6.521  0.1750  0.2838 -0.2110
 9378TIP3    H149625   1.423   2.446   6.552  0.8594  0.4259 -1.5683
 9378TIP3    H249626   1.284   2.430   6.493  0.0664  0.1757  0.2690
 9379TIP3   OH249627   6.692   0.537   0.609  0.5134  0.3725 -0.3935
 9379TIP3    H149628   6.712   0.496   0.693  0.2165 -0.7988 -0.8785
 9379TIP3    H249629   6.627   0.605   0.630  2.4961  2.0216  0.7104
 9380TIP3   OH249630   0.722   4.935  16.367 -0.1769  0.3507 -0.3798
 9380TIP3    H149631   0.764   4.993  16.302 -1.8226  1.0678 -0.8426
 9380TIP3    H249632   0.634   4.920  16.332 -0.8814  0.2285  1.3809
 9381TIP3   OH249633   6.362   6.627   1.755  0.5096 -0.3365  0.3387
 9381TIP3    H149634   6.413   6.675   1.820 -1.3803  1.5342  0.5311
 9381TIP3    H249635   6.379   6.534   1.775  1.8665  0.1995  1.9192
 9382TIP3   OH249636   0.971   0.377   1.284 -0.2759  0.2356 -0.1894
 9382TIP3    H149637   0.981   0.327   1.365  0.3693 -0.2268 -0.5416
 9382TIP3    H249638   0.886   0.350   1.249 -0.4962  0.3374  0.2618
 9383TIP3   OH249639   0.456   4.848  16.332 -0.0078  0.2570 -0.2133
 9383TIP3    H149640   0.452   4.761  16.370  0.1990  0.6459  0.7448
 9383TIP3    H249641   0.387   4.850  16.266 -0.9394 -0.1804  0.7253
 9384TIP3   OH249642   5.823   3.429  11.867 -0.1448  0.2171  0.0408
 9384TIP3    H149643   5.795   3.520  11.853  0.9504  0.5743  0.0063
 9384TIP3    H249644   5.918   3.436  11.879 -0.1582 -0.8387  0.8628
 9385TIP3   OH249645   3.632   0.141   5.943 -0.0894  0.4000  0.0470
 9385TIP3    H149646   3.555   0.198   5.937 -0.0456  0.3498 -1.0782
 9385TIP3    H249647   3.597   0.052   5.939 -0.0752  0.3376  0.9189
 9386TIP3   OH249648   3.738   5.636   0.968 -0.1604 -0.1317 -0.0160
 9386TIP3    H149649   3.762   5.721   1.005 -0.4562  0.0691 -0.2810
 9386TIP3    H249650   3.651   5.650   0.931 -1.0537 -1.0387  1.6082
 9387TIP3   OH249651   0.196   5.977  15.761  0.5482 -0.4843  0.2794
 9387TIP3    H149652   0.110   6.014  15.777  1.2786  0.6080  1.9500
 9387TIP3    H249653   0.230   5.955  15.848  2.2381 -0.1921 -0.2576
 9388TIP3   OH249654   6.415   0.774  15.963  0.2643 -0.0926 -0.4408
 9388TIP3    H149655   6.364   0.855  15.956  0.9555  0.2542 -1.6458
 9388TIP3    H249656   6.400   0.744  16.053  0.6946  1.8449  0.3161
 9389TIP3   OH249657   1.653   1.600  11.319 -0.3027 -0.3392  0.4484
 9389TIP3    H149658   1.561   1.582  11.299 -0.2844 -0.0989  0.1462
 9389TIP3    H249659   1.685   1.648  11.243 -0.4773  1.4351  1.4386
 9390TIP3   OH249660   6.750   1.151   2.999  0.1203 -0.4934  0.1871
 9390TIP3    H149661   6.829   1.206   3.008  0.4125 -0.5809 -1.5396
 9390TIP3    H249662   6.773   1.070   3.045  1.2037 -0.6710 -0.6218
 9391TIP3   OH249663   4.338   4.295   0.564  0.0294  0.2409 -0.1608
 9391TIP3    H149664   4.243   4.284   0.569 -0.0107  0.8147  0.6650
 9391TIP3    H249665   4.350   4.389   0.548  0.4629  0.1824 -0.2037
 9392TIP3   OH249666   2.250   4.230  16.480  0.3600 -0.7498 -0.0190
 9392TIP3    H149667   2.327   4.204  16.429 -0.2477  0.0197 -1.3890
 9392TIP3    H249668   2.285   4.260  16.563  1.7622  1.2436 -1.2282
 9393TIP3   OH249669   6.421   0.663  14.950  0.1466 -0.5792  0.3568
 9393TIP3    H149670   6.458   0.678  14.863  0.2595 -1.1494  0.3009
 9393TIP3    H249671   6.380   0.746  14.974 -0.2901 -0.5573 -0.4397
 9394TIP3   OH249672   3.950   5.404   1.581  0.4866 -0.3067 -0.6327
 9394TIP3    H149673   3.893   5.337   1.620 -0.0631 -0.1751 -1.2107
 9394TIP3    H249674   3.963   5.468   1.651  1.4279 -1.2498  0.0993
 9395TIP3   OH249675   4.047   1.185  13.857 -0.1164 -0.7103 -0.4197
 9395TIP3    H149676   4.116   1.179  13.791 -0.8506 -1.9023 -1.1160
 9395TIP3    H249677   4.050   1.102  13.904 -1.9578 -1.3982 -1.4083
 9396TIP3   OH249678   3.098   2.214  15.963  0.2394 -0.1639 -0.2614
 9396TIP3    H149679   3.081   2.162  15.884  0.6500  0.7673 -0.9903
 9396TIP3    H249680   3.025   2.195  16.021 -1.1686  0.6760 -1.6884
 9397TIP3   OH249681   1.841   1.970   5.085  0.1380  0.0483  0.6781
 9397TIP3    H149682   1.767   1.914   5.064  0.6685 -1.0202  1.5421
 9397TIP3    H249683   1.885   1.986   5.001 -0.6842  0.1551  0.2626
 9398TIP3   OH249684   0.610   5.771  15.471 -0.5033  0.4989 -0.1716
 9398TIP3    H149685   0.657   5.781  15.554 -1.3040 -1.5923  0.5858
 9398TIP3    H249686   0.675   5.733  15.412  0.0028  1.7872 -0.4959
 9399TIP3   OH249687   0.282   4.952  16.593  0.3422 -0.2809  0.2552
 9399TIP3    H149688   0.316   5.033  16.555 -0.4563  0.2596  0.6567
 9399TIP3    H249689   0.358   4.894  16.597  1.0467  0.6189  0.4142
 9400TIP3   OH249690   4.835   6.065   0.696 -0.1549  0.1774  0.0685
 9400TIP3    H149691   4.921   6.025   0.679 -0.8316 -0.3126 -2.8368
 9400TIP3    H249692   4.835   6.145   0.642 -0.9714  1.0220  1.2691
 9401TIP3   OH249693   3.527   6.038  12.813  0.0180 -0.3016 -0.2767
 9401TIP3    H149694   3.516   5.973  12.744 -0.0290 -0.5623 -0.0241
 9401TIP3    H249695   3.620   6.063  12.807 -0.5718  1.7870 -2.3089
 9402TIP3   OH249696   1.556   2.566  16.200  0.3013 -0.9396 -0.0721
 9402TIP3    H149697   1.556   2.533  16.110 -1.7630 -2.1001  0.2993
 9402TIP3    H249698   1.482   2.626  16.204  1.0012 -0.0906  0.6065
 9403TIP3   OH249699   5.053   0.001  16.711  0.5988  0.2868 -0.6380
 9403TIP3    H149700   4.984   0.055  16.749  0.9583  0.7759 -0.6802
 9403TIP3    H249701   5.013  -0.086  16.703 -1.0603  1.1843 -3.4651
 9404TIP3   OH249702   6.533   5.121   3.002 -0.4089  0.7324 -0.1207
 9404TIP3    H149703   6.620   5.108   3.041 -0.7439  1.1016  0.7994
 9404TIP3    H249704   6.514   5.039   2.957 -1.0170 -0.7361  2.5728
 9405TIP3   OH249705   1.861   6.147  15.790 -0.2525  0.5565 -0.0179
 9405TIP3    H149706   1.816   6.227  15.764 -0.2716  0.7130  0.4779
 9405TIP3    H249707   1.953   6.171  15.794 -0.0702  0.1639 -1.3070
 9406TIP3   OH249708   2.029   2.457  10.464  0.7585 -0.2149  0.0313
 9406TIP3    H149709   2.018   2.510  10.544  0.7971 -0.5591  0.2663
 9406TIP3    H249710   1.978   2.378  10.481 -0.2051  0.2079 -0.7617
 9407TIP3   OH249711   3.094   3.953  11.888  0.4226  0.2481  0.1140
 9407TIP3    H149712   3.154   3.935  11.961 -0.2500 -2.3109  0.1365
 9407TIP3    H249713   3.151   3.975  11.814  1.2876 -0.2623  0.6213
 9408TIP3   OH249714   5.736   5.107   2.476 -0.6054 -0.0865  0.0538
 9408TIP3    H149715   5.786   5.182   2.443 -0.3205 -0.3280 -0.0664
 9408TIP3    H249716   5.661   5.146   2.520  0.2287  0.3388  1.1826
 9409TIP3   OH249717   5.217   1.400  12.476 -0.4038 -0.0155 -0.4102
 9409TIP3    H149718   5.261   1.437  12.400  1.3785  2.1272  1.5305
 9409TIP3    H249719   5.128   1.435  12.471 -0.1682  0.4947 -1.2532
 9410TIP3   OH249720   5.401   5.393  15.744 -0.0419 -0.1684 -0.1978
 9410TIP3    H149721   5.482   5.441  15.729  2.0014 -2.8240  1.4797
 9410TIP3    H249722   5.397   5.329  15.674 -2.0171  1.3721 -1.6128
 9411TIP3   OH249723   3.823   3.273   1.340  0.2002  0.4373 -0.4690
 9411TIP3    H149724   3.757   3.317   1.287 -0.4944 -0.8701 -0.7407
 9411TIP3    H249725   3.792   3.282   1.430  0.3949  1.0333 -0.4590
 9412TIP3   OH249726   2.906   5.319   0.540 -0.6191 -0.4586  0.8301
 9412TIP3    H149727   2.835   5.276   0.493 -0.4640 -0.0612  0.2178
 9412TIP3    H249728   2.924   5.262   0.615 -0.7747 -1.1740  0.3333
 9413TIP3   OH249729   1.729   3.618  15.640 -0.4545 -0.8828  0.3903
 9413TIP3    H149730   1.811   3.667  15.640 -1.0379  0.1186  0.0435
 9413TIP3    H249731   1.684   3.646  15.560 -0.6049 -2.3404 -0.0643
 9414TIP3   OH249732   3.270   6.057   2.172  0.8640  0.2406 -0.4937
 9414TIP3    H149733   3.291   5.972   2.133 -2.2517 -1.1468  0.5898
 9414TIP3    H249734   3.289   6.046   2.265  0.2271  0.6632 -0.3114
 9415TIP3   OH249735   0.269   3.130  14.007  0.5407 -0.0104  0.4087
 9415TIP3    H149736   0.273   3.104  14.099 -1.2149  0.8798  0.7537
 9415TIP3    H249737   0.274   3.225  14.008  2.1457 -0.0328 -0.5654
 9416TIP3   OH249738   0.067   1.907  13.864  0.1668  0.0473 -0.3036
 9416TIP3    H149739   0.001   1.966  13.828 -0.1740 -1.4927 -2.4184
 9416TIP3    H249740   0.041   1.821  13.832  2.8154 -0.6979 -0.6749
 9417TIP3   OH249741   2.007   3.681  16.900 -0.4807  0.0024  0.0446
 9417TIP3    H149742   2.003   3.617  16.972 -0.0848  0.8127  0.8070
 9417TIP3    H249743   2.051   3.634  16.829  1.1898 -0.1465  1.0992
 9418TIP3   OH249744   3.246   4.603   2.242  0.1338 -0.4252 -0.4922
 9418TIP3    H149745   3.290   4.528   2.283  1.4732  0.0394 -1.0470
 9418TIP3    H249746   3.164   4.566   2.208  0.3760 -1.4508 -0.0150
 9419TIP3   OH249747   6.348   0.126  15.899  0.4825 -0.2657  0.5446
 9419TIP3    H149748   6.309   0.096  15.981  0.0356 -1.6049 -0.1382
 9419TIP3    H249749   6.310   0.214  15.886 -0.8200 -0.7487  0.8851
 9420TIP3   OH249750   1.896   2.108   2.351 -0.1137  0.9602 -0.3553
 9420TIP3    H149751   1.908   2.036   2.412  2.5638  0.5566 -1.2013
 9420TIP3    H249752   1.917   2.187   2.402  1.7895  0.6544 -0.5916
 9421TIP3   OH249753   1.783   5.248   2.784  0.4109 -0.4374 -0.2576
 9421TIP3    H149754   1.736   5.328   2.807  3.1697  1.3693 -0.3057
 9421TIP3    H249755   1.766   5.236   2.691  0.7871  0.7606 -0.5023
 9422TIP3   OH249756   2.720   2.125  11.864  0.3289 -0.1621 -0.5372
 9422TIP3    H149757   2.655   2.191  11.886 -0.1994 -0.5066 -1.0512
 9422TIP3    H249758   2.733   2.075  11.945  1.3270  1.0550  0.0888
 9423TIP3   OH249759   5.884   1.734  10.749  0.5641  0.1681  0.0818
 9423TIP3    H149760   5.877   1.737  10.845  1.1333  1.0134  0.1126
 9423TIP3    H249761   5.958   1.792  10.729 -2.8728  4.6766 -1.1996
 9424TIP3   OH249762   6.069   5.181   4.541 -0.5974  0.2538  0.4652
 9424TIP3    H149763   6.092   5.249   4.604 -0.4092  0.6946 -0.0704
 9424TIP3    H249764   6.040   5.229   4.464  0.2894 -0.2612 -0.2028
 9425TIP3   OH249765   0.439   1.485  16.147 -0.1467 -0.2647 -0.1087
 9425TIP3    H149766   0.474   1.398  16.128 -0.7177 -0.0630 -2.3440
 9425TIP3    H249767   0.344   1.475  16.143 -0.2297  0.4092 -0.0618
 9426TIP3   OH249768   3.856   1.748   0.596 -0.2196 -0.5751  0.2237
 9426TIP3    H149769   3.808   1.752   0.679  0.5966 -0.1276  0.6823
 9426TIP3    H249770   3.889   1.658   0.592  0.2083 -0.4371  0.6526
 9427TIP3   OH249771   4.026   4.606   5.090 -0.1656  0.7532  0.1129
 9427TIP3    H149772   4.074   4.572   5.166  0.3821 -0.3116 -0.6780
 9427TIP3    H249773   4.094   4.641   5.033 -0.4807  0.6299 -0.3366
 9428TIP3   OH249774   2.534   5.722  12.788 -0.3063  0.0150 -0.0929
 9428TIP3    H149775   2.486   5.804  12.781 -3.1825 -1.4132  1.0407
 9428TIP3    H249776   2.560   5.701  12.698 -2.7862  0.4093 -0.9706
 9429TIP3   OH249777   3.677   0.098   4.372  0.0494  0.1652  0.1879
 9429TIP3    H149778   3.689   0.007   4.343  0.8513  0.3172  0.0126
 9429TIP3    H249779   3.608   0.093   4.438  0.8969 -0.7625  1.0405
 9430TIP3   OH249780   4.586   3.030   5.250 -0.1786 -0.2198  0.3601
 9430TIP3    H149781   4.526   3.015   5.177  0.4117  0.9597 -0.4033
 9430TIP3    H249782   4.673   3.029   5.211  0.1771 -0.0136  1.1213
 9431TIP3   OH249783   1.737   5.892  15.750  0.2839  0.2388 -0.2359
 9431TIP3    H149784   1.808   5.831  15.769 -0.6752 -0.5472  0.9933
 9431TIP3    H249785   1.777   5.979  15.756  1.3917 -0.2151 -0.7901
 9432TIP3   OH249786   1.964   0.573  17.077  0.0690 -1.0532 -0.2687
 9432TIP3    H149787   1.941   0.526  17.158  0.5921 -2.4741 -0.9178
 9432TIP3    H249788   2.034   0.633  17.104 -1.5425  0.4356  0.8655
 9433TIP3   OH249789   5.329   1.041   0.154 -0.0686  0.2502  0.6598
 9433TIP3    H149790   5.302   0.987   0.228  0.1041  0.0445  0.5720
 9433TIP3    H249791   5.389   1.105   0.192  1.0921 -0.6963  0.4785
 9434TIP3   OH249792   3.974   0.854  12.169 -0.1357 -0.5652 -0.1456
 9434TIP3    H149793   3.886   0.848  12.131 -0.4310 -0.8257  0.5771
 9434TIP3    H249794   4.021   0.914  12.110 -1.6660  2.0096  1.0729
 9435TIP3   OH249795   4.663   5.806  14.173  0.2342  0.4068 -0.4281
 9435TIP3    H149796   4.573   5.773  14.182  0.3667  0.6643  2.7360
 9435TIP3    H249797   4.652   5.897  14.144 -0.3619 -0.2688 -2.5011
 9436TIP3   OH249798   2.559   1.375   0.420 -0.3202  0.3135 -0.1562
 9436TIP3    H149799   2.515   1.322   0.353 -0.2422  2.6598 -2.1851
 9436TIP3    H249800   2.652   1.354   0.411 -0.3352  0.4489 -0.6376
 9437TIP3   OH249801   0.513   5.307  12.096 -0.4851 -0.1700  0.1678
 9437TIP3    H149802   0.436   5.285  12.148 -0.5007 -1.7531 -0.4678
 9437TIP3    H249803   0.484   5.298  12.006  0.6524 -1.7866 -0.0895
 9438TIP3   OH249804   0.094   2.532  15.710 -0.7995 -0.1754 -0.2499
 9438TIP3    H149805   0.076   2.461  15.771  0.1639  0.9055  1.3724
 9438TIP3    H249806   0.012   2.582  15.707 -0.4254  0.5897  1.3556
 9439TIP3   OH249807   4.993   2.311   2.225 -0.0174 -0.4485 -0.0220
 9439TIP3    H149808   5.083   2.324   2.253 -0.0793 -2.9994  1.6158
 9439TIP3    H249809   4.989   2.352   2.138  2.7386 -0.4008 -0.2122
 9440TIP3   OH249810   3.290   4.133   2.482  0.0491  0.3054 -0.1581
 9440TIP3    H149811   3.213   4.112   2.534  1.5541 -2.0174  1.3308
 9440TIP3    H249812   3.338   4.198   2.534  1.5850 -2.0603  1.6190
 9441TIP3   OH249813   3.426   4.138  15.992 -0.1264 -0.2057 -0.7452
 9441TIP3    H149814   3.392   4.116  16.078  1.5418  1.6418  0.4852
 9441TIP3    H249815   3.508   4.089  15.985 -0.4680 -0.6826 -1.4754
 9442TIP3   OH249816   6.792   2.149  10.578 -0.2301 -0.0780 -0.0039
 9442TIP3    H149817   6.764   2.068  10.619  0.4778 -0.4711 -0.2775
 9442TIP3    H249818   6.866   2.179  10.631 -0.2985  0.2258 -0.0782
 9443TIP3   OH249819   6.183   0.261   4.594 -0.2093 -0.4748 -0.2559
 9443TIP3    H149820   6.267   0.214   4.589  0.9125  1.5119 -0.9909
 9443TIP3    H249821   6.156   0.272   4.503 -0.8037 -0.2996 -0.0599
 9444TIP3   OH249822   4.422   1.522   1.834 -0.5444  0.0371 -0.1506
 9444TIP3    H149823   4.422   1.545   1.741 -1.5148  1.3789  0.1577
 9444TIP3    H249824   4.345   1.565   1.870  1.0920  1.6107  1.7610
 9445TIP3   OH249825   2.275   6.073   6.313 -0.3469  0.3844  0.3310
 9445TIP3    H149826   2.204   6.123   6.271 -0.8342 -0.3540  0.2584
 9445TIP3    H249827   2.354   6.097   6.265 -0.8640 -0.3129 -0.8939
 9446TIP3   OH249828   0.238   2.095  11.192  0.1018  0.9060  0.2842
 9446TIP3    H149829   0.251   2.169  11.252  0.1681  0.0558  1.3632
 9446TIP3    H249830   0.248   2.133  11.105 -0.5747  2.3077  0.7736
 9447TIP3   OH249831   1.685   4.432  14.259 -0.1472 -0.4316  0.0116
 9447TIP3    H149832   1.743   4.399  14.190 -0.2769 -2.0370  0.6190
 9447TIP3    H249833   1.688   4.527  14.249  1.3963 -0.5337 -0.9393
 9448TIP3   OH249834   2.179   1.476  12.368  0.2691 -0.4406  0.8235
 9448TIP3    H149835   2.179   1.384  12.395  0.0407  0.0127  2.4557
 9448TIP3    H249836   2.140   1.523  12.442 -1.5426  0.7508 -0.7991
 9449TIP3   OH249837   3.803   3.842   0.967  0.1677  0.3324  0.4634
 9449TIP3    H149838   3.765   3.915   1.015 -0.7174 -0.0702  0.3967
 9449TIP3    H249839   3.894   3.838   0.996  1.2202  3.4399 -1.8246
 9450TIP3   OH249840   5.517   4.344   0.448  0.2185 -0.6028 -0.2628
 9450TIP3    H149841   5.548   4.427   0.411 -0.8226 -1.5415 -3.5412
 9450TIP3    H249842   5.594   4.307   0.491  0.8341  1.7706  0.8662
 9451TIP3   OH249843   2.110   1.845   3.670 -0.4328  0.3308  0.2635
 9451TIP3    H149844   2.161   1.880   3.596  0.4694 -0.6420  0.4058
 9451TIP3    H249845   2.160   1.869   3.747 -0.5500 -0.0281  0.4524
 9452TIP3   OH249846   2.555   0.859   5.974  0.2197 -0.1530  0.6122
 9452TIP3    H149847   2.499   0.796   5.929 -0.3316  0.7044  0.0831
 9452TIP3    H249848   2.568   0.821   6.061 -0.7757 -0.6089  0.5779
 9453TIP3   OH249849   1.909   3.425   4.392  0.4006 -0.2419 -0.0545
 9453TIP3    H149850   1.920   3.503   4.447 -0.1325 -0.7342  0.7660
 9453TIP3    H249851   1.844   3.372   4.438 -0.8892 -0.1687 -1.7378
 9454TIP3   OH249852   5.241   3.734   3.882  0.0067 -0.3507 -0.0255
 9454TIP3    H149853   5.323   3.703   3.842  0.5804  1.1378 -0.0429
 9454TIP3    H249854   5.172   3.693   3.830  0.7410  0.3214 -1.5974
 9455TIP3   OH249855   6.498   3.584   2.167 -0.6045  0.0342  0.0845
 9455TIP3    H149856   6.418   3.621   2.202 -0.5013  1.9442 -1.5261
 9455TIP3    H249857   6.471   3.542   2.085  0.1442  1.5588 -0.9787
 9456TIP3   OH249858   4.209   5.173  14.897 -0.5262 -0.2292 -0.2142
 9456TIP3    H149859   4.295   5.178  14.937 -0.8369 -1.1871  0.6086
 9456TIP3    H249860   4.161   5.109  14.950 -1.8145  0.4447 -0.5294
 9457TIP3   OH249861   2.505   4.145  16.385  0.4785 -0.2522 -0.3004
 9457TIP3    H149862   2.508   4.124  16.478 -0.9495  0.6799 -0.0036
 9457TIP3    H249863   2.588   4.191  16.367  0.0391  1.0918  0.9339
 9458TIP3   OH249864   3.559   6.020   1.696  0.2717  0.1665  0.2332
 9458TIP3    H149865   3.587   6.033   1.786  2.1564 -0.2684 -0.2423
 9458TIP3    H249866   3.570   5.926   1.681 -1.3674 -0.0104 -0.0583
 9459TIP3   OH249867   5.078   2.608  11.766 -0.5350 -0.1170  0.0854
 9459TIP3    H149868   5.141   2.575  11.702 -1.0661 -0.9230 -0.0316
 9459TIP3    H249869   5.063   2.699  11.739 -0.1602 -0.2120 -0.4704
 9460TIP3   OH249870   0.426   4.651  11.420 -0.1336  0.3224  0.5082
 9460TIP3    H149871   0.472   4.719  11.470 -1.7287  1.2359  0.8144
 9460TIP3    H249872   0.420   4.577  11.481 -0.0723  0.5986  0.8529
 9461TIP3   OH249873   1.988   3.076  14.170  0.1094  0.1331 -0.1693
 9461TIP3    H149874   2.024   3.145  14.226  2.7243 -1.1604 -0.0987
 9461TIP3    H249875   1.994   3.112  14.081  0.4965  0.3931 -0.0429
 9462TIP3   OH249876   2.225   3.541   5.951 -0.3541 -0.9845 -0.1488
 9462TIP3    H149877   2.186   3.455   5.935 -1.0057 -0.8296  0.5563
 9462TIP3    H249878   2.198   3.563   6.040 -0.3936  0.0577 -0.4137
 9463TIP3   OH249879   0.244   3.765   1.357 -0.0132 -0.3996  0.1456
 9463TIP3    H149880   0.300   3.735   1.429 -1.2916 -0.9739  0.9315
 9463TIP3    H249881   0.263   3.859   1.350  0.5546 -0.4476  0.8363
 9464TIP3   OH249882   6.081   6.172  12.389  0.4579  0.5317  0.4499
 9464TIP3    H149883   6.170   6.137  12.398 -0.3048 -1.6177  0.2294
 9464TIP3    H249884   6.032   6.129  12.460 -0.7627  0.3537 -0.4743
 9465TIP3   OH249885   6.344   2.363  11.326  0.1055  0.1515  0.0573
 9465TIP3    H149886   6.358   2.402  11.412  1.9760 -1.4145  0.5137
 9465TIP3    H249887   6.411   2.402  11.270  2.1994 -2.3902  0.5881
 9466TIP3   OH249888   6.576   4.142  11.948 -0.3544  0.1462 -0.2189
 9466TIP3    H149889   6.574   4.221  12.001 -0.3067 -0.2442  0.3684
 9466TIP3    H249890   6.520   4.079  11.994 -0.6553 -0.0632 -0.8474
 9467TIP3   OH249891   4.877   3.456  16.762 -0.4904 -0.0139 -0.4917
 9467TIP3    H149892   4.809   3.412  16.813 -0.2106  0.0105 -0.0876
 9467TIP3    H249893   4.959   3.415  16.790 -0.4147 -0.7122 -1.6862
 9468TIP3   OH249894   3.093   0.514   3.136  0.5753 -0.3296  0.5600
 9468TIP3    H149895   3.137   0.577   3.192  0.9349 -0.6217  0.6131
 9468TIP3    H249896   3.145   0.512   3.056  0.6396 -0.6478  0.6068
 9469TIP3   OH249897   2.299   5.706  10.601  0.4368 -0.2092 -0.4299
 9469TIP3    H149898   2.321   5.620  10.637 -0.5898 -1.7221 -3.1301
 9469TIP3    H249899   2.236   5.688  10.532 -0.7049  2.8763 -0.3686
 9470TIP3   OH249900   0.703   3.284  15.344  0.4937  0.0399  0.4696
 9470TIP3    H149901   0.675   3.237  15.422  0.5019 -0.9071 -0.0858
 9470TIP3    H249902   0.651   3.247  15.273  2.0466 -0.7320 -0.3416
 9471TIP3   OH249903   0.675   3.725  15.059 -0.2085 -0.4365  0.1707
 9471TIP3    H149904   0.746   3.789  15.053  0.9246 -1.7357 -1.3203
 9471TIP3    H249905   0.712   3.652  15.109 -0.8785 -0.6872  0.3197
 9472TIP3   OH249906   6.788   5.591  15.925  0.7367  0.1440 -0.1845
 9472TIP3    H149907   6.874   5.631  15.939  0.6294  0.1687  0.4454
 9472TIP3    H249908   6.757   5.629  15.843  0.2970  1.9573  0.7839
 9473TIP3   OH249909   4.659   0.221  12.326 -0.3728  0.3065 -0.2533
 9473TIP3    H149910   4.599   0.292  12.346 -0.4980  0.7426 -2.0148
 9473TIP3    H249911   4.726   0.260  12.270  0.7857 -0.4802  0.5419
 9474TIP3   OH249912   5.526   3.925   4.823  0.4253 -0.7589  0.4242
 9474TIP3    H149913   5.486   3.866   4.887  2.7325 -0.5707  2.1619
 9474TIP3    H249914   5.525   3.876   4.741 -1.4267 -1.5334  0.8567
 9475TIP3   OH249915   5.820   2.964   0.830 -0.2655 -0.6235 -1.1753
 9475TIP3    H149916   5.734   2.971   0.788 -0.4525 -1.0258 -0.8540
 9475TIP3    H249917   5.882   2.974   0.758 -0.5481  1.0765 -1.2370
 9476TIP3   OH249918   5.975   4.380   5.363  0.3593  0.2527  0.1606
 9476TIP3    H149919   5.938   4.443   5.424 -0.9655 -1.5319  1.3103
 9476TIP3    H249920   6.008   4.309   5.419  1.0302 -0.4773 -1.1090
 9477TIP3   OH249921   0.507   2.834   3.479 -0.1213  0.2508  0.1285
 9477TIP3    H149922   0.566   2.886   3.425 -0.5944  0.3896 -0.2593
 9477TIP3    H249923   0.565   2.786   3.538  0.6382 -2.0156 -2.2666
 9478TIP3   OH249924   5.134   5.162   2.361 -0.1284 -0.5550  0.2113
 9478TIP3    H149925   5.124   5.207   2.277  1.5434  1.3989  0.9635
 9478TIP3    H249926   5.045   5.157   2.397 -0.4525  2.0831 -0.0199
 9479TIP3   OH249927   5.231   0.845  10.830  0.2063 -0.0511  0.5169
 9479TIP3    H149928   5.164   0.845  10.762  0.9725 -1.1346 -0.2936
 9479TIP3    H249929   5.236   0.753  10.858  1.2102  0.0414  0.6835
 9480TIP3   OH249930   5.966   4.462  14.171  0.3565  0.1536 -0.1290
 9480TIP3    H149931   6.022   4.400  14.219 -1.4946 -1.9732 -0.5528
 9480TIP3    H249932   5.987   4.447  14.079 -0.1590  0.0854 -0.2376
 9481TIP3   OH249933   6.692   4.033   3.269 -0.2897  0.5664 -0.2713
 9481TIP3    H149934   6.686   3.954   3.215  1.8470 -0.6764  1.1769
 9481TIP3    H249935   6.624   4.020   3.335 -0.8688  0.6200 -0.8454
 9482TIP3   OH249936   0.574   4.759   0.980 -0.0745  0.3024  0.4492
 9482TIP3    H149937   0.546   4.679   1.025  1.1204 -1.0360 -1.0917
 9482TIP3    H249938   0.626   4.806   1.045  1.8998 -1.7420  0.4747
 9483TIP3   OH249939   2.315   3.893  12.488 -0.1390  0.2865  0.3304
 9483TIP3    H149940   2.400   3.849  12.490  0.3311  1.1880  1.1757
 9483TIP3    H249941   2.268   3.853  12.415  0.1266 -1.8372  1.2684
 9484TIP3   OH249942   5.660   0.343   2.294 -0.0330 -0.3469  0.4137
 9484TIP3    H149943   5.629   0.327   2.383 -0.2327 -0.3062  0.3508
 9484TIP3    H249944   5.737   0.287   2.285  0.4800  0.2698  0.8973
 9485TIP3   OH249945   5.071   3.265   3.611 -0.7453  0.5994 -0.6025
 9485TIP3    H149946   5.088   3.279   3.704 -0.7856  2.1686 -0.8070
 9485TIP3    H249947   5.127   3.192   3.586 -1.0963 -0.1538  0.7586
 9486TIP3   OH249948   5.133   2.267  11.260 -0.1596  0.1126 -0.4269
 9486TIP3    H149949   5.150   2.320  11.182 -0.1298 -0.4434 -0.8072
 9486TIP3    H249950   5.216   2.225  11.280  0.5620  2.2257  1.4689
 9487TIP3   OH249951   3.202   0.383   0.234  0.1920 -0.1058 -0.4595
 9487TIP3    H149952   3.271   0.320   0.253 -2.2390 -2.5753  1.0469
 9487TIP3    H249953   3.220   0.457   0.291  2.0223 -0.2947 -0.7503
 9488TIP3   OH249954   6.124   1.319  13.269 -0.1573  0.0472 -0.6695
 9488TIP3    H149955   6.085   1.314  13.183  1.5237 -0.6193 -1.4467
 9488TIP3    H249956   6.216   1.296  13.255  0.0563 -0.5439  1.3659
 9489TIP3   OH249957   0.136   6.288   0.160  0.5685 -0.3086 -0.8067
 9489TIP3    H149958   0.067   6.223   0.150  2.7287 -2.4578 -3.0471
 9489TIP3    H249959   0.162   6.281   0.252 -1.3758 -0.2427 -0.2079
 9490TIP3   OH249960   4.978   4.456  15.049  0.1164 -0.5234  0.3898
 9490TIP3    H149961   4.974   4.547  15.078 -2.3654 -0.6976  0.7732
 9490TIP3    H249962   5.042   4.456  14.978 -1.6366  2.0731 -1.3440
 9491TIP3   OH249963   2.672   0.545   0.882  0.2858  0.3670 -0.2581
 9491TIP3    H149964   2.680   0.533   0.787  1.3378 -0.9088 -0.0278
 9491TIP3    H249965   2.703   0.463   0.920 -0.7335  0.6026  1.1904
 9492TIP3   OH249966   1.439   0.425   5.283  0.0414  0.3413  0.3849
 9492TIP3    H149967   1.426   0.467   5.368 -1.8124  1.5420 -0.4206
 9492TIP3    H249968   1.352   0.428   5.241  1.0177  0.3095 -1.7758
 9493TIP3   OH249969   2.699   4.315   3.893 -0.8695 -0.1353  0.2293
 9493TIP3    H149970   2.723   4.280   3.807 -1.0381  1.8668 -0.6876
 9493TIP3    H249971   2.777   4.302   3.947  0.0906  0.6883 -0.9256
 9494TIP3   OH249972   5.324   2.676   5.412 -0.1922  0.2997 -0.2620
 9494TIP3    H149973   5.241   2.724   5.414  0.7444  1.9871  0.4830
 9494TIP3    H249974   5.365   2.703   5.330 -0.2335 -0.2907 -0.4796
 9495TIP3   OH249975   1.045   1.465  12.081  0.1957  0.6190  0.2716
 9495TIP3    H149976   1.061   1.547  12.034  0.2424  0.2311 -0.4005
 9495TIP3    H249977   1.113   1.462  12.148  0.0867  1.2148  0.4127
 9496TIP3   OH249978   5.130   2.239  13.289  0.1961 -0.2255  0.2238
 9496TIP3    H149979   5.042   2.216  13.320  0.8424 -0.1186  2.2950
 9496TIP3    H249980   5.115   2.313  13.230 -1.0509  0.4681  1.3322
 9497TIP3   OH249981   4.521   3.916  13.760 -0.0936 -0.6840 -0.4828
 9497TIP3    H149982   4.553   3.854  13.695  0.0239 -2.7241  1.3985
 9497TIP3    H249983   4.599   3.944  13.808 -0.3312 -0.3789 -0.2675
 9498TIP3   OH249984   4.687   4.772   1.666 -0.1598 -0.3296  0.7220
 9498TIP3    H149985   4.741   4.700   1.699 -0.0960 -0.5340  0.1765
 9498TIP3    H249986   4.747   4.827   1.616 -0.1812  0.1771  1.2417
 9499TIP3   OH249987   1.344   4.653  13.842  0.0255  0.4051 -0.6922
 9499TIP3    H149988   1.378   4.718  13.781  1.0919 -0.3477 -0.9296
 9499TIP3    H249989   1.344   4.571  13.792  0.9898 -0.2411  0.3077
 9500TIP3   OH249990   2.020   3.598  11.377  0.0878  0.1182 -0.3617
 9500TIP3    H149991   1.999   3.555  11.294  3.2523 -0.6442 -0.8808
 9500TIP3    H249992   2.020   3.527  11.442 -3.0383  0.8021  0.5798
 9501TIP3   OH249993   3.919   1.074  10.805  0.2239  0.9870 -0.8473
 9501TIP3    H149994   3.896   0.989  10.768  4.0728  0.4612 -2.5137
 9501TIP3    H249995   3.860   1.085  10.880 -0.3928 -3.1515 -0.5144
 9502TIP3   OH249996   4.776   1.752  12.791  0.1888  0.1615 -0.2347
 9502TIP3    H149997   4.766   1.782  12.881 -0.8277 -1.6336  0.2924
 9502TIP3    H249998   4.868   1.725  12.786  0.1115 -0.2476  0.4340
 9503TIP3   OH249999   4.758   1.492  16.341 -0.1938 -0.1689 -0.2099
 9503TIP3    H150000   4.839   1.476  16.291 -0.0995 -3.5003  0.7379
 9503TIP3    H250001   4.694   1.433  16.301 -0.8717 -0.8639  1.7580
 9504TIP3   OH250002   0.972   3.331   5.565  0.2627  0.3223  0.1546
 9504TIP3    H150003   0.939   3.286   5.643 -0.9923  1.2201  0.1735
 9504TIP3    H250004   1.015   3.262   5.514  1.1590 -0.2656  1.6425
 9505TIP3   OH250005   5.634   5.554  14.642 -0.5262 -0.0848 -0.6010
 9505TIP3    H150006   5.643   5.560  14.547  1.0400  0.1534 -0.4748
 9505TIP3    H250007   5.641   5.645  14.672 -1.9834 -0.0519 -0.3061
 9506TIP3   OH250008   0.499   1.360  12.083 -0.3410 -0.4775  0.3257
 9506TIP3    H150009   0.501   1.279  12.033 -0.5734 -0.4676  0.2988
 9506TIP3    H250010   0.584   1.363  12.127 -0.5390 -1.0113  0.7619
 9507TIP3   OH250011   0.026   1.337  11.626  0.2593 -0.0530  0.5432
 9507TIP3    H150012   0.041   1.417  11.575  0.4767  1.3155  2.6199
 9507TIP3    H250013   0.096   1.278  11.601 -1.5069 -0.8401 -3.2009
 9508TIP3   OH250014   0.627   1.858  15.900  0.1543  0.1894  0.2087
 9508TIP3    H150015   0.578   1.933  15.866 -0.9443  0.1913  1.6814
 9508TIP3    H250016   0.718   1.885  15.896 -0.1003  0.9437 -0.8460
 9509TIP3   OH250017   2.462   6.173   3.258  0.0552 -1.0661  0.2932
 9509TIP3    H150018   2.428   6.134   3.338 -1.2965 -0.3644  0.0807
 9509TIP3    H250019   2.386   6.183   3.200  0.6396  0.2692 -0.3104
 9510TIP3   OH250020   0.692   5.123  14.142 -0.1899 -0.3931  0.2300
 9510TIP3    H150021   0.779   5.085  14.129 -1.3293 -2.5245 -2.1587
 9510TIP3    H250022   0.635   5.048  14.157 -1.9375  0.7266 -0.4336
 9511TIP3   OH250023   1.376   0.551   4.858  0.0997 -0.2212  0.1278
 9511TIP3    H150024   1.318   0.535   4.932 -0.4714  0.0763 -0.2479
 9511TIP3    H250025   1.355   0.640   4.829 -0.9765 -0.9720 -1.5172
 9512TIP3   OH250026   5.374   5.500  16.519  0.0269  0.5738 -0.1090
 9512TIP3    H150027   5.400   5.441  16.589 -2.2640 -0.0537  0.2909
 9512TIP3    H250028   5.385   5.588  16.556 -0.6619  0.2600  0.8590
 9513TIP3   OH250029   0.004   1.807   2.135  0.0060 -0.2447 -0.2968
 9513TIP3    H150030  -0.081   1.834   2.102  0.1173 -0.1325 -0.4944
 9513TIP3    H250031  -0.013   1.725   2.181 -0.3130  0.1006  0.2061
 9514TIP3   OH250032   5.028   3.500   3.181 -0.0852  0.7487  0.4925
 9514TIP3    H150033   5.105   3.461   3.222 -0.8576 -0.5119  0.7944
 9514TIP3    H250034   5.051   3.593   3.171  2.2146  0.0954 -1.1740
 9515TIP3   OH250035   1.370   0.997  12.323  0.0219 -0.2181 -0.1951
 9515TIP3    H150036   1.314   1.057  12.275  0.5591  0.1813 -0.3324
 9515TIP3    H250037   1.458   1.013  12.289  0.1824 -1.0415 -0.1916
 9516TIP3   OH250038   3.363   3.172  15.622  0.3991  0.2808 -0.0015
 9516TIP3    H150039   3.276   3.165  15.581  0.2618  0.8598  0.1771
 9516TIP3    H250040   3.423   3.184  15.549  0.3851 -0.5776 -0.1590
 9517TIP3   OH250041   4.658   5.351  11.513 -0.3936  0.6239 -0.4417
 9517TIP3    H150042   4.644   5.259  11.491 -0.8182  0.4433  0.5201
 9517TIP3    H250043   4.577   5.377  11.558 -0.4413  1.5797 -1.0550
 9518TIP3   OH250044   4.934   4.046  14.172  0.1068 -0.4575  0.3747
 9518TIP3    H150045   5.007   4.083  14.221  1.4529 -1.3557 -0.8610
 9518TIP3    H250046   4.910   4.115  14.109 -0.3259 -0.0541  0.9670
 9519TIP3   OH250047   2.134   0.500   0.924  0.3949 -0.2164  0.5574
 9519TIP3    H150048   2.110   0.460   0.841  0.1635  0.4379  0.2976
 9519TIP3    H250049   2.190   0.436   0.967 -0.0846 -0.8741  0.2243
 9520TIP3   OH250050   6.488   2.494   2.253 -0.4033  0.0588 -0.2464
 9520TIP3    H150051   6.403   2.464   2.285  0.2433 -2.0008 -0.2835
 9520TIP3    H250052   6.529   2.415   2.217  0.3811  1.5662 -2.8833
 9521TIP3   OH250053   0.791   1.063   4.414 -0.1244 -0.4318  0.3773
 9521TIP3    H150054   0.845   1.038   4.490  1.3161  1.4978  0.0543
 9521TIP3    H250055   0.716   1.108   4.452  0.5901  0.5286  0.6709
 9522TIP3   OH250056   4.490   6.349  12.603 -0.2745  0.1988  0.7543
 9522TIP3    H150057   4.544   6.284  12.558  0.4185  0.5984  1.0084
 9522TIP3    H250058   4.548   6.389  12.668 -0.1464  2.3272 -0.5779
 9523TIP3   OH250059   0.372   1.566   1.606 -0.3645 -0.0732 -0.5019
 9523TIP3    H150060   0.317   1.492   1.581 -1.3007  0.4848 -0.1180
 9523TIP3    H250061   0.324   1.643   1.577 -0.7266  0.5157  1.5126
 9524TIP3   OH250062   2.215   6.428   5.010 -0.1864  0.3129  0.1421
 9524TIP3    H150063   2.235   6.348   5.059 -1.1922  0.1906  0.3713
 9524TIP3    H250064   2.140   6.405   4.955  1.0691  0.3647 -1.6873
 9525TIP3   OH250065   5.778   3.959   2.526  0.3383  0.1991  0.7064
 9525TIP3    H150066   5.777   3.887   2.589  0.1493  0.6312  1.2073
 9525TIP3    H250067   5.756   3.918   2.442 -1.0079 -0.1449  1.1936
 9526TIP3   OH250068   5.148   0.695  16.121 -0.1860 -0.7430  0.3717
 9526TIP3    H150069   5.231   0.711  16.165 -0.4251  1.1838  0.2061
 9526TIP3    H250070   5.163   0.615  16.070  1.4938 -0.5386  0.5014
 9527TIP3   OH250071   1.035   2.862  14.364 -0.5278 -0.3640 -0.2101
 9527TIP3    H150072   1.084   2.804  14.306  1.2127 -0.5378  1.3411
 9527TIP3    H250073   1.041   2.948  14.323  2.4132 -0.0818  0.5925
 9528TIP3   OH250074   1.119   6.054  15.536  0.1607 -0.1301  0.2217
 9528TIP3    H150075   1.084   6.136  15.501 -1.5291 -1.7384 -2.2583
 9528TIP3    H250076   1.212   6.055  15.513  0.5893  1.7641  1.7844
 9529TIP3   OH250077   6.284   1.339  12.755  0.0674  0.2254  0.3003
 9529TIP3    H150078   6.271   1.252  12.792  1.4620 -1.1011 -2.1162
 9529TIP3    H250079   6.202   1.358  12.709  0.2016 -0.3538 -0.1825
 9530TIP3   OH250080   5.313   2.800   5.850  0.0350 -0.2862 -0.0936
 9530TIP3    H150081   5.288   2.890   5.869 -2.4249 -0.9602  0.2791
 9530TIP3    H250082   5.331   2.799   5.756 -1.4682  0.3323 -0.4306
 9531TIP3   OH250083   4.646   2.527  13.296  0.1495  0.2216 -0.5271
 9531TIP3    H150084   4.602   2.579  13.363  2.1139  2.8219 -1.1078
 9531TIP3    H250085   4.677   2.450  13.343  1.7594  2.1072  1.7460
 9532TIP3   OH250086   5.792   0.016   4.373  0.2228  0.3283  0.4528
 9532TIP3    H150087   5.783   0.032   4.467 -0.2665  4.5977 -0.1260
 9532TIP3    H250088   5.704   0.030   4.338  0.2136 -2.0365 -0.6752
 9533TIP3   OH250089   4.759   5.806   4.614 -0.6374  0.3170 -0.6445
 9533TIP3    H150090   4.738   5.791   4.706 -0.4459  0.0569 -0.6401
 9533TIP3    H250091   4.789   5.897   4.611 -1.3162  0.5461 -0.5771
 9534TIP3   OH250092   1.431   6.249  13.884 -0.4442  0.0733 -0.0635
 9534TIP3    H150093   1.375   6.321  13.916  0.2729  0.6480 -0.0763
 9534TIP3    H250094   1.377   6.204  13.819 -0.7683  0.8336 -0.3292
 9535TIP3   OH250095   2.607   6.798   0.461 -0.2420 -0.2785  0.2441
 9535TIP3    H150096   2.697   6.772   0.444 -0.2727 -0.0364 -0.2999
 9535TIP3    H250097   2.557   6.762   0.387 -0.4937  0.1404  0.2071
 9536TIP3   OH250098   4.059   0.481  16.066  0.1023  0.1910  0.0215
 9536TIP3    H150099   4.011   0.407  16.103  0.5623  0.4932  1.2692
 9536TIP3    H250100   3.993   0.528  16.015 -0.8235  0.2800  1.2342
 9537TIP3   OH250101   1.450   0.267  15.814 -0.3660 -0.2242  0.3845
 9537TIP3    H150102   1.409   0.224  15.739 -2.0260 -0.4182  1.3533
 9537TIP3    H250103   1.527   0.311  15.778 -0.3576 -1.4438 -1.1711
 9538TIP3   OH250104   3.441   0.393   2.705 -0.1720  0.1778  0.6621
 9538TIP3    H150105   3.419   0.380   2.797 -0.2360 -1.2072  0.4722
 9538TIP3    H250106   3.471   0.483   2.700 -1.9085  0.8725  1.6962
 9539TIP3   OH250107   5.054   4.059  11.461 -0.0233 -0.4335 -0.0123
 9539TIP3    H150108   5.037   3.998  11.533 -0.2221 -0.8255 -0.3865
 9539TIP3    H250109   5.099   4.133  11.503  0.5162 -0.9748  0.3986
 9540TIP3   OH250110   4.272   3.972   0.590 -0.3080 -0.6678 -0.6160
 9540TIP3    H150111   4.186   3.930   0.600 -0.7127  0.3782  0.4948
 9540TIP3    H250112   4.264   4.055   0.637  1.1108 -0.2486 -1.0673
 9541TIP3   OH250113   0.309   2.716  13.709  0.0367  0.0294  0.1240
 9541TIP3    H150114   0.331   2.664  13.632  1.8030  0.9920 -0.0711
 9541TIP3    H250115   0.387   2.711  13.765  0.0872  2.0342  0.3072
 9542TIP3   OH250116   5.545   5.539   1.912  0.4163  0.5662  0.2661
 9542TIP3    H150117   5.490   5.520   1.837 -1.7264  1.6407  1.4565
 9542TIP3    H250118   5.533   5.464   1.970 -0.4908  1.1461  0.8641
 9543TIP3   OH250119   2.461   5.650  13.447 -0.1248  0.4177  0.0812
 9543TIP3    H150120   2.455   5.683  13.537 -0.0387  1.0426 -0.1400
 9543TIP3    H250121   2.409   5.712  13.396 -0.2421  0.0161 -0.2899
 9544TIP3   OH250122   2.041   0.119  11.913 -0.5656 -0.3742 -0.6130
 9544TIP3    H150123   2.054   0.062  11.989  1.0223  1.1319  0.3247
 9544TIP3    H250124   2.120   0.172  11.910 -1.2774  0.6485 -2.4355
 9545TIP3   OH250125   3.676   2.465  10.636 -0.2451 -0.9324  0.1756
 9545TIP3    H150126   3.761   2.496  10.605 -1.8018  2.1834 -1.5481
 9545TIP3    H250127   3.641   2.414  10.563 -1.2263  0.8442 -0.6673
 9546TIP3   OH250128   5.915   2.127   3.894  0.0259  0.6754 -0.0797
 9546TIP3    H150129   6.000   2.089   3.918  0.8058  1.9487 -0.7145
 9546TIP3    H250130   5.913   2.211   3.940 -0.1749  1.3870 -1.3630
 9547TIP3   OH250131   5.404   4.446  12.598 -0.3290 -0.1045 -0.0507
 9547TIP3    H150132   5.416   4.451  12.503  1.5521 -1.0350  0.0903
 9547TIP3    H250133   5.479   4.397  12.629 -1.7311 -1.2416  1.7743
 9548TIP3   OH250134   2.929   5.304  11.859  0.4808  0.1146 -0.4917
 9548TIP3    H150135   3.024   5.301  11.855  0.4846  0.4503 -0.6297
 9548TIP3    H250136   2.904   5.367  11.792  0.2461  1.3998  0.7725
 9549TIP3   OH250137   6.755   0.017   4.722  0.3882 -0.1763  0.2271
 9549TIP3    H150138   6.806  -0.059   4.752 -0.5309 -0.7251  0.4117
 9549TIP3    H250139   6.677   0.018   4.777  0.2149  0.7002 -0.0163
 9550TIP3   OH250140   3.055   0.613  14.529 -0.2639 -0.2244 -0.4124
 9550TIP3    H150141   3.113   0.650  14.462  1.4325 -0.7613  0.6980
 9550TIP3    H250142   2.993   0.684  14.548  1.7037  1.4062  0.2688
 9551TIP3   OH250143   6.122   1.840   5.144 -0.4872 -0.0419  0.3025
 9551TIP3    H150144   6.030   1.865   5.147 -0.2182  0.9060  1.7477
 9551TIP3    H250145   6.156   1.879   5.064 -1.3540 -0.4697 -0.2823
 9552TIP3   OH250146   1.534   0.890  14.457  0.8057  0.1503 -0.0227
 9552TIP3    H150147   1.509   0.803  14.424  0.3958  0.4658 -0.5684
 9552TIP3    H250148   1.627   0.882  14.479 -0.1147 -1.6108  3.8760
 9553TIP3   OH250149   3.110   2.931  16.748 -0.0068 -0.3770 -0.1071
 9553TIP3    H150150   3.194   2.975  16.731  0.3404 -0.2664  1.6630
 9553TIP3    H250151   3.046   3.002  16.749  0.2498 -0.1364  0.7635
 9554TIP3   OH250152   2.949   4.438  13.150  0.4052 -0.5932  0.4468
 9554TIP3    H150153   2.949   4.382  13.072  0.4180  1.3372 -0.9961
 9554TIP3    H250154   2.987   4.521  13.121 -2.5001  1.3222  1.6352
 9555TIP3   OH250155   2.494   6.497   4.654  0.0573 -0.1893 -0.2547
 9555TIP3    H150156   2.510   6.403   4.663  2.6816 -0.1592 -2.9085
 9555TIP3    H250157   2.445   6.505   4.572 -0.7366  0.7528  0.2909
 9556TIP3   OH250158   6.346   5.244   5.225  0.4523  0.1073  0.2131
 9556TIP3    H150159   6.363   5.308   5.157  2.1638  0.0723  0.5670
 9556TIP3    H250160   6.282   5.184   5.186  2.6609 -0.9571 -2.0893
 9557TIP3   OH250161   2.281   4.181  13.720 -0.1148  0.2292 -0.2398
 9557TIP3    H150162   2.285   4.222  13.634  1.0037 -1.1146 -0.8641
 9557TIP3    H250163   2.188   4.183  13.743 -0.5765 -0.2537 -1.9329
 9558TIP3   OH250164   6.243   4.572   3.078  0.1839  0.3095  0.2046
 9558TIP3    H150165   6.210   4.484   3.063 -2.2357  1.2768 -0.6829
 9558TIP3    H250166   6.254   4.609   2.990  0.4295  1.1396  0.5676
 9559TIP3   OH250167   5.298   3.864  12.959 -0.3062  0.2344 -0.0539
 9559TIP3    H150168   5.231   3.925  12.929  0.7384  1.0563 -0.7946
 9559TIP3    H250169   5.375   3.886  12.907  0.9738  0.3040  1.7872
 9560TIP3   OH250170   5.298   1.817  15.700  0.2536  0.1441 -0.0461
 9560TIP3    H150171   5.219   1.838  15.749 -1.0951 -0.5181 -1.8065
 9560TIP3    H250172   5.364   1.879  15.732 -1.2853  1.4682  0.6884
 9561TIP3   OH250173   4.662   4.748   6.637  0.6841  0.0527 -0.3753
 9561TIP3    H150174   4.634   4.793   6.557  0.4442  0.0949 -0.2704
 9561TIP3    H250175   4.627   4.803   6.708 -0.8467 -1.0335 -0.2353
 9562TIP3   OH250176   2.320   3.310   1.008  0.8108 -0.6569  0.0508
 9562TIP3    H150177   2.363   3.263   1.079  0.1265 -2.3330 -0.5967
 9562TIP3    H250178   2.319   3.248   0.935 -2.2081 -0.5097 -0.1284
 9563TIP3   OH250179   1.755   1.026   5.613  0.4663 -0.3673  0.1890
 9563TIP3    H150180   1.753   1.066   5.526 -2.5825  0.8570  0.7100
 9563TIP3    H250181   1.761   1.099   5.674 -1.5486 -0.8726  1.0681
 9564TIP3   OH250182   5.750   1.334   6.048  0.1567 -0.1857 -0.2966
 9564TIP3    H150183   5.668   1.286   6.053 -0.6876  1.2391  0.3254
 9564TIP3    H250184   5.817   1.267   6.031 -1.3050 -1.1982 -2.5252
 9565TIP3   OH250185   5.994   1.389  14.822  0.2854 -0.0199 -0.2269
 9565TIP3    H150186   6.018   1.344  14.904  1.5541  3.1788  1.3137
 9565TIP3    H250187   6.062   1.362  14.760  1.1380 -0.0981  0.7027
 9566TIP3   OH250188   3.302   2.676  16.537 -0.0510 -0.0370  0.0127
 9566TIP3    H150189   3.331   2.610  16.600 -1.7979  0.0956  1.0210
 9566TIP3    H250190   3.208   2.686  16.554 -0.0748  1.7957 -0.9662
 9567TIP3   OH250191   4.040   1.619  10.572 -0.4489 -0.8239  0.0968
 9567TIP3    H150192   4.081   1.634  10.658  1.2585 -3.0806 -0.2319
 9567TIP3    H250193   4.094   1.551  10.531 -1.7707 -0.4882 -2.4117
 9568TIP3   OH250194   5.187   3.125  14.433 -0.1781  0.0054 -0.2771
 9568TIP3    H150195   5.231   3.055  14.481  0.4782 -1.6732 -3.0901
 9568TIP3    H250196   5.215   3.206  14.477  1.0366 -1.3396  1.5634
 9569TIP3   OH250197   0.460   4.380   3.528  0.2230 -0.9598 -0.2634
 9569TIP3    H150198   0.472   4.310   3.463  2.5270 -0.2336 -0.6855
 9569TIP3    H250199   0.546   4.389   3.569  1.0202  3.7200 -2.3886
 9570TIP3   OH250200   5.783   4.458   2.367 -0.4598 -0.6096 -0.2475
 9570TIP3    H150201   5.742   4.386   2.415  0.5201 -1.8611 -1.2063
 9570TIP3    H250202   5.875   4.457   2.397 -0.4213  0.2114 -0.3219
 9571TIP3   OH250203   5.362   6.432  15.233 -0.2735 -0.4635  0.1147
 9571TIP3    H150204   5.446   6.471  15.213 -0.1093 -0.0811  1.4316
 9571TIP3    H250205   5.297   6.498  15.209 -0.2532 -0.9268 -1.3117
 9572TIP3   OH250206   0.122   6.729  14.312  0.6327  0.2689  0.2830
 9572TIP3    H150207   0.143   6.669  14.385 -0.2643  1.0516  1.2114
 9572TIP3    H250208   0.175   6.807  14.330  2.2460 -0.3947 -1.2387
 9573TIP3   OH250209   3.843   4.919  13.415 -0.1014 -0.3902 -0.5233
 9573TIP3    H150210   3.770   4.870  13.454  0.0466 -2.3025 -2.4316
 9573TIP3    H250211   3.921   4.874  13.445  0.2001  0.2774 -0.2852
 9574TIP3   OH250212   4.265   0.959   4.847  0.5516 -0.2447  0.2084
 9574TIP3    H150213   4.210   0.882   4.860  0.6663 -0.7072 -1.6944
 9574TIP3    H250214   4.339   0.947   4.907 -0.3044 -0.7100  1.2024
 9575TIP3   OH250215   3.863   3.382  12.722 -0.0459 -0.1538 -0.4816
 9575TIP3    H150216   3.847   3.401  12.630  1.0743  1.9663 -0.2952
 9575TIP3    H250217   3.776   3.380  12.762 -0.4533  0.2641 -1.3358
 9576TIP3   OH250218   2.676   6.591  12.349  0.2326  0.1316  0.0527
 9576TIP3    H150219   2.768   6.576  12.370 -0.3293  0.0583  2.8314
 9576TIP3    H250220   2.649   6.512  12.302  1.5891  0.2572 -1.0141
 9577TIP3   OH250221   5.992   4.119  11.517  0.0421  0.1770  0.4953
 9577TIP3    H150222   6.053   4.053  11.483 -1.1710 -0.6013 -0.2526
 9577TIP3    H250223   6.017   4.199  11.472 -0.6045 -0.5285 -1.2244
 9578TIP3   OH250224   4.661   5.393   1.544  0.6469 -0.0262 -0.6407
 9578TIP3    H150225   4.727   5.329   1.518  0.4096  0.5095 -2.7712
 9578TIP3    H250226   4.577   5.350   1.527  0.4465 -0.0222  0.2649
 9579TIP3   OH250227   0.185   4.762   1.852  0.2241 -0.1478 -0.0112
 9579TIP3    H150228   0.107   4.743   1.904  0.8387 -0.7461  0.7285
 9579TIP3    H250229   0.247   4.799   1.915  0.9180 -0.7141 -0.3425
 9580TIP3   OH250230   3.212   1.979  14.611  0.1999  0.5936  0.1990
 9580TIP3    H150231   3.271   1.942  14.546 -2.2459  0.8830 -2.3469
 9580TIP3    H250232   3.176   1.903  14.657  2.4673  0.4157  1.8651
 9581TIP3   OH250233   2.997   5.733  11.604 -0.6213  0.0238  0.8641
 9581TIP3    H150234   3.081   5.695  11.578 -0.0543  1.2563  0.8441
 9581TIP3    H250235   2.936   5.704  11.536 -0.3551 -1.3321  1.1699
 9582TIP3   OH250236   2.850   2.885  10.217  0.3267 -0.2209 -0.2692
 9582TIP3    H150237   2.915   2.905  10.284 -0.3391 -1.2929  0.7294
 9582TIP3    H250238   2.871   2.796  10.189  1.1990  0.5443 -2.2389
 9583TIP3   OH250239   3.834   5.189   3.973 -0.2349  0.2447 -0.3564
 9583TIP3    H150240   3.908   5.233   3.931 -0.8153  2.5440  0.8764
 9583TIP3    H250241   3.780   5.159   3.900 -0.1903  2.3225 -1.3159
 9584TIP3   OH250242   6.554   0.817   2.217 -0.3882  0.7003 -0.0754
 9584TIP3    H150243   6.557   0.899   2.168 -1.7463  1.2366  0.6837
 9584TIP3    H250244   6.475   0.824   2.271  0.7999 -0.0353  1.8760
 9585TIP3   OH250245   5.796   4.254   0.955 -0.6492  0.1297 -0.1880
 9585TIP3    H150246   5.747   4.254   0.873 -0.3600  0.4089 -0.3662
 9585TIP3    H250247   5.734   4.285   1.020 -0.7781  0.2538 -0.3699
 9586TIP3   OH250248   3.028   2.884  10.440  0.5283  0.3615  0.3733
 9586TIP3    H150249   3.057   2.794  10.455 -0.3870  0.0745  0.4600
 9586TIP3    H250250   3.109   2.932  10.424  1.0865 -0.3507  0.9546
 9587TIP3   OH250251   1.968   3.764  15.591  0.4836  0.1649 -0.1725
 9587TIP3    H150252   1.950   3.781  15.499 -0.0435 -0.2024 -0.1408
 9587TIP3    H250253   2.054   3.722  15.591  0.2014 -0.4267 -0.5582
 9588TIP3   OH250254   5.908   3.981  10.261  0.1082  0.2285  0.2726
 9588TIP3    H150255   5.857   4.061  10.268  1.7307  1.9571 -4.1968
 9588TIP3    H250256   5.999   4.010  10.269  0.6985 -1.3950 -0.2130
 9589TIP3   OH250257   6.078   6.488   1.763  0.2399  0.2314  0.0966
 9589TIP3    H150258   6.102   6.461   1.852 -0.0704 -0.5814 -0.0646
 9589TIP3    H250259   6.026   6.416   1.729 -0.2312  0.8465 -0.5026
 9590TIP3   OH250260   6.539   0.688  10.275 -0.3077 -0.1217 -0.2660
 9590TIP3    H150261   6.603   0.619  10.259 -0.3942 -0.0420 -1.0023
 9590TIP3    H250262   6.591   0.769  10.275 -0.3598 -0.0859 -0.5552
 9591TIP3   OH250263   4.669   6.829   4.621  0.3143 -0.1930 -0.2319
 9591TIP3    H150264   4.743   6.887   4.607 -0.1692  0.1159 -1.6895
 9591TIP3    H250265   4.601   6.885   4.659  0.4964 -0.2525  0.1827
 9592TIP3   OH250266   0.405   0.014  16.860 -0.4829  0.2160  0.7865
 9592TIP3    H150267   0.365   0.100  16.846 -2.1276 -0.2261  2.4653
 9592TIP3    H250268   0.458   0.025  16.939  0.8794  0.1527 -0.0772
 9593TIP3   OH250269   3.031   0.720   4.201 -0.3347  1.0672  0.2230
 9593TIP3    H150270   3.016   0.728   4.107 -0.3755 -1.0120  0.0228
 9593TIP3    H250271   2.948   0.745   4.241 -0.8196  0.4299 -0.3675
 9594TIP3   OH250272   4.649   5.105   2.803  0.2417 -0.4078 -0.2429
 9594TIP3    H150273   4.723   5.150   2.845  0.4027 -1.2109  0.3646
 9594TIP3    H250274   4.634   5.154   2.722  1.8619 -0.5895 -0.6931
 9595TIP3   OH250275   1.941   3.774  14.900 -0.2445 -0.4472 -0.6942
 9595TIP3    H150276   1.869   3.770  14.963 -0.3502 -1.0881 -0.8502
 9595TIP3    H250277   2.001   3.840  14.936 -0.9938  0.2258 -0.6565
 9596TIP3   OH250278   4.533   2.793   2.185 -0.0080 -0.1704 -0.2609
 9596TIP3    H150279   4.554   2.821   2.096 -0.4129 -0.9551 -0.6186
 9596TIP3    H250280   4.618   2.786   2.229  0.1576  0.7098 -0.4264
 9597TIP3   OH250281   4.314   0.934  14.325 -0.0633  0.4352 -0.0229
 9597TIP3    H150282   4.266   1.017  14.327 -1.5487 -0.3439 -1.2357
 9597TIP3    H250283   4.326   0.916  14.232 -2.0299 -1.9172  0.0972
 9598TIP3   OH250284   2.150   3.214   2.181 -0.2013  0.0562  0.1393
 9598TIP3    H150285   2.122   3.192   2.270  0.1586 -2.2351 -0.2432
 9598TIP3    H250286   2.068   3.230   2.134 -0.4660  0.0097  0.5781
 9599TIP3   OH250287   0.938   1.934   2.421  0.3677  0.6500  0.2014
 9599TIP3    H150288   0.927   1.993   2.495  0.7265  1.9255 -0.7298
 9599TIP3    H250289   0.885   1.972   2.351 -1.5918 -1.5878  0.3330
 9600TIP3   OH250290   1.913   4.738  14.150  0.5855  0.1316  0.1496
 9600TIP3    H150291   1.954   4.821  14.175 -1.0472  0.7646  0.8533
 9600TIP3    H250292   1.986   4.685  14.117  1.9969  1.1338  1.4776
 9601TIP3   OH250293   2.419   3.714   3.589 -0.0452  0.3036  0.3665
 9601TIP3    H150294   2.349   3.745   3.532  1.8010  1.6748 -1.2724
 9601TIP3    H250295   2.484   3.785   3.590  1.0438 -0.6214  2.3670
 9602TIP3   OH250296   5.674   4.111   6.436  0.4632  0.2502 -0.3303
 9602TIP3    H150297   5.758   4.151   6.411  0.9003 -0.2310  0.3530
 9602TIP3    H250298   5.632   4.090   6.353  1.8223 -1.1745 -0.6861
 9603TIP3   OH250299   3.344   3.671   4.064 -0.2843 -0.3391 -0.3082
 9603TIP3    H150300   3.286   3.733   4.019  0.2882  0.9557  0.6799
 9603TIP3    H250301   3.285   3.622   4.122 -0.4853  0.6482  0.3481
 9604TIP3   OH250302   0.105   4.649  11.597  1.0570 -0.6705 -0.0747
 9604TIP3    H150303   0.155   4.586  11.648  0.7708 -0.4641  0.4675
 9604TIP3    H250304   0.075   4.599  11.521  0.4925 -1.3113  0.5520
 9605TIP3   OH250305   0.341   2.487  16.375 -0.2653  0.0595  0.0990
 9605TIP3    H150306   0.417   2.436  16.405 -0.9038 -0.4763  0.8462
 9605TIP3    H250307   0.323   2.454  16.287  1.0658  1.0059 -0.5710
 9606TIP3   OH250308   4.422   0.839   1.687  0.0850 -0.4250  0.1111
 9606TIP3    H150309   4.428   0.934   1.681  0.2510 -0.4648 -0.3703
 9606TIP3    H250310   4.366   0.813   1.614  0.1997 -0.7129  0.1220
 9607TIP3   OH250311   2.459   1.754  12.758  0.7548 -0.7006 -0.2308
 9607TIP3    H150312   2.528   1.688  12.757  0.1762 -1.3767  1.1281
 9607TIP3    H250313   2.441   1.769  12.851  0.4258  0.9209 -0.5105
 9608TIP3   OH250314   3.800   0.450  12.206 -0.2347 -0.5625  0.1621
 9608TIP3    H150315   3.747   0.444  12.127 -0.7822 -2.1962  0.6095
 9608TIP3    H250316   3.771   0.530  12.249 -0.1530  0.1791 -1.1026
 9609TIP3   OH250317   3.057   3.068   0.853  0.4880 -0.1974 -0.0914
 9609TIP3    H150318   3.067   3.016   0.933 -0.5235 -0.6460 -0.2488
 9609TIP3    H250319   2.965   3.093   0.852  0.9601  1.7308  0.0532
 9610TIP3   OH250320   2.976   4.664  12.755 -0.8087 -0.2232 -0.1132
 9610TIP3    H150321   2.883   4.668  12.779 -0.2704 -0.1537  2.1769
 9610TIP3    H250322   3.020   4.635  12.835  1.0384 -1.4653 -1.4913
 9611TIP3   OH250323   5.532   6.004   5.834  0.1420  0.3262  0.1535
 9611TIP3    H150324   5.471   5.959   5.893  0.6801 -0.1343  0.3799
 9611TIP3    H250325   5.534   6.094   5.865 -1.0115  0.5386 -0.3502
 9612TIP3   OH250326   1.008   4.675   5.601  0.9344  0.4876  1.2211
 9612TIP3    H150327   1.015   4.595   5.653 -0.3506 -0.0319  0.6396
 9612TIP3    H250328   0.924   4.714   5.627  0.8278  0.8360  0.4024
 9613TIP3   OH250329   4.441   4.536   6.071 -0.0607  0.3792 -0.8022
 9613TIP3    H150330   4.387   4.459   6.086 -0.7281  0.8559 -0.7348
 9613TIP3    H250331   4.435   4.587   6.152 -2.4523  2.2107 -2.0032
 9614TIP3   OH250332   2.564   4.915   2.698  0.0452 -0.2218  0.3492
 9614TIP3    H150333   2.584   5.001   2.734 -1.1877 -0.0905  0.7499
 9614TIP3    H250334   2.486   4.928   2.645 -1.5188 -1.4669  2.1898
 9615TIP3   OH250335   2.175   4.174   3.575  0.5445 -0.2087  0.0691
 9615TIP3    H150336   2.173   4.100   3.635 -0.2546 -0.2415  0.0140
 9615TIP3    H250337   2.125   4.242   3.620  0.5429  0.0042 -0.2529
 9616TIP3   OH250338   0.946   3.089  15.143  0.1265 -0.2838 -0.5391
 9616TIP3    H150339   0.927   3.108  15.051 -2.7259 -1.5568 -0.3235
 9616TIP3    H250340   0.861   3.090  15.186  0.8574 -3.6448  1.3194
 9617TIP3   OH250341   5.329   5.972  17.104 -0.1049  0.2760 -0.0410
 9617TIP3    H150342   5.395   5.920  17.150  1.3747  0.8430 -1.4298
 9617TIP3    H250343   5.346   6.062  17.134  1.8529  0.8864 -2.6200
 9618TIP3   OH250344   0.004   0.296  14.315  0.2347  0.3884  0.0034
 9618TIP3    H150345   0.076   0.348  14.279  2.0882  0.4338  3.3764
 9618TIP3    H250346   0.042   0.210  14.333 -1.5354 -0.7106 -1.2019
 9619TIP3   OH250347   1.166   0.963  10.985  0.0821  0.2359  0.2215
 9619TIP3    H150348   1.141   1.053  10.963 -0.3243 -0.1118 -0.8087
 9619TIP3    H250349   1.147   0.913  10.906 -1.3516 -1.0817  1.3261
 9620TIP3   OH250350   5.455   1.860   4.054  0.2320 -0.2295  0.0197
 9620TIP3    H150351   5.491   1.773   4.040  0.3048 -0.0439 -1.1057
 9620TIP3    H250352   5.448   1.897   3.966  2.0926  1.6592  0.5940
 9621TIP3   OH250353   3.227   0.128  14.246  0.6939 -0.1722 -0.3248
 9621TIP3    H150354   3.312   0.105  14.284  0.5840 -0.6510 -0.3656
 9621TIP3    H250355   3.247   0.153  14.156  0.5962 -1.8840 -0.8458
 9622TIP3   OH250356   4.369   2.143  12.937 -0.4537  0.1062  0.0289
 9622TIP3    H150357   4.351   2.235  12.955 -0.1674 -0.0997  1.5120
 9622TIP3    H250358   4.422   2.144  12.856  0.2579  1.3074  0.4880
 9623TIP3   OH250359   1.494   6.383   0.821 -0.6590 -0.4807 -0.3870
 9623TIP3    H150360   1.409   6.339   0.823 -1.4217  0.9463 -0.2733
 9623TIP3    H250361   1.473   6.476   0.812  0.9225 -0.1857 -1.5370
 9624TIP3   OH250362   1.022   0.682  11.001 -0.1784 -0.1225  0.0277
 9624TIP3    H150363   1.014   0.669  10.907  1.2077  1.9642 -0.4702
 9624TIP3    H250364   1.084   0.615  11.030  1.1556  0.6129 -1.0062
 9625TIP3   OH250365   0.752   6.716   3.139  0.0816 -0.2912  0.4691
 9625TIP3    H150366   0.786   6.751   3.221 -0.1934 -0.1363  0.5176
 9625TIP3    H250367   0.693   6.784   3.107  1.1413  0.2066 -0.4934
 9626TIP3   OH250368   4.267   1.872  12.706  0.3219  0.7387 -0.3175
 9626TIP3    H150369   4.332   1.831  12.763  1.0709  1.4063 -0.6710
 9626TIP3    H250370   4.184   1.864  12.755 -0.0827 -3.1038 -1.2650
 9627TIP3   OH250371   5.019   3.887  11.661 -0.7329  0.0875  0.4277
 9627TIP3    H150372   5.048   3.957  11.719 -1.0918  2.2191 -1.8269
 9627TIP3    H250373   5.087   3.820  11.670  0.5078  1.4066  1.4196
 9628TIP3   OH250374   4.302   5.796   2.030  0.1019  0.2072  0.5320
 9628TIP3    H150375   4.258   5.881   2.035 -0.9670 -0.2686 -0.4672
 9628TIP3    H250376   4.394   5.817   2.042 -0.1753  1.4699  0.6550
 9629TIP3   OH250377   5.445   2.603   0.143  0.4518 -0.8016 -0.0081
 9629TIP3    H150378   5.487   2.670   0.090 -0.0426 -1.0865 -0.7777
 9629TIP3    H250379   5.383   2.560   0.084 -0.2027 -1.0477  0.8280
 9630TIP3   OH250380   2.824   1.370  13.340  1.0333 -0.2866 -0.7495
 9630TIP3    H150381   2.745   1.401  13.295 -0.0285 -1.3048  0.3477
 9630TIP3    H250382   2.884   1.345  13.270  0.6509  1.0929 -1.6136
 9631TIP3   OH250383   3.201   3.837   0.372 -0.2719 -0.4206  0.0455
 9631TIP3    H150384   3.135   3.768   0.378 -0.8964  0.2447  1.1409
 9631TIP3    H250385   3.167   3.897   0.305 -0.2406 -0.6287 -0.1587
 9632TIP3   OH250386   4.525   5.032  14.779 -0.5123 -0.6350 -0.6283
 9632TIP3    H150387   4.443   4.986  14.765 -1.0171 -0.4881  1.4355
 9632TIP3    H250388   4.511   5.081  14.860  0.7997  1.3152 -1.5190
 9633TIP3   OH250389   2.631   5.657   0.056 -0.4923  0.0912 -0.0267
 9633TIP3    H150390   2.657   5.589   0.118 -0.0779  1.1257  0.9709
 9633TIP3    H250391   2.701   5.722   0.060 -0.7224  0.4361 -1.1934
 9634TIP3   OH250392   2.886   3.753   5.194  0.1788 -0.1270 -0.3369
 9634TIP3    H150393   2.949   3.825   5.199  1.0835 -0.9628  0.9268
 9634TIP3    H250394   2.883   3.718   5.283 -0.9748 -1.0497 -0.7165
 9635TIP3   OH250395   4.115   4.580   1.347  0.2865  0.1955 -1.0274
 9635TIP3    H150396   4.205   4.609   1.362 -0.4476  2.0676  0.0382
 9635TIP3    H250397   4.100   4.595   1.254  0.5835  1.4165 -0.8905
 9636TIP3   OH250398   2.531   0.778   0.913  0.2209  0.3852  0.1669
 9636TIP3    H150399   2.575   0.694   0.897  0.7838  0.7241 -0.0938
 9636TIP3    H250400   2.450   0.772   0.863 -0.6443 -0.7310  1.6117
 9637TIP3   OH250401   4.567   3.863  11.297 -0.2322 -0.0912 -0.3891
 9637TIP3    H150402   4.537   3.954  11.296 -1.0111 -0.3413 -0.4539
 9637TIP3    H250403   4.658   3.868  11.268 -0.7197  0.5215 -1.9044
 9638TIP3   OH250404   6.650   5.019  15.090 -0.3606 -0.1082 -0.7290
 9638TIP3    H150405   6.627   5.002  15.181  1.0396 -0.1890 -0.3617
 9638TIP3    H250406   6.631   5.111  15.076 -0.1798  0.0083 -0.2179
 9639TIP3   OH250407   3.371   0.154   6.100 -0.3554 -0.2858 -0.8505
 9639TIP3    H150408   3.410   0.108   6.174  0.1729 -0.8183 -1.4473
 9639TIP3    H250409   3.326   0.086   6.050  0.7614 -0.2655 -1.9568
 9640TIP3   OH250410   0.279   1.754  12.258  0.7130 -0.4260 -0.2469
 9640TIP3    H150411   0.193   1.796  12.264  1.3651  0.8083  0.8236
 9640TIP3    H250412   0.284   1.699  12.336  0.1006 -2.1159 -1.3482
 9641TIP3   OH250413   6.475   2.479  11.541 -0.3535  0.3068  0.1993
 9641TIP3    H150414   6.569   2.497  11.530 -0.4592  0.8530  0.1783
 9641TIP3    H250415   6.473   2.405  11.602  0.0635  1.5658  1.8218
 9642TIP3   OH250416   6.360   2.933   3.412 -0.1522 -0.2948  0.3663
 9642TIP3    H150417   6.357   2.994   3.338  0.5293  0.2869  0.8058
 9642TIP3    H250418   6.396   2.984   3.484  1.3740 -1.4514  0.4887
 9643TIP3   OH250419   6.854   6.527  15.577  0.0390 -0.3931 -0.6237
 9643TIP3    H150420   6.903   6.457  15.621 -1.5956 -0.1505  1.7586
 9643TIP3    H250421   6.856   6.503  15.484  2.5852 -1.6307 -0.3499
 9644TIP3   OH250422   0.772   6.074  14.801 -0.1689 -0.0995 -0.0221
 9644TIP3    H150423   0.847   6.131  14.818 -0.8401  0.4269  1.2851
 9644TIP3    H250424   0.738   6.104  14.716  0.6140  0.1727 -0.2535
 9645TIP3   OH250425   6.783   1.356   1.288  0.0674 -0.2283 -0.1266
 9645TIP3    H150426   6.789   1.446   1.321 -1.9166  0.1390 -0.6558
 9645TIP3    H250427   6.771   1.303   1.367  0.6340  0.0152  0.1339
 9646TIP3   OH250428   4.668   1.144  11.959 -0.9251 -0.2708 -0.7991
 9646TIP3    H150429   4.723   1.183  12.027  0.4589 -2.6548 -0.4354
 9646TIP3    H250430   4.589   1.197  11.959 -0.2535  0.8633  1.4638
 9647TIP3   OH250431   5.954   1.296   4.665 -0.5673  0.0986 -0.7104
 9647TIP3    H150432   5.903   1.230   4.712  0.4782 -0.0106  0.3018
 9647TIP3    H250433   6.044   1.284   4.695 -0.4447  2.4993  0.1341
 9648TIP3   OH250434   3.704   5.450  13.606 -0.1476 -0.1969 -0.7460
 9648TIP3    H150435   3.721   5.418  13.518 -0.4927  0.6866 -1.1335
 9648TIP3    H250436   3.609   5.443  13.617  0.1286 -5.1207  1.4097
 9649TIP3   OH250437   1.167   5.851  14.329 -0.4325 -0.4117 -0.3470
 9649TIP3    H150438   1.155   5.914  14.400 -0.8300 -0.4744 -0.3546
 9649TIP3    H250439   1.217   5.898  14.262  1.2183 -0.7977  0.5670
 9650TIP3   OH250440   2.585   3.595  15.725  0.2555  0.3302 -0.2189
 9650TIP3    H150441   2.669   3.560  15.753  0.2859  1.1144  0.7585
 9650TIP3    H250442   2.525   3.571  15.796 -0.2963 -0.0200 -0.7955
 9651TIP3   OH250443   2.865   6.640  16.396  0.3601  0.4402 -0.7178
 9651TIP3    H150444   2.823   6.642  16.482  2.0358  2.2636  0.1153
 9651TIP3    H250445   2.796   6.669  16.336 -0.0373  1.9954  0.4219
 9652TIP3   OH250446   0.931   0.758  12.404 -0.1659  0.3730  0.2468
 9652TIP3    H150447   1.004   0.787  12.348  0.5955 -0.7215  0.6510
 9652TIP3    H250448   0.918   0.831  12.464  0.8518  0.4464  0.4094
 9653TIP3   OH250449   4.101   2.868  12.362  0.2829 -0.9270 -0.1567
 9653TIP3    H150450   4.100   2.772  12.353  1.0595 -1.0422  0.8291
 9653TIP3    H250451   4.060   2.884  12.447 -0.0064 -0.3645 -0.3998
 9654TIP3   OH250452   0.838   2.381  15.489 -0.2179 -0.1519 -0.0781
 9654TIP3    H150453   0.837   2.321  15.563 -0.6283 -0.4101 -0.2926
 9654TIP3    H250454   0.930   2.387  15.464 -0.2627 -1.3143 -0.5611
 9655TIP3   OH250455   3.938   3.536   5.797 -0.6103  0.1230  0.5008
 9655TIP3    H150456   4.028   3.515   5.821 -0.1370  0.1124 -1.1765
 9655TIP3    H250457   3.884   3.491   5.863  0.5207 -2.3634 -0.1698
 9656TIP3   OH250458   6.710   0.446  16.444 -0.1080  0.7879  0.0340
 9656TIP3    H150459   6.689   0.453  16.537 -1.6346 -0.1688 -0.2127
 9656TIP3    H250460   6.780   0.380  16.440 -0.2434  0.6162  0.4772
 9657TIP3   OH250461   4.179   4.285   4.646 -0.1604 -0.7514 -0.2440
 9657TIP3    H150462   4.242   4.259   4.580 -0.2733 -0.6882 -0.3781
 9657TIP3    H250463   4.132   4.359   4.607  0.7676  0.2607  0.4866
 9658TIP3   OH250464   0.568   3.971  16.123 -0.2025  0.3090  0.1849
 9658TIP3    H150465   0.479   3.936  16.130  0.0164 -0.1856  0.4724
 9658TIP3    H250466   0.602   3.971  16.212  0.4771 -0.5337 -0.0545
 9659TIP3   OH250467   2.023   4.993   4.894 -0.4961  0.1740  0.3217
 9659TIP3    H150468   2.092   5.054   4.868 -0.4291 -0.2007 -0.4309
 9659TIP3    H250469   2.000   5.018   4.983 -1.0113  1.8011 -0.2143
 9660TIP3   OH250470   3.149   6.317   5.827  0.2886  0.1015  0.5326
 9660TIP3    H150471   3.210   6.388   5.848  0.6152  0.1882 -0.6283
 9660TIP3    H250472   3.130   6.276   5.911  0.6836  1.0928  1.1213
 9661TIP3   OH250473   4.507   0.480  12.381 -0.0082 -0.3854 -0.4579
 9661TIP3    H150474   4.564   0.514  12.450  0.1246  0.8762 -1.1424
 9661TIP3    H250475   4.531   0.532  12.304 -0.4306 -1.4856 -1.3514
 9662TIP3   OH250476   6.217   3.433  14.310  0.0387 -0.0363 -0.1209
 9662TIP3    H150477   6.207   3.478  14.394  0.8848  1.6576 -0.8791
 9662TIP3    H250478   6.144   3.466  14.257  1.0803  1.0702 -0.9213
 9663TIP3   OH250479   6.388   4.296  10.907 -0.4258  0.2368  0.8060
 9663TIP3    H150480   6.352   4.233  10.846  3.1877  0.7918 -2.2538
 9663TIP3    H250481   6.393   4.378  10.857 -0.4564  1.7266  3.0542
 9664TIP3   OH250482   3.159   6.057   1.189 -0.3666  0.5670 -0.4055
 9664TIP3    H150483   3.123   6.033   1.274 -2.2361 -0.9315 -1.5319
 9664TIP3    H250484   3.249   6.084   1.207 -1.3382  2.3757  2.2888
 9665TIP3   OH250485   0.620   0.380  14.236  0.1697 -0.8565  0.4394
 9665TIP3    H150486   0.636   0.472  14.260  0.0095 -0.2435 -1.5916
 9665TIP3    H250487   0.702   0.335  14.258  0.1157 -0.3449  1.8239
 9666TIP3   OH250488   4.929   1.497  12.573 -0.4017 -0.6037 -0.5472
 9666TIP3    H150489   4.854   1.552  12.551  0.5325  0.9316 -0.0517
 9666TIP3    H250490   4.967   1.538  12.651  0.9458 -1.3648 -0.7671
 9667TIP3   OH250491   1.498   1.783  15.243  0.9232  0.6009 -0.0913
 9667TIP3    H150492   1.578   1.778  15.295  0.3131  0.8332  0.8858
 9667TIP3    H250493   1.510   1.718  15.174  1.1473 -0.7359  1.1721
 9668TIP3   OH250494   0.284   4.162   4.081  0.2618  0.0068 -0.1170
 9668TIP3    H150495   0.304   4.169   3.987 -1.3554  3.2935 -0.3775
 9668TIP3    H250496   0.368   4.171   4.125  0.7534  1.3433 -1.2619
 9669TIP3   OH250497   4.859   0.677   2.056  0.5804 -0.0879  0.1727
 9669TIP3    H150498   4.919   0.722   1.997  0.4813 -0.3782 -0.1603
 9669TIP3    H250499   4.908   0.601   2.088  0.4035 -0.3190 -0.0910
 9670TIP3   OH250500   3.246   1.200  11.537  0.0656 -0.1828  0.1359
 9670TIP3    H150501   3.244   1.290  11.566  1.5045  0.3598 -1.2772
 9670TIP3    H250502   3.160   1.165  11.560 -0.0507  1.1408  1.8668
 9671TIP3   OH250503   1.607   4.321   4.533  0.4806 -0.1204  0.2123
 9671TIP3    H150504   1.690   4.325   4.487 -0.3546  0.6614 -1.2772
 9671TIP3    H250505   1.614   4.388   4.601  1.4353 -0.7747  0.7914
 9672TIP3   OH250506   2.436   0.232  11.815  0.0698 -0.1632  0.1902
 9672TIP3    H150507   2.513   0.188  11.850  0.3855 -0.2596 -0.6037
 9672TIP3    H250508   2.377   0.240  11.890  1.7431  2.0060  1.3828
 9673TIP3   OH250509   6.230   1.438  15.503  0.1871  0.4651 -0.5364
 9673TIP3    H150510   6.150   1.397  15.538  0.5823  0.9349  1.0049
 9673TIP3    H250511   6.226   1.421  15.409 -1.6543  0.3478 -0.4780
 9674TIP3   OH250512   6.540   0.112  15.649  0.0528  0.5124 -0.0905
 9674TIP3    H150513   6.447   0.107  15.672  0.1543 -0.3890  0.1784
 9674TIP3    H250514   6.567   0.021  15.637  0.4536  0.8458 -2.0527
 9675TIP3   OH250515   0.837   0.031   4.472  0.2694  0.6346  0.1531
 9675TIP3    H150516   0.889   0.077   4.407  0.4090  1.4232  0.8027
 9675TIP3    H250517   0.899   0.010   4.542 -0.0363  0.4900  0.3877
 9676TIP3   OH250518   3.776   4.433   3.520  0.1792 -0.2415  0.2316
 9676TIP3    H150519   3.846   4.433   3.586 -0.2042 -0.7588  0.6420
 9676TIP3    H250520   3.737   4.346   3.526 -0.5439  0.0610  0.0476
 9677TIP3   OH250521   0.292   6.325  10.968 -0.7320  0.2312 -0.8040
 9677TIP3    H150522   0.243   6.392  11.016 -1.1569  0.0167 -0.9285
 9677TIP3    H250523   0.287   6.352  10.877 -0.8317  0.0763 -0.8444
 9678TIP3   OH250524   1.028   1.109  12.407 -0.3807 -0.4400 -0.0828
 9678TIP3    H150525   1.080   1.175  12.453 -0.3889  0.6635 -1.5910
 9678TIP3    H250526   0.970   1.073  12.475  0.1911  0.5105  0.9451
 9679TIP3   OH250527   1.954   6.164   2.260 -0.1075 -0.2469  0.2536
 9679TIP3    H150528   1.971   6.161   2.354 -1.2505  1.7319  0.5683
 9679TIP3    H250529   1.860   6.148   2.252 -0.1204  0.1800 -0.5104
 9680TIP3   OH250530   0.619   2.072  14.303  1.3050  0.2284  0.6248
 9680TIP3    H150531   0.713   2.069  14.322  1.5170 -0.2720 -0.3853
 9680TIP3    H250532   0.599   2.165  14.293  1.8050  0.3141  0.3864
 9681TIP3   OH250533   5.666   3.066   6.435  0.5182 -0.1093  0.1840
 9681TIP3    H150534   5.692   3.027   6.519  0.4151  1.5945  1.0517
 9681TIP3    H250535   5.573   3.087   6.447  0.7605  1.0766  0.0317
 9682TIP3   OH250536   1.743   2.984   0.593  0.0632  0.6114  0.1323
 9682TIP3    H150537   1.750   2.923   0.666  0.1987 -2.7364 -2.4091
 9682TIP3    H250538   1.652   3.012   0.593 -0.9760 -2.4296 -0.5398
 9683TIP3   OH250539   4.493   1.552  12.173  0.2312  0.9327 -0.3868
 9683TIP3    H150540   4.456   1.622  12.227 -2.2191 -1.8188  1.8405
 9683TIP3    H250541   4.473   1.578  12.083 -3.2719  1.7905  0.4869
 9684TIP3   OH250542   5.956   0.730  14.851 -0.0631 -0.2516 -0.6465
 9684TIP3    H150543   6.006   0.650  14.839 -0.6578 -0.6460 -0.5668
 9684TIP3    H250544   5.883   0.722  14.790 -1.2141 -0.6938  0.7210
 9685TIP3   OH250545   3.285   6.104   3.842  0.1364  0.2918  0.4614
 9685TIP3    H150546   3.323   6.188   3.815 -0.6960  0.1036 -1.4451
 9685TIP3    H250547   3.335   6.079   3.919  1.4573  1.7916  0.1435
 9686TIP3   OH250548   5.094   5.175   0.774 -0.4304  0.6533  0.1261
 9686TIP3    H150549   5.126   5.219   0.853 -1.0058  1.8312 -0.2750
 9686TIP3    H250550   5.157   5.104   0.759  1.3232  2.1616  0.0388
 9687TIP3   OH250551   6.120   0.258  14.721  0.1485 -0.2129 -0.1631
 9687TIP3    H150552   6.145   0.260  14.628 -0.5064 -0.6488 -0.3569
 9687TIP3    H250553   6.137   0.168  14.749  1.5671  0.2441  0.5003
 9688TIP3   OH250554   3.672   0.832  14.254  0.3293  0.1311  0.7508
 9688TIP3    H150555   3.603   0.801  14.312 -0.9779 -2.1452 -1.8223
 9688TIP3    H250556   3.699   0.754  14.205  2.2092  1.6816 -0.8522
 9689TIP3   OH250557   4.453   1.106   0.221  0.0208 -0.0336  0.3098
 9689TIP3    H150558   4.515   1.089   0.293 -0.8293 -1.8844  0.6597
 9689TIP3    H250559   4.396   1.029   0.219 -2.4074  1.6598  0.0926
 9690TIP3   OH250560   0.833   4.069   3.977 -0.0528 -0.0778 -0.3860
 9690TIP3    H150561   0.745   4.048   3.946 -0.4889  0.8962  0.1587
 9690TIP3    H250562   0.881   3.987   3.968 -1.0779 -0.6903 -0.4669
 9691TIP3   OH250563   1.764   5.653   4.543  0.2528  0.2197  0.4561
 9691TIP3    H150564   1.691   5.593   4.560  1.7172 -1.3356  1.5988
 9691TIP3    H250565   1.764   5.664   4.448 -0.9987 -0.3640  0.3699
 9692TIP3   OH250566   2.565   3.272  12.993 -0.2197  0.0941  0.1110
 9692TIP3    H150567   2.481   3.248  12.952 -1.0583  0.3785  1.6110
 9692TIP3    H250568   2.550   3.360  13.026  0.7724  0.2401  0.1730
 9693TIP3   OH250569   1.101   6.336  15.248 -0.0813  0.0433  0.3896
 9693TIP3    H150570   1.116   6.410  15.189 -0.2556 -0.5361 -0.3982
 9693TIP3    H250571   1.099   6.259  15.191  2.4478 -0.8944  1.3916
 9694TIP3   OH250572   3.749   0.221   1.366  0.0164 -0.0117  0.7431
 9694TIP3    H150573   3.827   0.222   1.421 -0.0552 -1.4829  0.9072
 9694TIP3    H250574   3.696   0.294   1.398  0.3762 -0.2987  2.0525
 9695TIP3   OH250575   3.986   5.507  16.808 -0.4256  0.2052  0.0945
 9695TIP3    H150576   3.972   5.587  16.859  1.6209  0.0299  1.0118
 9695TIP3    H250577   4.031   5.447  16.868 -1.5208 -1.5140 -0.7097
 9696TIP3   OH250578   5.032   6.391   2.496  0.7502 -0.5516 -0.5586
 9696TIP3    H150579   5.038   6.470   2.550 -1.1302 -1.1825  0.6702
 9696TIP3    H250580   5.034   6.423   2.406  1.7751  0.7203 -0.1139
 9697TIP3   OH250581   5.781   3.096  14.898  0.3261  0.1513 -0.5050
 9697TIP3    H150582   5.861   3.067  14.941 -0.0550  0.8893  0.7395
 9697TIP3    H250583   5.776   3.190  14.916 -1.7707 -0.1822  1.1125
 9698TIP3   OH250584   4.209   0.460  12.740  0.3625  0.3335  0.6224
 9698TIP3    H150585   4.203   0.477  12.646  0.2436 -0.1947  0.5259
 9698TIP3    H250586   4.154   0.528  12.780  0.3380  0.5051  0.3028
 9699TIP3   OH250587   1.343   6.346   4.858 -0.5199  0.2952 -0.0812
 9699TIP3    H150588   1.387   6.315   4.779 -2.8545  2.5666 -2.4405
 9699TIP3    H250589   1.409   6.400   4.902  0.5444 -0.3142 -0.8648
 9700TIP3   OH250590   2.123   5.931   3.981  0.7282  0.0812  0.3215
 9700TIP3    H150591   2.218   5.931   3.990  0.7346 -2.5083  0.9835
 9700TIP3    H250592   2.091   5.945   4.070  0.5956 -2.2538  0.7167
 9701TIP3   OH250593   4.259   4.819   2.280  0.3581 -0.3506 -0.0726
 9701TIP3    H150594   4.351   4.793   2.272  0.2003 -1.0434  0.2816
 9701TIP3    H250595   4.210   4.744   2.247 -0.0749  0.4132 -1.2248
 9702TIP3   OH250596   3.696   2.993  14.326  0.3284  0.3928 -0.0528
 9702TIP3    H150597   3.611   3.013  14.365 -0.0639  0.4097 -0.9095
 9702TIP3    H250598   3.747   2.958  14.399 -0.2846  0.7211  0.5557
 9703TIP3   OH250599   0.101   1.852  16.880 -0.3086  0.1655 -0.3250
 9703TIP3    H150600   0.138   1.764  16.868 -2.2349 -0.5616 -1.2684
 9703TIP3    H250601   0.067   1.876  16.794 -2.3689  0.6038  0.5633
 9704TIP3   OH250602   4.518   2.603   1.397  0.3481  0.2776 -0.2715
 9704TIP3    H150603   4.581   2.638   1.460  0.1966 -2.4784  1.5604
 9704TIP3    H250604   4.438   2.654   1.412  0.8172  0.7937  0.5456
 9705TIP3   OH250605   6.442   0.238   3.133 -0.6566  0.3835  0.3929
 9705TIP3    H150606   6.358   0.192   3.141 -1.5731  1.6194 -1.5536
 9705TIP3    H250607   6.464   0.262   3.223 -1.7449 -1.0278  1.0885
 9706TIP3   OH250608   1.913   5.419   1.813 -0.0114 -0.1228 -0.4427
 9706TIP3    H150609   1.971   5.467   1.754  1.3468 -2.0029 -0.7117
 9706TIP3    H250610   1.941   5.328   1.805 -0.7347 -0.6186  2.0592
 9707TIP3   OH250611   0.576   5.424  13.495  0.4052  0.1030 -0.5021
 9707TIP3    H150612   0.637   5.464  13.433  0.0320  1.8108  0.1586
 9707TIP3    H250613   0.624   5.350  13.532  1.3618  0.2581 -1.3872
 9708TIP3   OH250614   3.120   5.314  12.586 -0.2097  0.0749 -0.0147
 9708TIP3    H150615   3.156   5.390  12.633 -0.6197  1.0631 -1.2414
 9708TIP3    H250616   3.044   5.349  12.540 -1.1767 -1.3886  0.4142
 9709TIP3   OH250617   5.562   1.615   4.051  0.0050 -0.0887  0.3395
 9709TIP3    H150618   5.622   1.567   4.108 -0.6878  0.1208  1.2708
 9709TIP3    H250619   5.611   1.627   3.969  1.1942  0.0250  1.0439
 9710TIP3   OH250620   5.161   6.228  13.955  0.4365  0.5567 -0.3295
 9710TIP3    H150621   5.175   6.257  14.046  0.8387  1.7852 -0.7590
 9710TIP3    H250622   5.243   6.248  13.911  0.9039 -1.7464 -0.5764
 9711TIP3   OH250623   3.185   4.577   4.605 -0.6074 -0.2693  0.6752
 9711TIP3    H150624   3.213   4.652   4.554 -1.1832  0.8215  1.8970
 9711TIP3    H250625   3.089   4.578   4.599 -0.5845 -1.5745 -0.1974
 9712TIP3   OH250626   3.694   4.213  11.032  1.0228  0.5718 -0.8047
 9712TIP3    H150627   3.616   4.253  11.071  0.9300  0.5082 -0.9256
 9712TIP3    H250628   3.668   4.191  10.943  0.5075 -1.2922 -0.2594
 9713TIP3   OH250629   0.497   5.626   3.286 -0.3515  0.1956  0.2180
 9713TIP3    H150630   0.570   5.686   3.295  0.0809 -0.1629 -0.8081
 9713TIP3    H250631   0.433   5.656   3.351  0.0172  1.5084 -0.0081
 9714TIP3   OH250632   1.184   0.934   4.418  0.1307 -0.1960  0.6092
 9714TIP3    H150633   1.177   1.019   4.375  0.4501 -0.0723  0.8033
 9714TIP3    H250634   1.249   0.946   4.487 -1.3952 -0.0201  2.0758
 9715TIP3   OH250635   3.873   2.129   5.901  0.0465  0.0883  0.8980
 9715TIP3    H150636   3.954   2.078   5.891 -0.1634 -0.3839  1.5170
 9715TIP3    H250637   3.867   2.181   5.821  0.1023 -1.1138  0.0883
 9716TIP3   OH250638   5.510   0.601  15.470 -0.1057  0.7990  0.9783
 9716TIP3    H150639   5.453   0.524  15.477  1.5707 -0.7930 -1.4508
 9716TIP3    H250640   5.463   0.660  15.412  0.5800 -0.4837 -0.9729
 9717TIP3   OH250641   0.304   2.629   0.133 -0.2043 -0.3186 -0.1128
 9717TIP3    H150642   0.336   2.700   0.077  0.4891 -1.4549 -1.1953
 9717TIP3    H250643   0.212   2.619   0.108 -0.4308  0.4841  0.3663
 9718TIP3   OH250644   5.977   2.589   1.915  0.0786 -0.0555  0.2592
 9718TIP3    H150645   6.044   2.658   1.911  0.8311 -0.6511  1.7334
 9718TIP3    H250646   5.895   2.635   1.900  0.6944  0.9199 -0.2591
 9719TIP3   OH250647   5.861   5.424  13.148  0.3426  1.2517  0.1158
 9719TIP3    H150648   5.784   5.368  13.139 -0.3956  2.3162 -0.2815
 9719TIP3    H250649   5.826   5.513  13.153  1.5580  1.7762 -0.4006
 9720TIP3   OH250650   3.426   4.927   6.280  0.1348  0.3842 -0.1901
 9720TIP3    H150651   3.472   4.843   6.272  1.6771  1.1106  0.6585
 9720TIP3    H250652   3.344   4.905   6.326  0.5554 -0.6501  0.0993
 9721TIP3   OH250653   1.523   1.910  14.564  0.2431 -0.3148 -0.0619
 9721TIP3    H150654   1.472   1.990  14.574  0.4982 -0.1306 -0.2223
 9721TIP3    H250655   1.462   1.839  14.586 -0.7245 -0.2548 -2.2852
 9722TIP3   OH250656   1.272   0.810  11.748 -0.6406 -0.0386  0.5550
 9722TIP3    H150657   1.365   0.794  11.737 -0.5443 -0.5737  1.9211
 9722TIP3    H250658   1.241   0.836  11.661  0.9606  1.1525  0.3010
 9723TIP3   OH250659   4.007   1.634   3.326  0.0143  0.5130  0.4194
 9723TIP3    H150660   4.043   1.595   3.405  1.6528 -0.1939 -0.6253
 9723TIP3    H250661   3.996   1.726   3.347 -0.5242  0.1568  1.7749
 9724TIP3   OH250662   0.649   1.709   1.475 -0.2134  0.9605 -0.2894
 9724TIP3    H150663   0.707   1.653   1.526 -0.3307 -0.0985 -1.2941
 9724TIP3    H250664   0.667   1.798   1.507 -0.2842  0.3409  1.5758
 9725TIP3   OH250665   5.064   4.814  12.909 -0.1674  0.0166  0.0934
 9725TIP3    H150666   5.159   4.819  12.901 -0.1649  1.9047  0.8150
 9725TIP3    H250667   5.037   4.758  12.836  1.4848 -0.6544 -0.0473
 9726TIP3   OH250668   5.234   2.790  15.928  0.1417 -0.0200 -0.2422
 9726TIP3    H150669   5.241   2.702  15.891  1.4474  0.2290 -0.6354
 9726TIP3    H250670   5.275   2.783  16.014 -2.4331 -0.4754  1.0369
 9727TIP3   OH250671   1.099   5.355   6.168 -0.0332 -0.1632  0.5451
 9727TIP3    H150672   1.166   5.318   6.226 -0.1387 -0.9212  0.1902
 9727TIP3    H250673   1.026   5.293   6.173  0.2345 -0.6234 -0.9687
 9728TIP3   OH250674   2.575   3.080   3.489 -0.3958  0.3680 -0.5471
 9728TIP3    H150675   2.664   3.115   3.484  0.0521 -0.4100  1.1223
 9728TIP3    H250676   2.562   3.035   3.405  2.2368 -2.6597  0.4477
 9729TIP3   OH250677   1.999   4.315  16.401  0.2118  0.2428 -0.2347
 9729TIP3    H150678   1.966   4.237  16.446 -0.5589  0.0913 -1.0245
 9729TIP3    H250679   2.093   4.314  16.416  0.9053 -2.9668 -3.3021
 9730TIP3   OH250680   2.196   5.145  13.405 -0.1157  0.0744 -0.4960
 9730TIP3    H150681   2.162   5.229  13.375  1.1310  0.9065  0.3313
 9730TIP3    H250682   2.205   5.155  13.500  0.7014 -0.7539 -0.4693
 9731TIP3   OH250683   6.458   4.526   3.261  0.2663  0.0146  0.1211
 9731TIP3    H150684   6.387   4.559   3.206 -0.4053 -1.4236  0.0602
 9731TIP3    H250685   6.499   4.604   3.298 -0.5930  0.9224 -0.7816
 9732TIP3   OH250686   3.157   0.477  16.956 -0.3847  0.1402 -0.2674
 9732TIP3    H150687   3.149   0.521  17.041 -0.3202 -0.4899  0.0759
 9732TIP3    H250688   3.069   0.477  16.921 -0.2042  1.5107 -0.7806
 9733TIP3   OH250689   5.433   4.383   2.633  0.2045  0.4989  0.3630
 9733TIP3    H150690   5.378   4.457   2.606 -0.4894  1.3391  3.6450
 9733TIP3    H250691   5.377   4.332   2.692  1.3463 -1.5196 -0.2260
 9734TIP3   OH250692   4.198   2.501   1.704 -0.1536 -0.0125  0.7951
 9734TIP3    H150693   4.213   2.434   1.772 -0.5320  0.6526  1.5455
 9734TIP3    H250694   4.280   2.551   1.703  0.0626 -0.3631  0.3561
 9735TIP3   OH250695   4.946   3.930  15.631 -0.2452  0.0207  0.0472
 9735TIP3    H150696   4.934   4.001  15.694  1.5332  1.3203 -0.9791
 9735TIP3    H250697   4.992   3.862  15.680  1.0939  1.0037  0.2306
 9736TIP3   OH250698   4.662   6.483   2.357 -0.2422 -0.5994  0.2908
 9736TIP3    H150699   4.606   6.410   2.382 -1.8325  0.9219  1.4321
 9736TIP3    H250700   4.618   6.560   2.392  1.9296  0.8187  0.1093
 9737TIP3   OH250701   2.345   3.098   1.415 -0.0481 -0.0104 -0.3543
 9737TIP3    H150702   2.391   3.063   1.338 -0.9554  0.0200 -0.9173
 9737TIP3    H250703   2.255   3.068   1.405 -0.3144  0.5274  0.3719
 9738TIP3   OH250704   1.766   6.550   1.198 -0.1549 -0.6948 -0.4493
 9738TIP3    H150705   1.710   6.616   1.238 -1.1798 -0.1111 -2.6521
 9738TIP3    H250706   1.854   6.571   1.230 -0.5892  1.1561 -0.3207
 9739TIP3   OH250707   5.873   1.677   0.655 -0.2904 -0.0519  0.1042
 9739TIP3    H150708   5.801   1.662   0.594  1.3923  0.6840 -2.1719
 9739TIP3    H250709   5.887   1.771   0.654 -0.7983  0.1215  2.4256
 9740TIP3   OH250710   6.776   1.742   0.517  0.4773 -0.3841  0.1350
 9740TIP3    H150711   6.702   1.754   0.577 -0.3857 -0.4630 -0.8754
 9740TIP3    H250712   6.853   1.767   0.568 -0.2088 -0.6093  1.3196
 9741TIP3   OH250713   3.560   3.654  12.701 -0.2071  0.2612  0.0890
 9741TIP3    H150714   3.467   3.676  12.695 -0.2629 -0.1646 -0.6627
 9741TIP3    H250715   3.564   3.588  12.770 -0.7156 -1.0122 -1.0601
 9742TIP3   OH250716   4.912   6.584  12.671  0.4955  0.4102  0.4577
 9742TIP3    H150717   4.870   6.670  12.661 -1.1927 -0.6153 -2.4058
 9742TIP3    H250718   4.840   6.524  12.691  1.4295 -0.5731  0.9633
 9743TIP3   OH250719   4.556   5.719   3.325  0.3485 -0.0656 -0.4981
 9743TIP3    H150720   4.498   5.659   3.277 -0.1467  0.0200 -0.0154
 9743TIP3    H250721   4.636   5.668   3.339 -0.3442 -0.9233  0.6000
 9744TIP3   OH250722   5.183   6.238  12.838 -0.1861 -0.1219  0.1767
 9744TIP3    H150723   5.251   6.305  12.842 -0.2122 -0.1073  0.3778
 9744TIP3    H250724   5.170   6.223  12.745  0.2539 -0.2846  0.1372
 9745TIP3   OH250725   5.642   3.500  16.319  0.1685  0.2991  0.0560
 9745TIP3    H150726   5.615   3.585  16.354 -1.9721 -0.9876  1.7254
 9745TIP3    H250727   5.675   3.452  16.394  1.5968 -0.3270 -0.9147
 9746TIP3   OH250728   1.056   1.814  11.650  0.2951  0.0497  0.1798
 9746TIP3    H150729   1.098   1.842  11.569  0.4861 -2.4986 -0.6966
 9746TIP3    H250730   1.033   1.895  11.695 -0.8014  1.6056 -2.9089
 9747TIP3   OH250731   1.885   2.607  12.378 -0.0795  0.0251  0.3622
 9747TIP3    H150732   1.947   2.629  12.308 -1.4928  1.2691 -0.5691
 9747TIP3    H250733   1.921   2.529  12.418  1.5448  0.1120 -0.8269
 9748TIP3   OH250734   6.190   4.701  14.349  0.8178 -0.1083 -0.0945
 9748TIP3    H150735   6.240   4.769  14.395 -0.3055  1.0377 -0.5173
 9748TIP3    H250736   6.169   4.740  14.264  1.8212 -1.7415 -1.1414
 9749TIP3   OH250737   5.830   0.572   3.243 -0.1934 -0.9501  0.7099
 9749TIP3    H150738   5.884   0.605   3.315  2.6069 -0.5627 -1.4213
 9749TIP3    H250739   5.881   0.500   3.206 -2.3561 -2.2548  0.0886
 9750TIP3   OH250740   2.581   6.740   2.799  0.1967  0.2295  0.0321
 9750TIP3    H150741   2.618   6.665   2.753  0.3365 -0.5341  1.3521
 9750TIP3    H250742   2.568   6.806   2.730  1.8148 -0.3120 -0.8525
 9751TIP3   OH250743   1.516   1.265   0.683  0.3205 -0.7811 -0.1565
 9751TIP3    H150744   1.431   1.224   0.702  0.6682 -1.1016  0.7931
 9751TIP3    H250745   1.580   1.195   0.697  0.8891 -0.0591  0.9824
 9752TIP3   OH250746   6.200   0.036  14.842 -0.0140 -0.1503 -0.0843
 9752TIP3    H150747   6.166   0.001  14.925 -1.5580  0.0958 -0.5838
 9752TIP3    H250748   6.176  -0.029  14.777  0.6025 -0.0191 -0.4507
 9753TIP3   OH250749   1.372   1.499  12.409  0.1469  0.3113 -0.2433
 9753TIP3    H150750   1.441   1.435  12.390 -1.6050 -1.5318 -0.8148
 9753TIP3    H250751   1.351   1.536  12.323 -1.9516 -1.7792 -0.7201
 9754TIP3   OH250752   4.126   4.269  10.983 -0.5853 -0.0165 -0.4806
 9754TIP3    H150753   4.045   4.272  10.932 -0.9162  1.4102  0.0795
 9754TIP3    H250754   4.185   4.214  10.932 -1.6177 -0.3740 -1.3225
 9755TIP3   OH250755   2.828   0.672  15.172 -0.0246 -0.1116  0.1992
 9755TIP3    H150756   2.746   0.638  15.135 -0.0810 -1.5390  1.5173
 9755TIP3    H250757   2.866   0.597  15.218  1.2564  0.9334  0.9129
 9756TIP3   OH250758   5.793   6.490  13.211  1.0378 -0.0519  0.0037
 9756TIP3    H150759   5.740   6.411  13.224  2.9303 -1.1390  1.6735
 9756TIP3    H250760   5.738   6.561  13.244  0.1317 -0.9741  0.5350
 9757TIP3   OH250761   2.802   1.285  16.448  1.0418 -0.1620  0.1459
 9757TIP3    H150762   2.723   1.340  16.448  0.9506 -0.2734 -0.9810
 9757TIP3    H250763   2.834   1.289  16.358  1.8838 -0.7559  0.4092
 9758TIP3   OH250764   0.878   1.902   5.068 -0.0180  0.1710  0.1142
 9758TIP3    H150765   0.883   1.811   5.040  0.9742  0.4107 -0.5300
 9758TIP3    H250766   0.819   1.901   5.143  1.4722 -1.3033  1.3334
 9759TIP3   OH250767   5.983   6.198   2.644  0.3159 -0.0365 -0.1927
 9759TIP3    H150768   6.001   6.268   2.707 -0.8931  1.3563 -1.3331
 9759TIP3    H250769   5.900   6.160   2.673  0.2148  0.0023 -0.4304
 9760TIP3   OH250770   1.240   0.995   2.693 -0.6934 -0.1478  0.0152
 9760TIP3    H150771   1.319   0.952   2.659 -0.4082 -0.9932  1.6435
 9760TIP3    H250772   1.221   1.064   2.629  1.2819  0.0000 -0.4854
 9761TIP3   OH250773   4.548   1.101   4.763 -0.2640 -0.1294 -0.5420
 9761TIP3    H150774   4.585   1.142   4.685 -0.5877  1.6714  0.2074
 9761TIP3    H250775   4.466   1.062   4.734  0.1509 -0.4397 -1.3146
 9762TIP3   OH250776   4.196   1.800  16.644  0.2654 -0.0687  0.0189
 9762TIP3    H150777   4.101   1.788  16.646 -0.0689  2.3042  0.6114
 9762TIP3    H250778   4.226   1.771  16.730 -0.4160  2.2947  1.1332
 9763TIP3   OH250779   2.583   1.567  15.516  0.0285 -0.4477 -0.1520
 9763TIP3    H150780   2.537   1.637  15.468  1.0961  0.4552  0.0994
 9763TIP3    H250781   2.637   1.613  15.580 -0.2815 -1.5823  0.9621
 9764TIP3   OH250782   6.279   3.529   4.243 -0.2346  0.1311 -0.0182
 9764TIP3    H150783   6.246   3.568   4.162 -0.5511 -3.7884 -1.9706
 9764TIP3    H250784   6.374   3.541   4.238 -0.3111  0.5165 -0.5993
 9765TIP3   OH250785   3.931   6.676   1.940  0.1563 -0.1378 -0.1989
 9765TIP3    H150786   3.990   6.646   2.009 -1.0736  1.2794  1.5638
 9765TIP3    H250787   3.892   6.596   1.904  1.5676 -0.9531  0.0150
 9766TIP3   OH250788   2.136   5.552   1.548  0.4630  0.0404  0.0584
 9766TIP3    H150789   2.065   5.489   1.535 -0.3492  1.1319 -1.0788
 9766TIP3    H250790   2.200   5.530   1.481 -0.6763  1.5204 -1.6060
 9767TIP3   OH250791   3.362   5.807  12.163  0.0061  0.2104 -0.2635
 9767TIP3    H150792   3.325   5.895  12.170 -1.0196 -0.2314  0.1241
 9767TIP3    H250793   3.312   5.765  12.093 -0.0003 -0.2893  0.0318
 9768TIP3   OH250794   6.493   1.491   3.130 -0.7463 -0.5616  0.1842
 9768TIP3    H150795   6.549   1.520   3.202  0.2647 -0.2827 -0.6802
 9768TIP3    H250796   6.524   1.540   3.054 -0.4342 -2.2722 -0.8643
 9769TIP3   OH250797   3.271   4.339  16.632  0.3236 -0.7644 -0.0950
 9769TIP3    H150798   3.209   4.365  16.563  0.0857  0.0113  0.3992
 9769TIP3    H250799   3.347   4.395  16.620 -0.9602  1.6960  2.1698
 9770TIP3   OH250800   1.716   1.008   4.703  0.0058 -0.3730  0.3621
 9770TIP3    H150801   1.689   0.934   4.757 -2.4022 -2.0999 -2.9252
 9770TIP3    H250802   1.646   1.073   4.715  1.2597  0.7911  1.9006
 9771TIP3   OH250803   1.099   6.571   3.971 -0.5949 -0.3869  0.0679
 9771TIP3    H150804   1.129   6.632   3.904 -1.7308 -0.7203 -0.7709
 9771TIP3    H250805   1.135   6.486   3.944 -1.0751 -0.5263 -0.1283
 9772TIP3   OH250806   1.246   5.525   3.638  0.2592  0.4131  0.0293
 9772TIP3    H150807   1.313   5.567   3.584 -1.3665  2.6804 -0.3739
 9772TIP3    H250808   1.236   5.584   3.713 -0.5498 -0.4401  0.6161
 9773TIP3   OH250809   4.450   2.289  14.622 -0.1482 -0.4353 -0.0160
 9773TIP3    H150810   4.383   2.272  14.556  0.1796  1.3540 -0.8828
 9773TIP3    H250811   4.533   2.278  14.575  0.0892  0.7621  0.0776
 9774TIP3   OH250812   4.875   6.499  11.546  0.4095 -0.0806 -0.4980
 9774TIP3    H150813   4.804   6.478  11.485  0.4185  0.4181 -0.6857
 9774TIP3    H250814   4.955   6.492  11.494  0.3972  0.6125 -0.6203
 9775TIP3   OH250815   1.017   0.308   1.561  0.3004 -0.0053 -0.3726
 9775TIP3    H150816   1.030   0.229   1.615 -1.1913 -0.1947 -0.2332
 9775TIP3    H250817   1.057   0.378   1.612 -0.8733 -0.2184  0.9087
 9776TIP3   OH250818   3.108   2.364   1.952 -0.1658  0.4997  0.3000
 9776TIP3    H150819   3.153   2.285   1.922 -1.0268  0.7993 -1.9606
 9776TIP3    H250820   3.170   2.435   1.936  0.5650  0.3658  2.2304
 9777TIP3   OH250821   2.856   0.779  17.071 -0.3331  0.0472  0.4532
 9777TIP3    H150822   2.803   0.699  17.075 -1.1802  0.6222  0.8606
 9777TIP3    H250823   2.848   0.809  16.981 -0.3911 -0.0715  0.4182
 9778TIP3   OH250824   1.093   5.079   2.920  0.5587  0.1040  0.2976
 9778TIP3    H150825   1.186   5.057   2.920  0.4096 -0.5345  0.4437
 9778TIP3    H250826   1.065   5.066   3.011  0.3157  0.2468  0.2453
 9779TIP3   OH250827   0.667   1.253  12.688  0.4180  0.1340  0.2934
 9779TIP3    H150828   0.744   1.299  12.653  0.8509 -1.5583 -1.1374
 9779TIP3    H250829   0.617   1.321  12.732  2.3669  1.4342  0.6388
 9780TIP3   OH250830   2.088   1.083  12.810  0.5547 -0.1568  0.4700
 9780TIP3    H150831   2.004   1.128  12.797  0.7541  0.2755  0.6565
 9780TIP3    H250832   2.064   0.998  12.845  0.2627  0.8104  2.7880
 9781TIP3   OH250833   3.819   5.161  15.076 -0.2732  0.2975  0.4789
 9781TIP3    H150834   3.753   5.150  15.145  1.3415  0.7809  2.1900
 9781TIP3    H250835   3.902   5.169  15.123  0.5776  4.2231 -1.2431
 9782TIP3   OH250836   1.031   4.134   3.099  0.5552  0.1121 -0.4661
 9782TIP3    H150837   0.968   4.186   3.049  0.2395 -0.2301 -0.4348
 9782TIP3    H250838   1.104   4.120   3.039  2.9726  4.6570  0.9550
 9783TIP3   OH250839   5.990   2.745   3.312  0.0426  0.4077 -0.2699
 9783TIP3    H150840   5.991   2.695   3.231  0.9782 -1.0805  0.6072
 9783TIP3    H250841   5.952   2.686   3.377 -0.7273  1.5816  0.3969
 9784TIP3   OH250842   6.249   4.187  17.027  0.4160  0.2942 -1.1962
 9784TIP3    H150843   6.246   4.110  16.970 -1.1270 -0.5990 -0.0058
 9784TIP3    H250844   6.183   4.169  17.093  0.6129  2.3028 -0.4056
 9785TIP3   OH250845   5.585   4.719  16.455 -0.0255  0.3498  0.1516
 9785TIP3    H150846   5.607   4.646  16.514 -0.2363 -0.9185 -1.2941
 9785TIP3    H250847   5.509   4.689  16.407  1.4855  0.3511 -2.4330
 9786TIP3   OH250848   3.714   4.824  16.083  0.2739  0.1206 -0.0531
 9786TIP3    H150849   3.704   4.812  15.989 -0.2823  1.2274 -0.1474
 9786TIP3    H250850   3.648   4.889  16.106  1.1419  0.6885  0.9194
 9787TIP3   OH250851   3.129   5.663   5.514 -0.8400  0.2553  0.7253
 9787TIP3    H150852   3.176   5.735   5.471 -1.3238 -0.0809 -0.4122
 9787TIP3    H250853   3.157   5.667   5.605 -0.6830  1.7413  0.6382
 9788TIP3   OH250854   4.795   2.505   4.629  0.1847 -0.4150  0.3067
 9788TIP3    H150855   4.871   2.448   4.638  0.2611 -0.4122 -0.3301
 9788TIP3    H250856   4.721   2.445   4.621  0.3077 -0.4311 -0.7499
 9789TIP3   OH250857   0.915   2.273  16.435  0.5257  0.4092 -0.7772
 9789TIP3    H150858   0.925   2.298  16.343  2.9056  1.8641 -0.2268
 9789TIP3    H250859   0.960   2.189  16.442 -0.5118 -0.1811 -1.1156
 9790TIP3   OH250860   4.977   0.211  12.175 -0.6138 -0.7138  0.0211
 9790TIP3    H150861   5.016   0.253  12.098  1.6776 -1.9962  0.3807
 9790TIP3    H250862   4.970   0.119  12.151 -3.8602 -0.5493 -0.1014
 9791TIP3   OH250863   1.445   6.533   5.093 -0.4298 -0.5143  0.1282
 9791TIP3    H150864   1.538   6.518   5.076 -0.3415  0.5544 -0.3733
 9791TIP3    H250865   1.440   6.625   5.117 -1.6190 -0.0287 -1.8016
 9792TIP3   OH250866   6.068   4.556  16.596 -0.2488 -0.0517  0.1066
 9792TIP3    H150867   6.038   4.535  16.508  0.6771  0.6946 -0.4132
 9792TIP3    H250868   6.100   4.473  16.631 -0.3376 -0.2953 -0.3811
 9793TIP3   OH250869   5.411   3.734  17.115 -0.2553  0.3483  0.0901
 9793TIP3    H150870   5.455   3.674  17.055 -2.7330 -0.5536 -0.9280
 9793TIP3    H250871   5.399   3.683  17.195 -1.8503 -0.3822 -0.5806
 9794TIP3   OH250872   3.620   2.427  13.429  0.1681  0.5188 -0.0934
 9794TIP3    H150873   3.533   2.465  13.429  0.2932  0.8351  0.9560
 9794TIP3    H250874   3.629   2.386  13.515  1.9312  2.6078  0.8356
 9795TIP3   OH250875   4.281   2.837   5.534  0.2866  0.1353  0.6863
 9795TIP3    H150876   4.333   2.881   5.601 -0.7823  2.2871  0.1985
 9795TIP3    H250877   4.321   2.750   5.525  1.9194  0.6536  2.3799
 9796TIP3   OH250878   2.299   0.973  13.213  0.3776  0.6606  0.1943
 9796TIP3    H150879   2.314   0.985  13.307 -0.0680  0.4892  0.2913
 9796TIP3    H250880   2.294   1.061  13.178  2.9085  0.7558 -0.0723
 9797TIP3   OH250881   6.243   3.240   5.581 -0.4578  0.4768 -0.0732
 9797TIP3    H150882   6.181   3.313   5.577  2.4240  3.0567 -2.0506
 9797TIP3    H250883   6.307   3.266   5.648  2.3784  1.5261 -2.9286
 9798TIP3   OH250884   0.422   5.446   5.335 -0.9368 -0.0926 -0.4587
 9798TIP3    H150885   0.356   5.389   5.297 -0.9778  0.1764 -0.7963
 9798TIP3    H250886   0.373   5.521   5.368 -0.5591  1.6450 -3.5082
 9799TIP3   OH250887   0.081   5.231  11.773 -0.5222  0.1500  0.6588
 9799TIP3    H150888   0.154   5.192  11.821 -0.2053  2.1777  1.9156
 9799TIP3    H250889   0.069   5.317  11.813 -2.3068  0.6654 -0.8633
 9800TIP3   OH250890   5.736   3.567  12.961  0.4408 -0.4877 -0.4061
 9800TIP3    H150891   5.748   3.474  12.979  0.7807 -0.2925  0.4116
 9800TIP3    H250892   5.809   3.590  12.903  1.5879 -0.2804  1.0608
 9801TIP3   OH250893   3.400   5.029   1.152 -0.2551 -0.0916 -0.0057
 9801TIP3    H150894   3.320   5.073   1.125 -0.9136 -0.6622  0.9624
 9801TIP3    H250895   3.470   5.086   1.121 -1.0444  0.8101 -0.1845
 9802TIP3   OH250896   6.719   6.501  10.636 -0.0197 -0.5203  0.0062
 9802TIP3    H150897   6.767   6.451  10.701 -0.4075  1.0472  1.5549
 9802TIP3    H250898   6.704   6.439  10.565  2.7061 -1.5594  0.2160
 9803TIP3   OH250899   6.635   1.103   4.745 -0.6488  0.1179  0.0995
 9803TIP3    H150900   6.676   1.075   4.827 -3.2588 -1.4323  1.0294
 9803TIP3    H250901   6.554   1.051   4.741  0.2169 -1.3286 -4.4205
 9804TIP3   OH250902   0.886   6.057   4.123 -0.0902  0.4580 -0.1541
 9804TIP3    H150903   0.944   6.048   4.198  0.6181  0.0557 -0.7435
 9804TIP3    H250904   0.934   6.113   4.062  0.9017 -1.9936 -1.7927
 9805TIP3   OH250905   5.845   5.133   5.270 -0.6244 -0.6272 -0.1678
 9805TIP3    H150906   5.848   5.168   5.181 -0.7953 -0.8698 -0.2709
 9805TIP3    H250907   5.810   5.204   5.323  1.1767  0.1834  0.0316
 9806TIP3   OH250908   1.614   2.006   3.987  0.1417 -0.4689  0.4644
 9806TIP3    H150909   1.704   2.000   3.956  0.6522  1.4314  1.4267
 9806TIP3    H250910   1.616   2.076   4.053 -2.1840  0.1839 -0.0710
 9807TIP3   OH250911   5.201   2.640   1.103 -0.5059 -0.6290 -0.1850
 9807TIP3    H150912   5.259   2.564   1.106  0.6208  0.2098  0.2248
 9807TIP3    H250913   5.128   2.617   1.160 -0.8666 -1.9221 -1.1430
 9808TIP3   OH250914   2.655   6.724  16.750 -0.9906  0.3495  0.3436
 9808TIP3    H150915   2.703   6.680  16.819 -1.0792 -1.4046 -0.6561
 9808TIP3    H250916   2.564   6.725  16.780 -0.8474  0.7157  0.7778
 9809TIP3   OH250917   1.599   5.211  13.907 -0.0881  0.1907  0.5591
 9809TIP3    H150918   1.540   5.191  13.835  0.8196 -1.6930  0.2902
 9809TIP3    H250919   1.642   5.293  13.881 -2.7954  1.8683  0.9641
 9810TIP3   OH250920   2.801   1.077   3.107  0.3531 -0.0992 -0.3533
 9810TIP3    H150921   2.821   1.045   3.019  0.5435 -2.2526  0.4102
 9810TIP3    H250922   2.744   1.153   3.093 -1.1824 -1.5071 -2.3194
 9811TIP3   OH250923   6.070   6.300   3.853  0.0523 -0.0246 -0.1911
 9811TIP3    H150924   5.992   6.247   3.835  1.5176 -1.3634 -3.3569
 9811TIP3    H250925   6.136   6.238   3.882  1.0936  0.3826 -1.5884
 9812TIP3   OH250926   3.032   4.697   0.701 -0.3166  0.3072  0.4157
 9812TIP3    H150927   3.104   4.697   0.764 -1.3469 -0.4990  1.6397
 9812TIP3    H250928   3.059   4.634   0.634  0.5636  0.7954  0.2866
 9813TIP3   OH250929   0.132   2.757  13.928  0.1806 -1.0616 -0.3351
 9813TIP3    H150930   0.195   2.746  13.856  0.0726 -0.3167 -0.5548
 9813TIP3    H250931   0.137   2.850  13.949  0.5409 -1.3524  0.9309
 9814TIP3   OH250932   1.416   6.279  10.433  0.1629 -0.4279  0.6325
 9814TIP3    H150933   1.477   6.232  10.376  0.0268  0.3840 -0.2119
 9814TIP3    H250934   1.473   6.328  10.493  0.3124 -0.9795  0.9454
 9815TIP3   OH250935   0.028   5.800  14.810  0.0248  0.6037  0.4379
 9815TIP3    H150936  -0.040   5.740  14.780  2.3599 -1.1806 -1.6546
 9815TIP3    H250937  -0.020   5.880  14.835 -2.7559 -0.3695 -1.3430
 9816TIP3   OH250938   6.282   6.272  12.181  0.4144 -0.1589 -0.3162
 9816TIP3    H150939   6.271   6.336  12.110 -0.6583  0.5469  0.4612
 9816TIP3    H250940   6.315   6.324  12.255 -1.7470 -0.1856  0.7397
 9817TIP3   OH250941   4.064   6.284   0.465  0.2599  0.0101  0.5713
 9817TIP3    H150942   4.145   6.247   0.430 -0.9909  0.6049 -3.5004
 9817TIP3    H250943   4.082   6.378   0.471  0.3922 -0.0615  1.4602
 9818TIP3   OH250944   6.263   3.103   2.755  0.3517  0.0663 -0.2413
 9818TIP3    H150945   6.346   3.088   2.801  0.6070 -0.9409 -1.0046
 9818TIP3    H250946   6.277   3.186   2.709  0.2800  0.8198  1.0405
 9819TIP3   OH250947   0.161   0.481  12.677 -0.4917 -0.0498  0.3015
 9819TIP3    H150948   0.256   0.492  12.676 -0.5389  0.8122 -2.1784
 9819TIP3    H250949   0.138   0.466  12.585 -2.8667  0.8274  0.6878
 9820TIP3   OH250950   1.359   6.087  16.921  0.1809 -0.3840 -0.7665
 9820TIP3    H150951   1.433   6.134  16.960 -1.1031 -0.5664  2.1211
 9820TIP3    H250952   1.310   6.154  16.873  0.7081  0.3232 -0.3398
 9821TIP3   OH250953   2.094   6.418  13.707  0.1539 -0.1666 -0.0863
 9821TIP3    H150954   2.139   6.403  13.624 -1.1449  0.0904 -0.8602
 9821TIP3    H250955   2.002   6.404  13.687 -0.2936  1.0189  1.0385
 9822TIP3   OH250956   0.084   5.086   4.175 -0.0746 -0.3443 -0.3139
 9822TIP3    H150957   0.057   5.000   4.209 -1.5107  0.3452  0.3959
 9822TIP3    H250958   0.002   5.128   4.149 -0.0875  2.5766  3.5490
 9823TIP3   OH250959   0.887   6.732  13.910  0.2273  0.7498 -0.2611
 9823TIP3    H150960   0.833   6.811  13.918 -1.9512 -0.7780  1.4351
 9823TIP3    H250961   0.867   6.699  13.822  1.2263  2.0440 -1.0259
 9824TIP3   OH250962   1.069   4.381  16.792  0.3750 -0.0024 -0.2501
 9824TIP3    H150963   1.123   4.321  16.843 -0.5728 -0.7386 -0.0830
 9824TIP3    H250964   0.980   4.368  16.827 -0.2323 -0.2550 -1.8280
 9825TIP3   OH250965   3.071   4.318  13.885  0.4441  0.1324  0.1763
 9825TIP3    H150966   3.134   4.362  13.942 -0.4689  1.3227  0.3257
 9825TIP3    H250967   2.999   4.293  13.944  0.5860 -0.8474 -0.0544
 9826TIP3   OH250968   0.496   4.794  16.658 -0.2201  0.1741  0.0521
 9826TIP3    H150969   0.580   4.835  16.679 -0.4692  0.9157 -0.3668
 9826TIP3    H250970   0.519   4.723  16.598  0.0051  1.0658 -0.9383
 9827TIP3   OH250971   6.458   1.835  15.680  0.3109 -0.3635  0.1064
 9827TIP3    H150972   6.522   1.790  15.625 -1.1304 -1.9445 -0.3347
 9827TIP3    H250973   6.377   1.787  15.667 -1.2584  2.1791 -0.1216
 9828TIP3   OH250974   5.243   3.145   2.330 -0.3097 -0.0471 -0.1603
 9828TIP3    H150975   5.242   3.241   2.323 -1.0714 -0.1158 -1.2498
 9828TIP3    H250976   5.150   3.121   2.328 -0.1504 -0.7753  0.7462
 9829TIP3   OH250977   2.480   3.045   5.339  0.3514 -0.7026  0.5509
 9829TIP3    H150978   2.511   3.083   5.257  0.6978 -0.6905  0.6842
 9829TIP3    H250979   2.386   3.063   5.340  0.6734  1.1587  1.1243
 9830TIP3   OH250980   4.158   5.794  10.506 -0.5372 -0.0107  0.4566
 9830TIP3    H150981   4.138   5.701  10.516  1.7592 -0.4567  1.4100
 9830TIP3    H250982   4.098   5.838  10.566  1.2727 -1.3048  3.4386
 9831TIP3   OH250983   5.137   0.343  11.983  0.2084  0.1365 -0.1331
 9831TIP3    H150984   5.143   0.317  11.891  1.7649  3.1840 -1.0582
 9831TIP3    H250985   5.228   0.353  12.011 -0.2232 -1.0705  1.9192
 9832TIP3   OH250986   3.589   4.345   2.852 -0.1684  0.5594 -0.0981
 9832TIP3    H150987   3.659   4.323   2.914 -0.6848 -1.1290 -0.0448
 9832TIP3    H250988   3.510   4.348   2.905 -0.2485  1.8474 -0.2592
 9833TIP3   OH250989   2.908   3.696  13.712 -0.4967 -0.0974 -0.5284
 9833TIP3    H150990   2.853   3.633  13.665  0.3649  0.3752 -2.2535
 9833TIP3    H250991   2.889   3.680  13.804 -1.6212 -1.6605 -0.9844
 9834TIP3   OH250992   1.116   2.838  13.916 -0.3240 -0.1648  0.1312
 9834TIP3    H150993   1.031   2.835  13.960 -0.9603 -0.8602 -1.0786
 9834TIP3    H250994   1.143   2.746  13.911  0.6479  0.0750  0.7537
 9835TIP3   OH250995   3.847   4.793   4.985 -0.6968 -0.1907 -0.5808
 9835TIP3    H150996   3.919   4.731   4.998 -1.2631 -0.6934  0.2352
 9835TIP3    H250997   3.777   4.759   5.039 -2.1022 -0.5990 -2.5355
 9836TIP3   OH250998   6.616   4.878  11.091  0.7958 -0.4193 -0.6335
 9836TIP3    H150999   6.613   4.869  10.996  0.2769 -1.2281 -0.5517
 9836TIP3    H251000   6.607   4.972  11.106 -1.4750 -0.4609 -1.3297
 9837TIP3   OH251001   4.770   0.648   3.166 -0.0487  0.4755 -0.3477
 9837TIP3    H151002   4.736   0.696   3.242  0.9504 -0.0111  0.4099
 9837TIP3    H251003   4.706   0.667   3.097 -0.4112  1.7825  0.3099
 9838TIP3   OH251004   1.337   6.474  11.349 -0.3297  0.3690  0.5759
 9838TIP3    H151005   1.381   6.396  11.381  0.1448  0.1800 -0.4976
 9838TIP3    H251006   1.329   6.530  11.426  1.3463  0.1968  0.9129
 9839TIP3   OH251007   3.029   1.548  15.211 -0.4133 -0.5740  0.4067
 9839TIP3    H151008   3.029   1.486  15.284 -1.4023  0.4859  1.3521
 9839TIP3    H251009   2.944   1.592  15.217  0.8136  1.9400  0.7348
 9840TIP3   OH251010   0.428   0.924   0.424  0.7933  0.1501 -0.2920
 9840TIP3    H151011   0.437   0.965   0.338 -1.3747  0.8319 -0.2656
 9840TIP3    H251012   0.480   0.978   0.483  1.3187  0.3841 -0.9657
 9841TIP3   OH251013   4.215   1.269   3.168  0.2198  0.0483 -0.8711
 9841TIP3    H151014   4.142   1.221   3.207 -0.0323  0.4817 -0.7951
 9841TIP3    H251015   4.283   1.203   3.155  0.1319 -0.1998 -0.1410
 9842TIP3   OH251016   2.461   6.388   5.803 -0.6140 -0.2940  0.6014
 9842TIP3    H151017   2.525   6.451   5.836  0.1519 -0.9696  0.4638
 9842TIP3    H251018   2.515   6.314   5.773 -1.4178 -0.5562 -0.2357
 9843TIP3   OH251019   0.040   1.553  11.898 -0.5081  0.4642 -0.1388
 9843TIP3    H151020   0.061   1.645  11.910 -1.3916  0.6292  0.2000
 9843TIP3    H251021   0.125   1.509  11.900  0.0761  1.4089 -1.8149
 9844TIP3   OH251022   0.920   1.653  12.849  0.1128 -0.0812 -0.5958
 9844TIP3    H151023   0.884   1.567  12.868 -0.1211 -0.0158 -0.7347
 9844TIP3    H251024   0.931   1.694  12.935  1.3286 -0.6829 -0.4472
 9845TIP3   OH251025   4.959   2.814  12.630 -0.4678 -0.0837  0.3685
 9845TIP3    H151026   5.005   2.891  12.597  1.3331 -1.5603 -0.7409
 9845TIP3    H251027   4.868   2.828  12.605  0.2427  0.5574 -2.0688
 9846TIP3   OH251028   1.497   3.420  16.223  0.0890  0.0553 -0.8392
 9846TIP3    H151029   1.553   3.491  16.192  0.1893  0.0912 -0.5815
 9846TIP3    H251030   1.451   3.457  16.298 -0.2222  0.0008 -1.0041
 9847TIP3   OH251031   1.511   4.762  10.414  0.2339  0.0110 -0.2611
 9847TIP3    H151032   1.586   4.705  10.429  0.1511 -0.5019 -1.6762
 9847TIP3    H251033   1.530   4.841  10.466  0.1683 -1.3981  2.0710
 9848TIP3   OH251034   5.190   4.579  11.087 -0.3321  0.5102  0.1464
 9848TIP3    H151035   5.205   4.638  11.162  0.6090  1.6842 -0.9347
 9848TIP3    H251036   5.277   4.550  11.061 -0.5250  1.1416 -1.2896
 9849TIP3   OH251037   4.544   4.277  11.462  0.6429 -0.4073  0.5615
 9849TIP3    H151038   4.633   4.256  11.487 -0.1540 -2.9972  1.4772
 9849TIP3    H251039   4.553   4.348  11.398  3.4347 -1.7302 -0.6287
 9850TIP3   OH251040   3.549   5.264   1.549  1.2238  0.3855  0.4969
 9850TIP3    H151041   3.463   5.288   1.582  0.9191 -1.1734  0.9074
 9850TIP3    H251042   3.595   5.228   1.625  2.9487  2.8583  0.7445
 9851TIP3   OH251043   3.375   3.079   4.513 -0.1259 -0.2414 -0.4909
 9851TIP3    H151044   3.307   3.136   4.478  1.3288  1.1113 -1.2367
 9851TIP3    H251045   3.400   3.120   4.596  0.7347  0.0928 -0.8991
 9852TIP3   OH251046   0.948   4.568  16.187  0.3510  0.1346 -0.7698
 9852TIP3    H151047   0.974   4.633  16.253 -0.6762 -1.3696  1.2036
 9852TIP3    H251048   0.860   4.595  16.160  0.3720  0.1968 -0.7755
 9853TIP3   OH251049   5.374   4.497  12.333  0.0650  0.3219  0.2384
 9853TIP3    H151050   5.412   4.437  12.268 -0.5400  1.4094 -1.1709
 9853TIP3    H251051   5.286   4.514  12.301 -0.9587 -0.5867  2.3964
 9854TIP3   OH251052   2.977   2.091   0.615 -0.3773  0.4316  0.3791
 9854TIP3    H151053   2.887   2.106   0.642 -1.1463 -1.5495 -0.8522
 9854TIP3    H251054   3.030   2.120   0.689 -1.9476  2.4194  0.8069
 9855TIP3   OH251055   0.475   0.982  12.291 -0.0689  0.1530 -0.2870
 9855TIP3    H151056   0.526   0.902  12.297  3.0126  1.9987  0.7524
 9855TIP3    H251057   0.416   0.979  12.366  1.7476 -0.1176  1.1926
 9856TIP3   OH251058   6.344   0.605  12.585 -0.0982 -0.0003 -0.1283
 9856TIP3    H151059   6.364   0.520  12.544 -1.2118  0.6663 -2.2311
 9856TIP3    H251060   6.395   0.668  12.535 -1.6656  0.8792 -0.6933
 9857TIP3   OH251061   0.542   0.523   5.886  0.0369 -0.2551  0.2777
 9857TIP3    H151062   0.536   0.607   5.931 -0.8169 -1.8759  3.4063
 9857TIP3    H251063   0.600   0.470   5.940  0.2473 -1.8494 -1.4022
 9858TIP3   OH251064   3.276   0.557  15.672 -0.4816  0.3809 -0.0314
 9858TIP3    H151065   3.235   0.613  15.607  0.4092 -0.6654 -1.5473
 9858TIP3    H251066   3.325   0.617  15.729 -1.3342  1.3135 -0.2718
 9859TIP3   OH251067   2.912   2.180  16.200  0.4418  0.5775  0.3637
 9859TIP3    H151068   2.984   2.216  16.253  1.2199  0.1159 -0.3544
 9859TIP3    H251069   2.880   2.105  16.250 -0.9011  1.9438  1.6620
 9860TIP3   OH251070   6.125   3.239  17.078 -0.5899 -0.7821  0.2729
 9860TIP3    H151071   6.198   3.178  17.088  1.7327  1.8941  1.0110
 9860TIP3    H251072   6.080   3.238  17.162 -0.2462 -1.1109  0.4540
 9861TIP3   OH251073   3.508   4.509   6.569 -0.2862  0.0059  0.3297
 9861TIP3    H151074   3.498   4.596   6.608 -0.4906  0.5046 -0.8040
 9861TIP3    H251075   3.579   4.468   6.619 -0.5038  0.6441  1.1727
 9862TIP3   OH251076   6.294   4.747   2.544 -0.4345 -0.8773 -0.3415
 9862TIP3    H151077   6.205   4.745   2.510 -0.0806 -0.5186 -1.3216
 9862TIP3    H251078   6.347   4.706   2.476  0.3353  0.1784 -0.4118
 9863TIP3   OH251079   6.801   5.293   2.505  0.0217  0.2370 -0.4252
 9863TIP3    H151080   6.787   5.218   2.563  0.4094  1.3870  1.2426
 9863TIP3    H251081   6.863   5.261   2.439 -0.3392 -1.0874 -0.1509
 9864TIP3   OH251082   4.650   5.828  16.881 -0.4058 -0.5015  0.0019
 9864TIP3    H151083   4.594   5.899  16.847  0.3357 -0.3874 -1.0470
 9864TIP3    H251084   4.738   5.850  16.850  0.3400 -0.4222  2.0312
 9865TIP3   OH251085   1.092   6.586   1.895 -0.4908 -0.4283 -0.0806
 9865TIP3    H151086   1.104   6.492   1.879  1.2440 -0.4914  1.1992
 9865TIP3    H251087   1.169   6.627   1.856 -0.3488  0.2556  0.8710
 9866TIP3   OH251088   3.488   1.893  14.903  0.0363 -0.3713 -0.1709
 9866TIP3    H151089   3.483   1.799  14.885 -0.0507 -0.2081 -1.0463
 9866TIP3    H251090   3.397   1.918  14.922 -0.0242 -0.3541 -0.4917
 9867TIP3   OH251091   1.966   2.143  16.392  0.1229 -0.0264  0.0874
 9867TIP3    H151092   1.926   2.131  16.306 -1.1535  0.4242  0.5942
 9867TIP3    H251093   2.054   2.176  16.374  0.0929 -0.5289 -1.0454
 9868TIP3   OH251094   6.346   1.147  13.186  0.3785 -0.3214  0.1794
 9868TIP3    H151095   6.423   1.094  13.166  1.0813  1.5454 -2.6345
 9868TIP3    H251096   6.309   1.169  13.100 -0.5331  2.7591  1.2308
 9869TIP3   OH251097   2.523   0.934  12.678 -0.2233 -0.2085 -0.1064
 9869TIP3    H151098   2.612   0.917  12.646 -1.1593 -0.3944 -2.9155
 9869TIP3    H251099   2.472   0.860  12.646 -1.7975  1.0468 -0.6378
 9870TIP3   OH251100   1.895   4.983  11.141 -0.4002  0.3943 -0.4182
 9870TIP3    H151101   1.830   4.929  11.096  0.1579  0.0046 -0.7700
 9870TIP3    H251102   1.968   4.924  11.157  0.1147  0.9871 -0.5667
 9871TIP3   OH251103   6.240   4.679   1.018  0.3602  0.1358 -0.0399
 9871TIP3    H151104   6.293   4.758   1.032  0.6194  0.3165 -1.8245
 9871TIP3    H251105   6.303   4.611   0.996 -0.0059 -0.0938 -0.3863
 9872TIP3   OH251106   1.919   1.094  13.967  0.2058 -0.3005 -0.1011
 9872TIP3    H151107   2.004   1.135  13.950  1.3499 -2.4995 -0.0046
 9872TIP3    H251108   1.911   1.095  14.063 -0.6486  1.2821 -0.1508
 9873TIP3   OH251109   2.200   3.338   5.132  0.2404 -0.2642 -0.6069
 9873TIP3    H151110   2.172   3.247   5.120 -1.5247  0.3816 -1.7991
 9873TIP3    H251111   2.296   3.334   5.137  0.2685 -2.0613 -1.8370
 9874TIP3   OH251112   6.401   5.750   3.363 -0.0942 -0.3036 -0.5964
 9874TIP3    H151113   6.463   5.791   3.422 -0.0261  2.2535 -2.2980
 9874TIP3    H251114   6.455   5.695   3.306  0.7529  1.9945 -2.1398
 9875TIP3   OH251115   6.149   3.033   2.209 -0.0580  0.5978 -0.2487
 9875TIP3    H151116   6.077   2.970   2.205  0.8875 -0.4267 -2.4743
 9875TIP3    H251117   6.223   2.983   2.243  0.9557  0.1426 -2.9168
 9876TIP3   OH251118   2.596   3.959  11.581 -0.4876 -0.1004 -0.1117
 9876TIP3    H151119   2.595   3.864  11.596  0.5217 -0.1074  0.0114
 9876TIP3    H251120   2.553   3.970  11.496 -0.0007 -0.7487 -0.4583
 9877TIP3   OH251121   2.253   4.628   0.982 -0.5173  0.0389  0.0074
 9877TIP3    H151122   2.205   4.603   0.904  0.6655 -0.9968 -0.4184
 9877TIP3    H251123   2.345   4.625   0.957 -0.1650  1.2909  0.9940
 9878TIP3   OH251124   5.678   0.329  11.025 -0.5915 -0.0487  0.2615
 9878TIP3    H151125   5.697   0.378  11.105  0.4468  0.9999 -0.5988
 9878TIP3    H251126   5.745   0.357  10.963 -1.5189 -0.6569 -1.0620
 9879TIP3   OH251127   4.139   0.395   2.732  0.1897 -0.5025 -0.3336
 9879TIP3    H151128   4.197   0.323   2.755 -0.9390 -1.3268  0.0464
 9879TIP3    H251129   4.081   0.360   2.664 -0.9126 -0.2551  0.4355
 9880TIP3   OH251130   3.210   1.308   1.852 -0.3485 -0.3864  1.0120
 9880TIP3    H151131   3.201   1.217   1.825 -0.3021 -0.0308 -0.2971
 9880TIP3    H251132   3.222   1.304   1.947 -1.5965 -1.6519  1.1576
 9881TIP3   OH251133   3.451   2.295   6.000 -0.0421  0.4534  0.0022
 9881TIP3    H151134   3.399   2.215   5.996  0.4593 -0.0053  1.6542
 9881TIP3    H251135   3.501   2.296   5.919 -1.1045 -0.1602 -0.6773
 9882TIP3   OH251136   4.277   4.932   5.750 -0.2713  0.4990  0.3481
 9882TIP3    H151137   4.191   4.972   5.761 -0.0096  0.8950  1.0270
 9882TIP3    H251138   4.337   4.993   5.793  0.1869 -0.4026  1.0047
 9883TIP3   OH251139   3.413   6.162   1.179 -0.3590 -0.1699 -0.2304
 9883TIP3    H151140   3.434   6.140   1.088  2.5944 -0.3792  0.3802
 9883TIP3    H251141   3.477   6.112   1.231 -1.8389  0.0565  1.9806
 9884TIP3   OH251142   0.526   1.551   6.339  0.4004 -0.0692  1.0620
 9884TIP3    H151143   0.460   1.518   6.401 -0.4295  0.1039  0.2851
 9884TIP3    H251144   0.576   1.473   6.315 -1.1364 -0.7028 -0.2565
 9885TIP3   OH251145   5.746   4.923  12.395 -0.1452 -0.3711 -0.2405
 9885TIP3    H151146   5.713   4.907  12.484 -0.3915 -0.1053 -0.2817
 9885TIP3    H251147   5.841   4.918  12.403 -0.1910 -1.9009 -0.2600
 9886TIP3   OH251148   4.584   4.503  14.153  0.2305 -0.3440  0.0394
 9886TIP3    H151149   4.591   4.421  14.105 -1.4416  0.5044 -1.8186
 9886TIP3    H251150   4.491   4.509  14.178 -0.2237  1.9191 -1.8162
 9887TIP3   OH251151   1.721   0.344   0.090 -0.5018 -0.0798 -0.0326
 9887TIP3    H151152   1.672   0.280   0.142 -1.1504 -1.6862 -2.4623
 9887TIP3    H251153   1.734   0.418   0.149 -3.6896 -0.5909  1.5044
 9888TIP3   OH251154   5.499   0.241   1.514 -0.0279 -0.4131  0.2256
 9888TIP3    H151155   5.589   0.219   1.537  0.8769  0.9929 -1.7858
 9888TIP3    H251156   5.460   0.157   1.490  0.3624 -1.2012  2.1136
 9889TIP3   OH251157   3.104   5.099  11.278  0.2028 -0.4064  0.0996
 9889TIP3    H151158   3.142   5.142  11.355  0.8205 -0.5768 -0.1018
 9889TIP3    H251159   3.009   5.104  11.292  0.1964  1.9491 -0.4403
 9890TIP3   OH251160   4.864   2.259   3.997  0.6715 -0.0260 -0.0461
 9890TIP3    H151161   4.808   2.320   4.046  1.3375 -0.4782  1.3368
 9890TIP3    H251162   4.952   2.296   4.005  1.1436 -1.3151  1.1156
 9891TIP3   OH251163   6.459   4.255   0.065 -0.4588 -0.3138 -0.1447
 9891TIP3    H151164   6.516   4.316   0.018 -1.7691  0.6639 -0.5382
 9891TIP3    H251165   6.404   4.215  -0.003 -0.2454 -1.2564  0.2187
 9892TIP3   OH251166   0.203   5.805  15.034  0.7022  0.2233  0.5597
 9892TIP3    H151167   0.162   5.812  14.948 -0.1817  0.5340  0.9874
 9892TIP3    H251168   0.207   5.711  15.052 -0.6036  0.2099  0.8566
 9893TIP3   OH251169   2.520   4.420  16.252  0.6821 -0.3205 -0.5084
 9893TIP3    H151170   2.470   4.440  16.173 -3.0495 -3.5983  0.6978
 9893TIP3    H251171   2.552   4.331  16.239  0.9852 -0.4998  1.1990
 9894TIP3   OH251172   5.752   2.293   2.813  0.4372  0.2703  0.1885
 9894TIP3    H151173   5.697   2.240   2.754  1.1767 -0.4709  0.1455
 9894TIP3    H251174   5.839   2.288   2.774  1.0597 -0.6882  1.6201
 9895TIP3   OH251175   0.159   5.720   5.389 -0.3604 -0.2609 -0.0350
 9895TIP3    H151176   0.190   5.725   5.298 -0.8019  0.3879 -0.1583
 9895TIP3    H251177   0.066   5.703   5.382 -0.2398 -1.1039  0.3191
 9896TIP3   OH251178   1.495   1.191  14.450 -0.4131  0.4874  0.1803
 9896TIP3    H151179   1.418   1.135  14.462  0.5146 -1.1686 -1.0241
 9896TIP3    H251180   1.566   1.142  14.491  0.5810  0.3207 -1.6026
 9897TIP3   OH251181   4.816   3.365   3.615 -0.5997  0.0553  0.0618
 9897TIP3    H151182   4.827   3.451   3.573  0.1826  0.4432  1.0236
 9897TIP3    H251183   4.904   3.330   3.621 -0.6539  0.1379  1.6280
 9898TIP3   OH251184   4.612   5.801   2.531  0.4115 -0.1095 -0.5587
 9898TIP3    H151185   4.583   5.891   2.542  1.0604 -0.0860  1.4357
 9898TIP3    H251186   4.614   5.787   2.437 -2.4133  1.0482 -0.8831
 9899TIP3   OH251187   4.185   1.422  14.941  0.2709 -0.1991 -0.3244
 9899TIP3    H151188   4.252   1.391  14.879 -0.2995 -0.4035 -0.8443
 9899TIP3    H251189   4.105   1.377  14.915 -0.3883  1.0545 -0.5638
 9900TIP3   OH251190   5.430   0.602  12.449  0.2366 -0.6616 -0.2791
 9900TIP3    H151191   5.345   0.560  12.464  0.5544 -1.5417 -0.8344
 9900TIP3    H251192   5.413   0.695  12.459 -0.4212 -0.9272  1.3893
 9901TIP3   OH251193   5.189   5.555   0.805  0.3838  0.0015  0.5271
 9901TIP3    H151194   5.197   5.615   0.730  2.3700  0.5992  1.1531
 9901TIP3    H251195   5.124   5.597   0.862 -1.1228 -0.4433 -0.7952
 9902TIP3   OH251196   4.245   5.921   1.472 -0.1276  0.1692 -0.3159
 9902TIP3    H151197   4.302   5.992   1.444 -0.1295 -0.1313 -1.1127
 9902TIP3    H251198   4.294   5.876   1.541  0.7403 -0.2645 -1.1862
 9903TIP3   OH251199   4.311   0.412   4.684  0.0664 -0.0266  0.4492
 9903TIP3    H151200   4.239   0.358   4.653  0.8637 -0.5973 -0.4673
 9903TIP3    H251201   4.312   0.487   4.625 -0.1687  0.2967  0.8549
 9904TIP3   OH251202   6.142   2.605   1.115 -0.5584  0.4027  0.6862
 9904TIP3    H151203   6.072   2.665   1.088 -1.0350 -0.1831  0.6030
 9904TIP3    H251204   6.222   2.655   1.103 -0.6980  0.0862 -2.0904
 9905TIP3   OH251205   3.053   0.899  12.447  0.2493  0.1304  0.1741
 9905TIP3    H151206   3.092   0.944  12.372 -0.7048 -0.7795 -0.8964
 9905TIP3    H251207   3.112   0.826  12.465  0.0250 -0.1637 -0.2651
 9906TIP3   OH251208   5.542   2.392  16.009  0.1436 -0.6994 -0.1872
 9906TIP3    H151209   5.535   2.313  16.063 -1.3032 -0.4129  0.0953
 9906TIP3    H251210   5.571   2.360  15.924  0.1641 -1.4682  0.0956
 9907TIP3   OH251211   3.777   0.148   5.696 -0.1475 -0.2774  0.0553
 9907TIP3    H151212   3.759   0.055   5.681 -0.5666 -0.0141 -1.1633
 9907TIP3    H251213   3.721   0.171   5.770 -0.1074 -0.9742  0.3073
 9908TIP3   OH251214   0.940   4.876  15.326 -0.4429 -0.4773  0.5146
 9908TIP3    H151215   0.973   4.855  15.239  0.0649 -0.1964  0.6348
 9908TIP3    H251216   1.009   4.846  15.386 -0.4047  0.1049  0.7694
 9909TIP3   OH251217   6.382   3.372  11.286 -0.1558 -0.5416 -0.2257
 9909TIP3    H151218   6.360   3.424  11.364  0.0984 -0.9475  0.1208
 9909TIP3    H251219   6.455   3.316  11.314 -1.2889 -2.0519 -0.2034
 9910TIP3   OH251220   2.113   1.784   2.428  0.0127 -0.4109  0.1985
 9910TIP3    H151221   2.188   1.724   2.432  2.2647  2.1753 -0.5562
 9910TIP3    H251222   2.140   1.860   2.479 -2.3104  0.4869  0.2123
 9911TIP3   OH251223   5.127   2.136   4.306 -0.2643  0.0382 -0.2688
 9911TIP3    H151224   5.172   2.209   4.263 -0.5793  0.7514  0.5844
 9911TIP3    H251225   5.182   2.114   4.381 -0.5775 -0.0621 -0.0657
 9912TIP3   OH251226   1.168   1.139  16.869  0.3509 -0.1565 -0.3155
 9912TIP3    H151227   1.112   1.201  16.822  0.8575 -0.2333 -1.0490
 9912TIP3    H251228   1.214   1.092  16.800  1.0225 -0.3678  0.2633
 9913TIP3   OH251229   4.857   3.725   2.666 -0.4815 -0.5783 -0.1388
 9913TIP3    H151230   4.868   3.630   2.661 -1.9600 -0.8239  0.7662
 9913TIP3    H251231   4.865   3.754   2.576  1.5151 -1.3547 -0.2637
 9914TIP3   OH251232   0.315   5.176   5.718  0.4692  0.9327  0.3630
 9914TIP3    H151233   0.380   5.138   5.777  0.5940 -0.4468 -0.6103
 9914TIP3    H251234   0.367   5.220   5.650  0.5428 -1.6198 -1.3770
 9915TIP3   OH251235   4.759   5.578  15.773  0.1448  0.5135  0.3944
 9915TIP3    H151236   4.715   5.625  15.702 -0.8785 -0.7589  0.1470
 9915TIP3    H251237   4.823   5.641  15.807 -1.2439  2.1230  0.1717
 9916TIP3   OH251238   6.778   2.924  12.164  0.7103 -0.3131  0.1425
 9916TIP3    H151239   6.774   2.837  12.205  1.0152 -0.4352 -0.0790
 9916TIP3    H251240   6.724   2.916  12.085  1.3596 -0.5353 -0.2891
 9917TIP3   OH251241   4.895   4.433  12.235  0.3744 -0.3386 -0.0378
 9917TIP3    H151242   4.896   4.428  12.331  0.2795  2.8640  0.2334
 9917TIP3    H251243   4.955   4.365  12.207  0.9200 -0.9338  2.3225
 9918TIP3   OH251244   0.126   4.713   6.510 -0.1258  0.1639  0.5699
 9918TIP3    H151245   0.208   4.705   6.461  0.0229 -0.1756  0.8800
 9918TIP3    H251246   0.106   4.807   6.507 -0.9938 -0.0293 -1.5842
 9919TIP3   OH251247   6.049   0.240  13.475 -0.3046 -0.2482 -0.5526
 9919TIP3    H151248   6.044   0.325  13.520 -0.7343 -0.7085  0.2876
 9919TIP3    H251249   6.124   0.249  13.417  0.1816  0.4232  0.1451
 9920TIP3   OH251250   3.570   3.712   1.125 -0.6906 -0.0798 -0.0560
 9920TIP3    H151251   3.526   3.748   1.203 -0.5504 -0.4635  0.2041
 9920TIP3    H251252   3.577   3.787   1.065  1.5017  0.8988  1.2976
 9921TIP3   OH251253   4.554   0.598   0.497 -0.5385  0.2543 -0.0613
 9921TIP3    H151254   4.629   0.541   0.515 -0.4282  0.2099 -0.6486
 9921TIP3    H251255   4.527   0.575   0.408 -1.7984 -0.3456  0.4537
 9922TIP3   OH251256   2.029   1.212  13.622  0.4042  0.7501  0.4093
 9922TIP3    H151257   2.088   1.137  13.616  0.9764  1.2516 -0.4493
 9922TIP3    H251258   1.953   1.186  13.570 -0.1809  0.0835  1.5568
 9923TIP3   OH251259   3.976   0.513  12.493  0.8603 -0.0085  0.6963
 9923TIP3    H151260   3.999   0.453  12.422 -0.6186  0.0403  0.1340
 9923TIP3    H251261   3.914   0.464  12.547  0.2292  0.7306  0.6609
 9924TIP3   OH251262   6.151   5.140   3.066 -0.2502  0.8074  0.8007
 9924TIP3    H151263   6.224   5.179   3.113  1.3548 -2.0224  0.8895
 9924TIP3    H251264   6.176   5.144   2.974 -0.0928  0.0561  0.8077
 9925TIP3   OH251265   3.226   6.122   4.328  0.1664 -0.4022 -0.0678
 9925TIP3    H151266   3.162   6.051   4.324  0.4876 -0.6951  0.0173
 9925TIP3    H251267   3.199   6.173   4.406 -1.5653  1.0253 -1.4954
 9926TIP3   OH251268   6.510   6.644  13.766  0.3632 -0.4144 -0.0485
 9926TIP3    H151269   6.562   6.671  13.691  0.3597  0.1450  0.1459
 9926TIP3    H251270   6.565   6.581  13.813  0.5544 -0.4022 -0.2558
 9927TIP3   OH251271   2.537   1.981   0.054  0.7623  0.2902 -0.3652
 9927TIP3    H151272   2.490   1.988   0.138 -0.1982 -1.1677 -0.7550
 9927TIP3    H251273   2.613   1.927   0.074 -0.5771 -1.8926 -0.8106
 9928TIP3   OH251274   2.775   0.144   3.300 -0.5507 -0.1129 -0.2861
 9928TIP3    H151275   2.839   0.212   3.321  0.3196 -0.8847 -0.3501
 9928TIP3    H251276   2.720   0.138   3.378 -0.0918  0.0722  0.0582
 9929TIP3   OH251277   6.760   4.423   2.034 -0.1978 -0.2439  0.5397
 9929TIP3    H151278   6.780   4.506   2.077 -0.2729  0.6384 -1.0762
 9929TIP3    H251279   6.780   4.437   1.942  1.0004 -2.4331  0.3827
 9930TIP3   OH251280   0.474   0.555   3.163  0.0511 -0.1264 -0.0759
 9930TIP3    H151281   0.560   0.574   3.124 -0.8541  3.4938 -0.6161
 9930TIP3    H251282   0.411   0.576   3.094 -1.3692 -0.5838  1.0284
 9931TIP3   OH251283   3.125   3.710   2.374  0.4942  0.0410 -0.1496
 9931TIP3    H151284   3.034   3.737   2.385 -0.0243 -2.1750  1.7671
 9931TIP3    H251285   3.173   3.762   2.439  0.0528 -1.0484  1.0846
 9932TIP3   OH251286   2.782   2.784  14.280  0.2626 -0.5509 -0.1576
 9932TIP3    H151287   2.861   2.780  14.225  0.0238 -1.5969 -0.4572
 9932TIP3    H251288   2.767   2.693  14.306  0.1045 -0.1347  1.2804
 9933TIP3   OH251289   1.660   6.583   2.559 -0.2620 -0.2111 -0.1024
 9933TIP3    H151290   1.754   6.574   2.546 -0.1556  0.8407 -0.1324
 9933TIP3    H251291   1.649   6.586   2.654 -0.3003 -0.6782 -0.0922
 9934TIP3   OH251292   1.454   4.827   3.090 -0.2558  0.4495  0.2679
 9934TIP3    H151293   1.421   4.917   3.094 -0.3105  0.4042  0.9613
 9934TIP3    H251294   1.480   4.807   3.179 -0.5548 -0.3417  0.1840
 9935TIP3   OH251295   6.127   2.119  13.201  0.1474 -0.0345 -0.1627
 9935TIP3    H151296   6.086   2.167  13.129 -2.4102 -1.5042  0.1966
 9935TIP3    H251297   6.151   2.035  13.162 -0.7617 -0.6319  0.5081
 9936TIP3   OH251298   3.839   1.643  15.044  0.1231 -0.4202  0.1687
 9936TIP3    H151299   3.843   1.738  15.036 -1.2508 -0.2391  1.2318
 9936TIP3    H251300   3.771   1.616  14.982  1.1505 -0.8292 -0.8082
 9937TIP3   OH251301   6.602   1.093  12.579  0.2564  0.3519  0.0764
 9937TIP3    H151302   6.559   1.178  12.587  0.4196  0.3408  1.2657
 9937TIP3    H251303   6.688   1.112  12.544 -0.2049  0.5162 -1.0159
 9938TIP3   OH251304   2.678   3.001   6.475 -0.0774  0.1189 -0.4556
 9938TIP3    H151305   2.666   2.919   6.524  0.8315  1.4163  2.1689
 9938TIP3    H251306   2.764   3.033   6.503 -1.0904  2.7627 -0.0808
 9939TIP3   OH251307   3.211   5.972   3.032 -0.4921 -0.0717  0.3124
 9939TIP3    H151308   3.233   5.892   3.080  1.5519  0.1142 -0.2196
 9939TIP3    H251309   3.126   5.998   3.067 -1.1227 -2.3269  0.6714
 9940TIP3   OH251310   6.316   5.938  10.453 -0.4449  0.0489  0.2027
 9940TIP3    H151311   6.340   5.999  10.524  1.5169 -0.0163 -0.3459
 9940TIP3    H251312   6.314   5.993  10.375  0.8845 -0.4580 -0.2217
 9941TIP3   OH251313   2.786   6.774  16.984  0.1728 -0.2451  0.7394
 9941TIP3    H151314   2.815   6.684  17.000 -1.7798 -1.3385 -1.3269
 9941TIP3    H251315   2.719   6.790  17.051 -2.3744 -1.9319 -1.1997
 9942TIP3   OH251316   4.914   1.153  15.072  0.4828  0.0694 -0.3055
 9942TIP3    H151317   4.976   1.081  15.075  0.7238  0.2867 -0.0262
 9942TIP3    H251318   4.885   1.163  15.163  1.4771  1.2109 -0.0962
 9943TIP3   OH251319   2.852   3.306  14.749 -0.0056 -0.0534 -0.1224
 9943TIP3    H151320   2.772   3.333  14.705  0.2892  2.2258  0.6098
 9943TIP3    H251321   2.882   3.229  14.700 -2.0301 -0.2961 -1.0722
 9944TIP3   OH251322   5.195   4.134  13.064  0.0869 -0.2888 -0.2555
 9944TIP3    H151323   5.103   4.157  13.057  0.1473 -0.1512 -0.5879
 9944TIP3    H251324   5.230   4.194  13.129 -0.0073 -0.1945 -0.2920
 9945TIP3   OH251325   4.747   3.322   3.880  0.4268  0.0484  0.5089
 9945TIP3    H151326   4.774   3.389   3.943 -2.0111  1.4601  0.2043
 9945TIP3    H251327   4.785   3.351   3.797  2.0418 -0.7646  0.9270
 9946TIP3   OH251328   5.126   1.765   5.057  0.1830  0.0459  0.2386
 9946TIP3    H151329   5.196   1.719   5.010 -0.0709  0.0835 -0.1786
 9946TIP3    H251330   5.055   1.773   4.993 -1.4742 -2.7751  1.5232
 9947TIP3   OH251331   3.558   4.434   2.390 -0.3843  0.5313 -0.1848
 9947TIP3    H151332   3.642   4.423   2.434 -1.5759 -0.7822  1.9185
 9947TIP3    H251333   3.572   4.509   2.331  2.8457 -0.9089 -1.5206
 9948TIP3   OH251334   3.188   4.928  12.465 -0.6658  0.1993  0.3093
 9948TIP3    H151335   3.156   4.976  12.542  0.5442 -0.6590  1.3830
 9948TIP3    H251336   3.152   4.840  12.475  0.7409 -0.3438  0.7215
 9949TIP3   OH251337   2.116   5.721   4.517  0.5532 -0.0000  0.2084
 9949TIP3    H151338   2.196   5.770   4.498  0.5203  0.4232  1.1274
 9949TIP3    H251339   2.069   5.776   4.580  0.5861 -1.2913  1.3868
 9950TIP3   OH251340   3.060   4.051  13.039  0.1928  0.1306  0.2011
 9950TIP3    H151341   2.979   4.063  12.990  1.5249  0.6345 -2.0029
 9950TIP3    H251342   3.073   4.134  13.085 -1.2470 -0.4687  1.8241
 9951TIP3   OH251343   5.893   1.179   4.082 -0.1399 -0.1513 -0.2428
 9951TIP3    H151344   5.822   1.184   4.147 -0.5608  0.3414 -0.7258
 9951TIP3    H251345   5.967   1.143   4.130 -0.6166 -0.3383  0.3664
 9952TIP3   OH251346   1.604   1.001   3.388  0.7593 -0.0814 -0.8984
 9952TIP3    H151347   1.547   0.981   3.314  1.2284  0.7049 -1.4866
 9952TIP3    H251348   1.653   1.078   3.360 -0.4848  1.4780  1.0107
 9953TIP3   OH251349   3.710   0.915  14.887 -0.3274 -0.7163 -0.0175
 9953TIP3    H151350   3.619   0.908  14.859 -1.1379  1.3885  1.7584
 9953TIP3    H251351   3.705   0.916  14.983  1.3206  1.1745  0.1283
 9954TIP3   OH251352   0.470   5.852  11.203 -0.4932 -0.1585  0.7496
 9954TIP3    H151353   0.393   5.807  11.167  1.1982 -1.9009 -0.8758
 9954TIP3    H251354   0.442   5.944  11.211 -2.9283 -0.8432  0.8365
 9955TIP3   OH251355   2.083   6.564  15.423  0.3301  0.1980 -0.3756
 9955TIP3    H151356   2.157   6.535  15.476  0.0245 -0.6003 -0.3692
 9955TIP3    H251357   2.052   6.485  15.379  0.5157  0.8134 -1.6866
 9956TIP3   OH251358   2.272   5.086   3.051  0.5018 -0.3111  0.9479
 9956TIP3    H151359   2.295   5.050   3.137 -0.8902 -1.2803  0.9567
 9956TIP3    H251360   2.188   5.046   3.030  1.0732 -0.5643 -1.1479
 9957TIP3   OH251361   1.255   4.286   5.131  0.3957 -0.7161 -0.7445
 9957TIP3    H151362   1.164   4.316   5.124  0.1899 -1.6076 -2.2823
 9957TIP3    H251363   1.250   4.209   5.188  0.1897 -0.7305 -0.7800
 9958TIP3   OH251364   6.024   4.146   0.029  0.2070  0.4544 -0.0442
 9958TIP3    H151365   5.995   4.055   0.020  0.0800  0.4653  0.2585
 9958TIP3    H251366   5.996   4.172   0.117  0.6184  0.6538  0.0278
 9959TIP3   OH251367   1.710   6.114   1.653 -0.1745  0.5733  0.1843
 9959TIP3    H151368   1.800   6.143   1.670  0.2969 -0.3445 -0.6539
 9959TIP3    H251369   1.701   6.034   1.705 -1.1316  1.6199  1.6939
 9960TIP3   OH251370   4.114   0.358  13.025  0.0721 -0.5443  0.0195
 9960TIP3    H151371   4.144   0.287  13.081  0.1929 -0.1158  0.5104
 9960TIP3    H251372   4.113   0.321  12.936  0.3942 -1.0699  0.2346
 9961TIP3   OH251373   5.859   1.931   5.131 -0.1535  0.3789  0.0625
 9961TIP3    H151374   5.774   1.924   5.176 -0.7484 -0.1664 -1.0970
 9961TIP3    H251375   5.852   2.011   5.080 -0.1875  0.0609 -0.4420
 9962TIP3   OH251376   3.971   0.488   6.227 -0.3848 -0.5690 -0.6517
 9962TIP3    H151377   3.976   0.559   6.290  0.3756 -0.4792 -0.8079
 9962TIP3    H251378   4.059   0.481   6.191 -0.5640 -1.2833 -0.9740
 9963TIP3   OH251379   4.857   5.713   2.608  0.3408 -0.2121  0.1304
 9963TIP3    H151380   4.770   5.744   2.583  0.0279 -1.2190 -0.0807
 9963TIP3    H251381   4.916   5.757   2.547 -0.1182 -0.2688 -0.3678
 9964TIP3   OH251382   1.487   5.514   4.571 -0.0230 -0.1041  0.3269
 9964TIP3    H151383   1.498   5.506   4.665  0.0222 -0.2753  0.3073
 9964TIP3    H251384   1.470   5.607   4.556 -0.5829 -0.1661  0.5614
 9965TIP3   OH251385   0.019   3.807  11.213  0.1058 -0.2209  0.2840
 9965TIP3    H151386  -0.050   3.800  11.279  0.4611  0.5152  0.7497
 9965TIP3    H251387  -0.011   3.751  11.141 -1.0727  0.2317  0.3904
 9966TIP3   OH251388   6.422   4.508   4.011  0.5276 -0.2609 -0.1666
 9966TIP3    H151389   6.344   4.452   4.005  0.1447  0.4369 -3.4106
 9966TIP3    H251390   6.390   4.596   3.990  1.7875  0.5012  0.9876
 9967TIP3   OH251391   4.467   5.291   4.159  0.8005  0.1105  0.2760
 9967TIP3    H151392   4.544   5.243   4.128  0.4056 -2.3323  2.7069
 9967TIP3    H251393   4.398   5.268   4.097  1.6149  1.1471 -1.0803
 9968TIP3   OH251394   4.872   6.220  14.547 -0.4304  0.6714  0.7683
 9968TIP3    H151395   4.834   6.307  14.533  0.2998  0.8354 -0.3023
 9968TIP3    H251396   4.883   6.214  14.642 -3.1132  0.6021  1.1537
 9969TIP3   OH251397   0.097   2.421   2.560  0.4221 -0.1539  0.0995
 9969TIP3    H151398   0.036   2.408   2.632 -0.0011  1.2199  0.0116
 9969TIP3    H251399   0.053   2.381   2.484 -0.2027  0.4767  0.1188
 9970TIP3   OH251400   4.242   4.744  13.290 -0.4288  0.9319 -0.1138
 9970TIP3    H151401   4.255   4.834  13.262  0.1352  0.5808 -1.0140
 9970TIP3    H251402   4.226   4.695  13.209  0.0042  0.1048  0.2849
 9971TIP3   OH251403   6.204   0.633  11.474 -0.7215 -0.0514 -0.2691
 9971TIP3    H151404   6.159   0.672  11.550 -0.3055  0.0360 -0.0651
 9971TIP3    H251405   6.285   0.597  11.510  0.8341  2.3707 -1.0719
 9972TIP3   OH251406   5.799   5.528   1.017  0.2415  0.1751  0.4519
 9972TIP3    H151407   5.759   5.528   0.930 -2.7966  1.6354  1.7194
 9972TIP3    H251408   5.893   5.539   1.000 -0.0313 -1.1753 -2.6363
 9973TIP3   OH251409   1.850   5.258   2.193 -0.7320  0.2188 -0.4806
 9973TIP3    H151410   1.826   5.329   2.252 -1.9958  0.2476 -0.9822
 9973TIP3    H251411   1.766   5.224   2.162 -0.1149  0.2922 -2.3542
 9974TIP3   OH251412   4.418   6.277   4.330 -0.0812  0.6369 -0.0875
 9974TIP3    H151413   4.427   6.201   4.272 -0.8718  0.4726 -0.0146
 9974TIP3    H251414   4.506   6.312   4.338  0.1947  0.0879 -0.6183
 9975TIP3   OH251415   0.439   4.004   3.599 -0.4083 -0.1570  0.2124
 9975TIP3    H151416   0.485   4.008   3.683 -0.7507 -2.4811  0.5816
 9975TIP3    H251417   0.503   4.033   3.534  0.7669 -0.9294  0.9996
 9976TIP3   OH251418   6.749   4.227   6.507  0.4556  0.2009 -0.3611
 9976TIP3    H151419   6.841   4.205   6.527  0.2797 -0.2124  0.0250
 9976TIP3    H251420   6.748   4.322   6.501  0.5787  0.3524  1.4058
 9977TIP3   OH251421   1.494   2.772  15.690 -0.1564  0.4685  0.0187
 9977TIP3    H151422   1.419   2.749  15.634  0.3094 -0.4212 -0.2562
 9977TIP3    H251423   1.461   2.842  15.746 -1.1498  0.2128 -0.2218
 9978TIP3   OH251424   3.270   0.405   1.683 -0.4793  0.3661  0.1120
 9978TIP3    H151425   3.178   0.433   1.690 -0.6787  0.0325 -0.9371
 9978TIP3    H251426   3.272   0.321   1.729 -1.2969 -0.8309 -1.8706
 9979TIP3   OH251427   0.327   4.357   5.735 -0.3650 -0.8509 -0.0447
 9979TIP3    H151428   0.353   4.387   5.822  1.7610 -0.2180 -0.8192
 9979TIP3    H251429   0.273   4.280   5.751 -0.6513 -0.2958  1.8432
 9980TIP3   OH251430   2.837   6.048  10.355  0.7202  0.0913  0.2886
 9980TIP3    H151431   2.747   6.081  10.356  0.9454  0.8354  2.4185
 9980TIP3    H251432   2.832   5.964  10.310 -1.1636 -0.1450  0.8679
 9981TIP3   OH251433   3.404   6.359   3.782 -0.1027  0.0360  0.0853
 9981TIP3    H151434   3.483   6.399   3.817  0.2370 -1.0311  0.5755
 9981TIP3    H251435   3.333   6.418   3.809  0.4772  0.7858 -0.0169
 9982TIP3   OH251436   4.193   0.004  12.682  0.4222  0.3869  0.4073
 9982TIP3    H151437   4.204  -0.025  12.772 -0.1985  1.5887  0.8960
 9982TIP3    H251438   4.134   0.080  12.688 -0.9322 -0.4821 -1.1837
 9983TIP3   OH251439   1.381   4.683   3.715  0.0274 -0.1348  0.4319
 9983TIP3    H151440   1.427   4.619   3.768 -2.4029  1.0678  4.4111
 9983TIP3    H251441   1.430   4.764   3.728 -0.4087  0.1020  0.6195
 9984TIP3   OH251442   5.417   2.811   0.738 -0.5448 -0.2118  0.6619
 9984TIP3    H151443   5.416   2.834   0.645 -1.8793  0.0395  0.7260
 9984TIP3    H251444   5.326   2.815   0.765 -0.0364  1.0076  2.3152
 9985TIP3   OH251445   4.552   5.760   5.517  0.6341  0.2212 -0.4919
 9985TIP3    H151446   4.531   5.839   5.568  1.6208  0.1293  0.0664
 9985TIP3    H251447   4.535   5.687   5.577 -0.1930 -0.0019 -0.9805
 9986TIP3   OH251448   1.656   4.860  14.406 -0.0870 -0.0287 -0.3875
 9986TIP3    H151449   1.675   4.840  14.498 -0.8741 -0.1453 -0.2414
 9986TIP3    H251450   1.698   4.945  14.391 -0.0006  0.0184  0.0931
 9987TIP3   OH251451   1.582   5.257   0.553 -1.1561 -0.4554  0.2044
 9987TIP3    H151452   1.507   5.263   0.493 -0.0141  1.9559 -1.1037
 9987TIP3    H251453   1.575   5.334   0.608  0.3304 -0.2173  0.0997
 9988TIP3   OH251454   6.694   3.762  16.122  0.1084 -0.1080  0.2675
 9988TIP3    H151455   6.669   3.827  16.187 -1.8826  1.0688 -1.5449
 9988TIP3    H251456   6.704   3.812  16.041 -2.2560 -2.0700 -1.3816
 9989TIP3   OH251457   6.819   6.370   3.306 -0.3236 -0.8161 -0.4585
 9989TIP3    H151458   6.856   6.350   3.392 -0.2827 -1.3934 -0.6040
 9989TIP3    H251459   6.727   6.345   3.314 -0.6293  0.3353 -0.1902
 9990TIP3   OH251460   4.978   6.418  16.663  0.0659 -0.1544 -0.1632
 9990TIP3    H151461   4.938   6.443  16.747  0.3475 -1.4634  0.3861
 9990TIP3    H251462   4.907   6.374  16.616  0.5089 -1.4279  0.3298
 9991TIP3   OH251463   6.131   2.300   6.235 -0.9683  0.3265  0.1820
 9991TIP3    H151464   6.177   2.373   6.275 -0.7497 -0.5407  1.5680
 9991TIP3    H251465   6.040   2.311   6.263 -1.0338  0.3271 -0.0237
 9992TIP3   OH251466   5.958   4.983   3.896  0.1984  0.2307  0.2556
 9992TIP3    H151467   5.951   5.004   3.989 -0.2528 -1.2829  0.5941
 9992TIP3    H251468   6.027   4.916   3.893 -1.3541 -1.4252 -0.1651
 9993TIP3   OH251469   1.174   5.364  12.591  0.6946 -0.0945  0.0903
 9993TIP3    H151470   1.241   5.412  12.542  0.0884 -1.0506 -1.7787
 9993TIP3    H251471   1.220   5.333  12.669  1.1040  3.4661  1.4631
 9994TIP3   OH251472   2.744   6.340   4.971  0.0893  0.0161 -0.1030
 9994TIP3    H151473   2.723   6.414   4.914 -1.1691 -0.3543 -0.1645
 9994TIP3    H251474   2.679   6.345   5.042  0.7782 -0.3104  0.5602
 9995TIP3   OH251475   6.604   2.363   6.057 -0.3639 -0.3551  0.2105
 9995TIP3    H151476   6.511   2.340   6.060 -0.5427  0.4235  1.3210
 9995TIP3    H251477   6.630   2.346   5.967 -1.9391  0.7826 -0.5033
 9996TIP3   OH251478   2.688   4.550  16.609  0.0356  0.3119  0.4642
 9996TIP3    H151479   2.665   4.623  16.552  0.6839 -0.3090 -0.6186
 9996TIP3    H251480   2.783   4.543  16.602  0.0585 -0.1725  1.1363
 9997TIP3   OH251481   4.558   0.870  14.467  0.2632 -0.2780 -0.0191
 9997TIP3    H151482   4.483   0.917  14.430 -2.7568 -3.3025  1.5981
 9997TIP3    H251483   4.582   0.920  14.545 -0.2733  0.6233 -0.4178
 9998TIP3   OH251484   5.296   1.489  12.239 -0.5657 -0.1208 -0.1928
 9998TIP3    H151485   5.283   1.582  12.255 -2.4574 -0.4643  0.4671
 9998TIP3    H251486   5.347   1.485  12.157 -1.0804  1.4601 -0.6152
 9999TIP3   OH251487   4.032   6.353  13.695  0.0908 -0.0647 -0.4486
 9999TIP3    H151488   4.008   6.432  13.646  0.7741  0.3227 -0.1608
 9999TIP3    H251489   3.949   6.306  13.705 -0.7461  1.5906  1.1564
10000TIP3   OH251490   0.150   1.143  13.109 -0.4464  0.4143 -0.4734
10000TIP3    H151491   0.145   1.106  13.197  0.1849  0.5585 -0.3741
10000TIP3    H251492   0.214   1.214  13.116  0.0199  0.0742 -1.1666
10001TIP3   OH251493   5.545   4.183  16.613 -0.0303 -0.3519  0.1420
10001TIP3    H151494   5.537   4.192  16.518  0.2737 -1.1409  0.0316
10001TIP3    H251495   5.473   4.125  16.638 -0.6897  0.6148  0.5338
10002TIP3   OH251496   3.133   4.915  16.355  0.4121 -0.2582 -0.0099
10002TIP3    H151497   3.212   4.953  16.393  0.9822 -0.7007 -0.7192
10002TIP3    H251498   3.061   4.963  16.396  1.0881  1.8418 -1.1025
10003TIP3   OH251499   5.588   6.170  17.043 -0.1479 -0.0636 -0.7047
10003TIP3    H151500   5.656   6.127  16.991 -0.8732 -0.9255 -0.9567
10003TIP3    H251501   5.581   6.258  17.006  1.6601  0.4823  0.0921
10004TIP3   OH251502   1.871   2.481   4.763 -0.4219 -0.2059 -0.4892
10004TIP3    H151503   1.957   2.462   4.726 -1.0513 -0.7681 -1.7529
10004TIP3    H251504   1.835   2.549   4.706 -0.0209  1.5743  1.2731
10005TIP3   OH251505   2.235   5.280   0.287 -0.0556  0.4078 -0.1256
10005TIP3    H151506   2.185   5.337   0.228  0.1789  0.2839 -0.4498
10005TIP3    H251507   2.201   5.192   0.269  0.5115  0.2773 -0.6003
10006TIP3   OH251508   5.451   6.142  10.640 -0.2468  0.2169  0.3128
10006TIP3    H151509   5.418   6.054  10.625  1.7061 -0.6335  0.7247
10006TIP3    H251510   5.528   6.130  10.695  0.4167  2.1230 -0.1121
10007TIP3   OH251511   4.571   0.786  12.317 -0.2295  0.6787  0.3827
10007TIP3    H151512   4.527   0.821  12.394 -1.8358 -0.2236 -0.0977
10007TIP3    H251513   4.550   0.847  12.247  0.4331  0.9679  0.4191
10008TIP3   OH251514   1.913   6.149   1.984  0.0429  0.1560 -0.1720
10008TIP3    H151515   1.868   6.066   1.971  1.0253 -0.1119 -2.1504
10008TIP3    H251516   1.941   6.147   2.076 -0.8760 -1.2085  0.0929
10009TIP3   OH251517   0.743   6.535  11.754 -0.0720 -0.6989  0.0853
10009TIP3    H151518   0.827   6.489  11.757  0.3675  0.0818  0.0638
10009TIP3    H251519   0.725   6.545  11.661  0.8989  1.0101  0.0202
10010TIP3   OH251520   3.390   1.428  11.090  0.5127  0.4418  0.2745
10010TIP3    H151521   3.361   1.480  11.166 -1.2562 -1.3732  0.9505
10010TIP3    H251522   3.313   1.426  11.033  0.8835 -0.5262 -0.2078
10011TIP3   OH251523   3.468   4.432   3.463  0.2831  0.0776 -0.4369
10011TIP3    H151524   3.540   4.462   3.518 -0.1288 -1.4331  1.0035
10011TIP3    H251525   3.419   4.511   3.441 -0.4155  0.6227  2.6645
10012TIP3   OH251526   2.821   2.390  12.876 -0.8174 -1.0630  0.2088
10012TIP3    H151527   2.742   2.437  12.904  0.6825  1.3093  0.7716
10012TIP3    H251528   2.836   2.418  12.786  0.4483  0.1526  0.7559
10013TIP3   OH251529   3.912   1.694   3.624 -0.0587  0.4485  0.4826
10013TIP3    H151530   3.862   1.619   3.590  1.2211  0.7468 -2.3763
10013TIP3    H251531   3.850   1.767   3.619 -0.2143  0.2767 -0.3819
10014TIP3   OH251532   0.099   2.737   4.003  0.6079 -0.3095 -0.3308
10014TIP3    H151533   0.172   2.736   4.065  0.0965 -0.8636  0.2662
10014TIP3    H251534   0.119   2.667   3.940  0.6790 -0.3384 -0.2754
10015TIP3   OH251535   0.529   5.366   1.650 -0.3365 -0.1629 -0.1560
10015TIP3    H151536   0.606   5.343   1.598 -1.4032 -1.5752 -1.1942
10015TIP3    H251537   0.501   5.283   1.688  0.9143  0.9465  3.5238
10016TIP3   OH251538   4.637   3.820  15.703  0.1079  0.0684 -0.1289
10016TIP3    H151539   4.605   3.894  15.651  2.1860  0.9622 -0.2329
10016TIP3    H251540   4.683   3.765  15.641 -1.0438 -1.1297  0.0364
10017TIP3   OH251541   0.449   4.570  16.145  0.1340 -0.6483  0.5512
10017TIP3    H151542   0.427   4.594  16.055 -0.2213 -0.4884  0.6781
10017TIP3    H251543   0.366   4.576  16.193  0.5258  0.3903  1.1358
10018TIP3   OH251544   5.745   3.026   6.987 -0.0299 -0.5841  0.0477
10018TIP3    H151545   5.737   2.935   6.957 -0.6418 -0.2426 -0.8679
10018TIP3    H251546   5.655   3.051   7.011  0.0550 -0.0685 -0.1711
10019TIP3   OH251547   3.367   6.352  14.750  0.3898  0.1880  0.3293
10019TIP3    H151548   3.362   6.349  14.654 -1.0080  1.1121  0.3362
10019TIP3    H251549   3.450   6.395  14.768  0.9321 -0.4952 -0.4493
10020TIP3   OH251550   2.399   4.932   0.089 -0.4579  0.1062  0.2257
10020TIP3    H151551   2.448   4.886   0.157 -1.3462 -1.3121 -0.0573
10020TIP3    H251552   2.325   4.971   0.136 -0.4858  0.0465  0.2301
10021TIP3   OH251553   2.725   4.827   2.911 -0.1584  0.0359  0.6929
10021TIP3    H151554   2.701   4.760   2.975 -0.8799  0.0764  0.4824
10021TIP3    H251555   2.653   4.824   2.847  0.7295 -0.2586 -0.3096
10022TIP3   OH251556   3.028   0.161   0.682 -0.3499 -0.0219  0.4580
10022TIP3    H151557   2.942   0.121   0.667 -1.5004  1.3505  2.6596
10022TIP3    H251558   3.016   0.210   0.764  2.8644 -0.6603  1.4330
10023TIP3   OH251559   6.272   2.306  14.231  0.1593 -0.5957 -0.6702
10023TIP3    H151560   6.191   2.346  14.261 -0.3314 -1.0393 -1.3884
10023TIP3    H251561   6.311   2.268  14.310 -0.4631 -0.6201 -0.3738
10024TIP3   OH251562   4.176   3.548  13.349  0.0132 -0.0547  0.1936
10024TIP3    H151563   4.192   3.600  13.270  2.7188 -1.3897 -0.2708
10024TIP3    H251564   4.185   3.457  13.320 -0.9054 -0.6417  1.6787
10025TIP3   OH251565   6.553   0.966  14.241 -0.5910 -0.4694 -0.1099
10025TIP3    H151566   6.625   1.019  14.207 -1.0845 -0.4114 -1.1137
10025TIP3    H251567   6.578   0.876  14.219 -1.6643 -0.3267 -2.2260
10026TIP3   OH251568   4.768   0.724  15.191 -0.4200  0.4648 -0.4676
10026TIP3    H151569   4.740   0.637  15.219  0.2709 -0.9752 -3.7269
10026TIP3    H251570   4.686   0.771  15.174 -0.8062 -0.0096  0.0420
10027TIP3   OH251571   1.268   3.336   3.978  0.0979  0.0602  0.6027
10027TIP3    H151572   1.318   3.408   4.017  1.8773 -0.1125 -1.2059
10027TIP3    H251573   1.317   3.257   4.003 -0.5217 -0.3374  0.6021
10028TIP3   OH251574   4.957   2.070  14.471  0.1821 -0.1349 -0.0084
10028TIP3    H151575   4.930   2.041  14.558  0.7202 -0.4647  0.0532
10028TIP3    H251576   4.884   2.125  14.440  1.3916  2.8413  2.0148
10029TIP3   OH251577   2.625   4.261   3.151  0.4800 -0.8770  0.3700
10029TIP3    H151578   2.548   4.262   3.094  1.4292 -0.6944 -0.9582
10029TIP3    H251579   2.622   4.346   3.197  0.6719 -0.2155 -0.7966
10030TIP3   OH251580   5.586   3.498  14.730 -0.4107  0.3088  0.5012
10030TIP3    H151581   5.515   3.489  14.667 -1.3622  0.3012  1.5447
10030TIP3    H251582   5.606   3.591  14.732 -0.6713  0.3637  0.4990
10031TIP3   OH251583   2.651   0.098   3.870 -0.1169 -0.0598 -0.3692
10031TIP3    H151584   2.615   0.017   3.833 -0.5419  0.8280 -1.9413
10031TIP3    H251585   2.728   0.068   3.919 -0.4628 -1.4612 -0.6249
10032TIP3   OH251586   4.259   3.137   4.019  0.1867 -0.3685 -0.0264
10032TIP3    H151587   4.352   3.114   4.011 -0.2978 -2.5249 -0.2124
10032TIP3    H251588   4.220   3.062   4.064 -1.4844  0.4768  0.0009
10033TIP3   OH251589   5.355   1.462   1.238 -0.0112  0.0494 -0.1709
10033TIP3    H151590   5.356   1.510   1.155  0.4090 -0.5747 -0.5419
10033TIP3    H251591   5.441   1.481   1.277  0.6176 -1.2312 -0.8368
10034TIP3   OH251592   2.418   1.738  15.687  0.1879  0.2143 -0.6233
10034TIP3    H151593   2.433   1.647  15.661 -0.7028  0.0070 -0.4427
10034TIP3    H251594   2.413   1.785  15.604 -1.3833 -0.2439 -0.8288
10035TIP3   OH251595   3.731   4.351   1.073  0.0334  0.2040 -0.5799
10035TIP3    H151596   3.737   4.447   1.077 -0.2296  0.2450 -1.1149
10035TIP3    H251597   3.725   4.331   0.980  4.0486 -0.5733 -0.8743
10036TIP3   OH251598   1.895   5.660   5.741  0.3237  0.2499  0.5133
10036TIP3    H151599   1.910   5.580   5.691 -0.1434  0.7236 -0.4196
10036TIP3    H251600   1.936   5.644   5.826  1.1806 -0.5628 -0.0394
10037TIP3   OH251601   0.728   2.866  14.323 -0.3365  0.5134  0.2835
10037TIP3    H151602   0.824   2.868  14.323 -0.3259  0.1884  0.6117
10037TIP3    H251603   0.703   2.958  14.331 -0.0393  0.5522  0.8691
10038TIP3   OH251604   3.656   0.133   4.763 -0.4795 -0.4164  0.1100
10038TIP3    H151605   3.591   0.171   4.705 -0.0413  1.2577  0.6526
10038TIP3    H251606   3.681   0.051   4.721 -0.8940  0.2720 -1.5503
10039TIP3   OH251607   2.153   1.713  12.879  0.6773 -0.2990  0.4828
10039TIP3    H151608   2.169   1.783  12.816 -0.3335  0.0820  0.6322
10039TIP3    H251609   2.218   1.728  12.948  0.7558  0.2212  0.3018
10040TIP3   OH251610   0.830   3.628   1.931  0.3789  0.2066  0.1348
10040TIP3    H151611   0.849   3.534   1.922  2.3848  0.4409  1.2157
10040TIP3    H251612   0.748   3.631   1.980  0.1074 -0.9738 -0.2031
10041TIP3   OH251613   0.264   6.469   3.948 -0.2095  0.0964  0.3568
10041TIP3    H151614   0.245   6.562   3.960 -1.8990 -0.1431 -0.1681
10041TIP3    H251615   0.187   6.424   3.983  1.0706 -1.1740  1.6348
10042TIP3   OH251616   5.779   6.533   1.494  0.1878 -0.3786 -0.5409
10042TIP3    H151617   5.745   6.616   1.526 -0.1210 -0.1523 -1.4373
10042TIP3    H251618   5.728   6.467   1.540  0.3748 -0.0812  0.1090
10043TIP3   OH251619   5.485   0.567  10.872  0.2594 -0.4004  0.1760
10043TIP3    H151620   5.418   0.509  10.907 -1.0205  1.4711  1.0414
10043TIP3    H251621   5.529   0.602  10.949  0.4283  0.3935 -0.2699
10044TIP3   OH251622   2.496   2.405  10.952  0.5399 -0.8301 -0.5597
10044TIP3    H151623   2.408   2.406  10.915  0.9627 -1.4459 -1.6243
10044TIP3    H251624   2.536   2.326  10.916  0.8429 -1.7069  1.5568
10045TIP3   OH251625   3.552   0.648  13.344  0.7304  0.2688 -0.0268
10045TIP3    H151626   3.564   0.741  13.323 -2.2466  1.1245  1.4347
10045TIP3    H251627   3.534   0.607  13.260  1.2749  1.1787 -0.6094
10046TIP3   OH251628   4.243   4.125  16.692  0.1851 -0.5503  0.2314
10046TIP3    H151629   4.171   4.083  16.740  0.0154  0.9862  1.3963
10046TIP3    H251630   4.312   4.059  16.690 -1.0721 -1.9102 -0.5429
10047TIP3   OH251631   1.068   6.775   4.838  0.0538  0.3156 -0.1071
10047TIP3    H151632   1.091   6.769   4.931  1.8429 -2.6955 -0.6185
10047TIP3    H251633   1.104   6.695   4.799 -2.4301  0.4563 -3.0443
10048TIP3   OH251634   5.427   5.953   5.138  0.4093  1.0737 -0.1907
10048TIP3    H151635   5.457   5.913   5.057  2.2132 -1.2652  1.4842
10048TIP3    H251636   5.504   5.998   5.173 -0.5064  2.5976 -0.0027
10049TIP3   OH251637   2.054   0.049   4.018 -0.4028  0.1166  0.3908
10049TIP3    H151638   1.994   0.009   4.081 -2.2095  0.2676 -1.1229
10049TIP3    H251639   2.050   0.143   4.038  1.0044 -0.0452  1.6094
10050TIP3   OH251640   2.399   1.222   0.922 -0.2653  0.4260  0.5570
10050TIP3    H151641   2.417   1.270   0.841 -1.8994  1.4216  0.7216
10050TIP3    H251642   2.327   1.163   0.899  1.2373 -1.4747  0.5555
10051TIP3   OH251643   1.390   6.718  12.359  0.0273 -0.5814 -0.3822
10051TIP3    H151644   1.336   6.797  12.369  0.5659  0.0670 -2.1861
10051TIP3    H251645   1.462   6.745  12.303  0.7492 -2.1466 -0.2728
10052TIP3   OH251646   6.659   0.309  11.110 -0.0497  0.2236  0.1467
10052TIP3    H151647   6.743   0.344  11.140 -0.0339 -0.0562  0.4383
10052TIP3    H251648   6.620   0.271  11.188  0.9623 -2.4852 -0.5476
10053TIP3   OH251649   0.804   2.682  10.614 -0.1604  0.1448 -0.1407
10053TIP3    H151650   0.823   2.590  10.632 -1.7243 -0.2638 -0.4199
10053TIP3    H251651   0.731   2.680  10.552 -0.0560  1.5776 -0.3544
10054TIP3   OH251652   0.227   6.802  13.646 -0.3342 -0.4007 -0.5052
10054TIP3    H151653   0.213   6.891  13.613 -1.3996 -0.3260  0.1079
10054TIP3    H251654   0.139   6.765  13.655  0.0587 -1.2612 -0.0671
10055TIP3   OH251655   1.226   4.400   0.806 -0.2355  0.1171 -0.0425
10055TIP3    H151656   1.274   4.482   0.819 -1.0766  0.8594 -1.3315
10055TIP3    H251657   1.189   4.408   0.718  0.6919 -2.1998 -0.7299
10056TIP3   OH251658   5.726   6.458   1.214 -0.3198  0.1206 -0.8102
10056TIP3    H151659   5.764   6.523   1.274 -0.4149  0.4510 -1.1065
10056TIP3    H251660   5.642   6.495   1.188  0.5785  0.9566 -2.7247
10057TIP3   OH251661   0.157   4.546  11.935 -0.2976  0.1749 -0.2948
10057TIP3    H151662   0.202   4.464  11.918 -1.2086 -0.8924  2.0719
10057TIP3    H251663   0.105   4.530  12.013 -1.9469  2.4655 -0.8006
10058TIP3   OH251664   1.926   5.535  11.093 -0.1619 -0.3446 -0.0903
10058TIP3    H151665   1.845   5.498  11.060  0.3530 -1.0573 -0.5777
10058TIP3    H251666   1.976   5.558  11.015  0.9286 -1.7494  0.1558
10059TIP3   OH251667   1.587   1.472   2.520 -0.3366 -0.3903 -0.4154
10059TIP3    H151668   1.614   1.527   2.446 -1.0058  1.6770  0.7787
10059TIP3    H251669   1.668   1.430   2.549  0.3760  0.6060 -0.8886
10060TIP3   OH251670   4.343   3.497   2.050  0.8218 -0.5609  0.5561
10060TIP3    H151671   4.324   3.431   1.983 -0.4807 -0.9509  1.2730
10060TIP3    H251672   4.296   3.466   2.128  0.3144  1.1318  0.9626
10061TIP3   OH251673   5.762   0.782  10.533  0.7663  0.3691  0.1637
10061TIP3    H151674   5.751   0.726  10.610  2.6257 -0.5141 -0.1509
10061TIP3    H251675   5.756   0.722  10.459 -0.7058  1.1648 -0.3863
10062TIP3   OH251676   4.070   3.703  14.358 -0.2290  0.2971  0.4027
10062TIP3    H151677   4.132   3.722  14.287 -1.7516  0.3888 -0.9484
10062TIP3    H251678   4.027   3.787  14.376  0.8957  0.5374  2.2461
10063TIP3   OH251679   0.146   3.656   0.006 -0.0037 -0.5794  0.0112
10063TIP3    H151680   0.142   3.568  -0.032  0.8422 -1.1125  1.0859
10063TIP3    H251681   0.134   3.715  -0.068 -0.0283 -1.5989 -0.8215
10064TIP3   OH251682   4.760   5.628  14.535 -0.2443 -0.0084  0.3425
10064TIP3    H151683   4.747   5.721  14.515  1.3481 -0.1974 -2.0960
10064TIP3    H251684   4.693   5.584  14.484  0.9106 -0.2709 -1.0461
10065TIP3   OH251685   1.581   6.567   1.435  0.3008 -0.0663  0.0294
10065TIP3    H151686   1.653   6.521   1.477 -1.5372 -1.0301  2.3886
10065TIP3    H251687   1.506   6.553   1.494 -1.3265  2.5985 -1.2190
10066TIP3   OH251688   5.621   5.231   2.931 -0.2130 -0.2242  0.1504
10066TIP3    H151689   5.556   5.176   2.974 -0.7620  0.6951  0.5120
10066TIP3    H251690   5.702   5.216   2.980 -0.6747  0.2916  1.0953
10067TIP3   OH251691   1.103   0.147   0.878 -0.1786 -0.6524  0.4779
10067TIP3    H151692   1.091   0.071   0.934 -0.2321 -0.4614  0.7275
10067TIP3    H251693   1.110   0.111   0.790  2.0057 -1.1382  0.7917
10068TIP3   OH251694   5.686   4.020  10.750 -0.1232  0.4680  0.0035
10068TIP3    H151695   5.597   4.051  10.732  0.4800  1.9155 -0.6155
10068TIP3    H251696   5.680   3.982  10.838 -0.7170  3.3767  1.3288
10069TIP3   OH251697   1.686   0.375  16.827  0.0003 -0.1545 -0.0555
10069TIP3    H151698   1.665   0.453  16.879 -0.9358 -1.4738  1.6462
10069TIP3    H251699   1.608   0.360  16.774 -1.1874 -1.6582  1.9421
10070TIP3   OH251700   1.645   6.477  16.499  0.1584  0.2086 -0.0044
10070TIP3    H151701   1.681   6.553  16.453 -2.8499  1.2814 -0.8636
10070TIP3    H251702   1.612   6.512  16.581 -1.3337 -0.0952 -0.4408
10071TIP3   OH251703   1.719   6.310  13.857 -0.0324 -0.4770  0.0036
10071TIP3    H151704   1.630   6.286  13.833  0.1008  0.3348 -1.4524
10071TIP3    H251705   1.733   6.395  13.814  1.5328 -0.7348 -0.0585
10072TIP3   OH251706   4.482   2.625   5.008  0.3479  0.1514  0.3716
10072TIP3    H151707   4.505   2.668   4.925 -1.6220  0.7492  0.1032
10072TIP3    H251708   4.505   2.533   4.994 -1.3476 -0.0586 -1.4544
10073TIP3   OH251709   5.176   0.943  13.725  0.0667 -0.5782 -0.1403
10073TIP3    H151710   5.168   0.910  13.814  0.8913  0.9162  0.5247
10073TIP3    H251711   5.086   0.951  13.693 -0.2585 -0.5786  0.7602
10074TIP3   OH251712   3.221   0.481   5.431  0.1517 -0.1550 -0.2409
10074TIP3    H151713   3.261   0.539   5.495 -2.7932  0.5375  1.1677
10074TIP3    H251714   3.284   0.476   5.360  1.9246  2.1376  1.0309
10075TIP3   OH251715   0.160   4.848   6.198  0.0373 -0.5487  0.1480
10075TIP3    H151716   0.213   4.847   6.119 -0.6655  0.9559 -0.3893
10075TIP3    H251717   0.223   4.855   6.269  0.6277 -0.6447 -0.3578
10076TIP3   OH251718   3.168   3.282   1.218 -0.5453 -0.0993 -0.1724
10076TIP3    H151719   3.225   3.329   1.280  2.4799 -1.9427 -1.3073
10076TIP3    H251720   3.170   3.336   1.139 -1.4159  0.4385  0.1623
10077TIP3   OH251721   1.707   3.006   2.547 -0.2183  0.3843 -0.1364
10077TIP3    H151722   1.696   3.097   2.575  2.1954 -0.2906  3.7049
10077TIP3    H251723   1.785   3.007   2.492  1.1923  0.4641  1.7560
10078TIP3   OH251724   6.085   1.291   5.410 -0.4282 -0.5172 -0.1526
10078TIP3    H151725   6.096   1.324   5.320  1.3062 -0.5596  0.0064
10078TIP3    H251726   6.162   1.235   5.424 -0.1789  0.2202  1.6582
10079TIP3   OH251727   0.353   2.627  14.697  0.0425  0.1105  0.1253
10079TIP3    H151728   0.334   2.689  14.627 -1.0153 -2.1671 -1.7062
10079TIP3    H251729   0.270   2.621  14.746  0.5834  1.1907  1.2326
10080TIP3   OH251730   3.963   4.952  16.609  0.3917  0.1129  0.2820
10080TIP3    H151731   3.948   4.973  16.701  1.4284 -2.6804  1.1996
10080TIP3    H251732   4.025   4.879  16.611 -2.3226 -2.5914 -2.4490
10081TIP3   OH251733   2.727   3.250  16.181  0.5651 -0.1010  0.9610
10081TIP3    H151734   2.643   3.210  16.158 -0.1968  2.0803 -0.3846
10081TIP3    H251735   2.786   3.176  16.192 -1.2695 -1.6608  0.8596
10082TIP3   OH251736   5.396   2.406  12.104  0.1937 -0.6945  0.1385
10082TIP3    H151737   5.479   2.394  12.149 -0.0543  0.2377  0.8726
10082TIP3    H251738   5.411   2.370  12.016  1.8288  0.7139 -0.2298
10083TIP3   OH251739   6.696   6.204   3.866 -0.5324  0.1621 -0.1092
10083TIP3    H151740   6.712   6.296   3.888 -0.1754 -0.1502  0.9976
10083TIP3    H251741   6.780   6.160   3.880 -0.8241 -0.4175 -0.1289
10084TIP3   OH251742   5.487   2.869  16.516  0.2168  0.2137 -0.2732
10084TIP3    H151743   5.539   2.874  16.596  0.2489 -2.2286 -0.0658
10084TIP3    H251744   5.528   2.933  16.457  0.5456  1.6417  1.4185
10085TIP3   OH251745   1.532   5.151   2.547  0.1916  0.2321  0.3899
10085TIP3    H151746   1.536   5.057   2.567  1.2857  0.4759  1.4313
10085TIP3    H251747   1.493   5.155   2.460 -2.3878 -1.0271  1.3907
10086TIP3   OH251748   3.175   4.740   5.081 -0.5936  0.1739 -0.0994
10086TIP3    H151749   3.200   4.660   5.126 -0.6158 -0.5495 -1.3460
10086TIP3    H251750   3.100   4.774   5.131  0.9746  0.8226  1.9506
10087TIP3   OH251751   0.104   6.166  14.875  0.3719  0.0220 -0.3301
10087TIP3    H151752   0.180   6.125  14.834  0.2606 -0.7047  0.1797
10087TIP3    H251753   0.037   6.166  14.807  0.8548  0.7986 -0.8317
10088TIP3   OH251754   1.098   5.978  11.451  0.0288  0.0659 -0.4066
10088TIP3    H151755   1.028   6.040  11.431 -0.0737  0.0627 -0.0549
10088TIP3    H251756   1.151   5.976  11.371  0.5549  1.2942 -0.1131
10089TIP3   OH251757   4.862   3.593  13.641  0.3509  0.1088  0.5810
10089TIP3    H151758   4.884   3.546  13.560  0.4248  1.4585 -0.2031
10089TIP3    H251759   4.888   3.532  13.710 -1.8801 -2.1072 -0.3562
10090TIP3   OH251760   6.609   5.257   0.900 -0.0595 -0.5397  0.0796
10090TIP3    H151761   6.560   5.177   0.878 -4.4552  1.1374  2.4139
10090TIP3    H251762   6.625   5.250   0.994  0.2627  0.9374  0.1549
10091TIP3   OH251763   6.490   2.760  10.418  0.2148  0.0973 -0.3624
10091TIP3    H151764   6.404   2.791  10.390  0.1045 -1.6655 -2.2401
10091TIP3    H251765   6.552   2.822  10.379 -0.1412  0.5346 -0.2385
10092TIP3   OH251766   4.208   4.795  16.471 -0.5757  0.1252  0.0098
10092TIP3    H151767   4.177   4.857  16.404  0.7778 -0.7812 -1.5139
10092TIP3    H251768   4.258   4.850  16.532 -0.0216  0.6664 -0.9052
10093TIP3   OH251769   0.577   6.752  13.241  0.0874  0.1100  0.2671
10093TIP3    H151770   0.543   6.746  13.330 -0.9953 -0.8702 -0.1902
10093TIP3    H251771   0.505   6.792  13.191  0.5627  0.3547 -0.2241
10094TIP3   OH251772   2.043   1.447   1.762  0.0096  0.2635  0.3426
10094TIP3    H151773   2.002   1.375   1.810 -0.5607 -0.3389 -1.0023
10094TIP3    H251774   2.040   1.420   1.671 -1.2115  2.4701 -0.3444
10095TIP3   OH251775   1.898   1.521  15.189  0.0190 -0.6016  0.0871
10095TIP3    H151776   1.874   1.458  15.120  0.8654 -0.8932  0.0429
10095TIP3    H251777   1.993   1.515  15.194 -0.0018 -0.2614  0.9902
10096TIP3   OH251778   2.554   1.372  13.234 -0.2425  1.0672  0.2370
10096TIP3    H151779   2.575   1.286  13.269  0.9411  0.9039 -0.8106
10096TIP3    H251780   2.563   1.431  13.309  0.7268  0.5142  0.5753
10097TIP3   OH251781   0.889   2.247  15.003  0.6930 -0.0792 -0.1378
10097TIP3    H151782   0.800   2.259  14.971  0.8428  0.8723 -0.2339
10097TIP3    H251783   0.878   2.205  15.088  0.2457 -1.6096 -0.9254
10098TIP3   OH251784   5.162   4.685  11.567 -0.0886  0.5133  0.0815
10098TIP3    H151785   5.130   4.733  11.492  0.8851 -0.2911 -0.8858
10098TIP3    H251786   5.125   4.597  11.558  1.0630  0.0303 -0.2030
10099TIP3   OH251787   1.397   5.402  14.439 -0.2142  0.5661  0.3106
10099TIP3    H151788   1.407   5.328  14.499  1.3991  0.5275  0.0387
10099TIP3    H251789   1.447   5.473  14.480 -2.3521  1.8054  0.9531
10100TIP3   OH251790   3.808   1.196  14.370  0.0076  0.0205 -0.0664
10100TIP3    H151791   3.866   1.158  14.303 -1.8629 -2.9946 -0.1447
10100TIP3    H251792   3.726   1.212  14.324 -0.2631  1.1431  0.7798
10101TIP3   OH251793   1.018   5.449   1.689  0.2772 -0.3092  0.3488
10101TIP3    H151794   1.032   5.458   1.784 -0.5591  0.4889  0.4042
10101TIP3    H251795   0.931   5.411   1.682  0.5597 -0.8766 -0.0965
10102TIP3   OH251796   2.239   4.097   5.607 -0.2996  0.1360  0.2277
10102TIP3    H151797   2.192   4.077   5.526  1.7683 -0.1882 -0.9755
10102TIP3    H251798   2.261   4.011   5.643  0.2839  0.2626  0.1827
10103TIP3   OH251799   1.472   2.338  16.562  0.2219 -0.7287 -0.1057
10103TIP3    H151800   1.552   2.309  16.519  2.5087  0.0395  3.2463
10103TIP3    H251801   1.489   2.429  16.586 -1.9784 -0.3114  0.0755
10104TIP3   OH251802   2.578   6.369   2.016 -0.0889 -0.6431 -0.4290
10104TIP3    H151803   2.532   6.316   1.951 -2.1750 -1.0010  1.1974
10104TIP3    H251804   2.652   6.315   2.044 -0.2856 -1.2867 -1.1310
10105TIP3   OH251805   1.644   6.665   3.572 -0.0949 -0.7502 -0.1155
10105TIP3    H151806   1.724   6.664   3.626 -0.4357  1.0269  0.4921
10105TIP3    H251807   1.676   6.663   3.482  0.5709 -1.5412  0.1213
10106TIP3   OH251808   3.121   2.132  14.284  0.5918  0.4098  0.3271
10106TIP3    H151809   3.155   2.042  14.286 -0.3471  0.0493  0.3346
10106TIP3    H251810   3.109   2.150  14.191 -0.8682 -0.1145  0.3970
10107TIP3   OH251811   4.376   6.388   2.276 -0.4484  1.2041  0.6008
10107TIP3    H151812   4.340   6.299   2.281  1.5950  0.2859  0.0165
10107TIP3    H251813   4.400   6.409   2.366  0.0081  0.7261  0.5991
10108TIP3   OH251814   3.886   5.864  16.959 -0.3557 -0.5078  0.1126
10108TIP3    H151815   3.843   5.919  16.894  2.1784  1.3334 -0.1733
10108TIP3    H251816   3.848   5.892  17.043 -0.1613  0.6823 -0.1754
10109TIP3   OH251817   6.249   0.528   4.660  0.3945  0.2989 -0.1600
10109TIP3    H151818   6.208   0.591   4.600  1.8090  1.5499  0.1321
10109TIP3    H251819   6.218   0.442   4.630 -0.6332  1.0451 -1.3169
10110TIP3   OH251820   0.861   2.361  16.164 -0.2213  0.8640  0.2848
10110TIP3    H151821   0.872   2.295  16.096  0.1244 -1.1437  2.1910
10110TIP3    H251822   0.770   2.391  16.154 -0.5727 -0.3402 -0.2689
10111TIP3   OH251823   0.113   1.996   1.391  0.0630 -0.1297  0.5816
10111TIP3    H151824   0.040   2.026   1.337 -0.4197 -1.0117  0.7252
10111TIP3    H251825   0.148   2.076   1.430 -0.7111  0.3305  0.3609
10112TIP3   OH251826   2.614   6.369   6.295  0.4478  0.0269  0.3177
10112TIP3    H151827   2.627   6.309   6.368  3.9013  0.3266  0.1471
10112TIP3    H251828   2.646   6.453   6.327  0.8603  0.4498 -1.1304
10113TIP3   OH251829   2.573   5.403  13.495  0.0278  0.0817 -0.2504
10113TIP3    H151830   2.597   5.370  13.408 -2.1122 -0.8057 -0.5752
10113TIP3    H251831   2.527   5.485  13.478 -0.6011 -0.2101  0.0072
10114TIP3   OH251832   5.352   1.877  14.257  0.0003 -0.7483  0.5541
10114TIP3    H151833   5.370   1.824  14.335  0.8152  1.5825  2.0432
10114TIP3    H251834   5.438   1.901  14.223 -0.3174 -2.2959 -1.5736
10115TIP3   OH251835   2.429   2.499   3.563  0.0782 -0.4085  0.4360
10115TIP3    H151836   2.491   2.572   3.569 -0.2533 -0.0094 -0.7810
10115TIP3    H251837   2.389   2.508   3.477 -0.7172 -1.4403  0.6752
10116TIP3   OH251838   4.748   4.071  12.216 -0.4769  0.2647  1.2784
10116TIP3    H151839   4.665   4.094  12.174 -0.5432  0.1177  1.3296
10116TIP3    H251840   4.722   4.033  12.300 -0.3283  1.0887  1.7074
10117TIP3   OH251841   1.527   5.186   4.019  0.2185 -0.1677 -0.0965
10117TIP3    H151842   1.479   5.113   4.057  0.2119 -1.5125 -2.4718
10117TIP3    H251843   1.474   5.214   3.944 -0.4190  3.1853  1.4129
10118TIP3   OH251844   6.024   2.036  15.672 -0.2320  0.1854  0.6700
10118TIP3    H151845   6.074   1.960  15.642 -2.0319 -0.6147 -0.4645
10118TIP3    H251846   6.090   2.098  15.701  1.3370 -1.4260  0.7036
10119TIP3   OH251847   2.160   5.794  11.793  0.6614  0.2788 -0.3907
10119TIP3    H151848   2.089   5.731  11.778  1.1443 -0.3084 -0.2393
10119TIP3    H251849   2.145   5.863  11.728 -1.4188  1.3788  1.1226
10120TIP3   OH251850   1.774   4.847  16.144  0.2857 -0.4038 -0.0818
10120TIP3    H151851   1.783   4.828  16.237 -0.2452 -1.5120 -0.2373
10120TIP3    H251852   1.857   4.819  16.105  1.1384  1.5098  0.2410
10121TIP3   OH251853   2.956   0.794   6.651 -0.2907 -0.2689  0.6181
10121TIP3    H151854   2.978   0.702   6.663 -0.9461 -0.7961 -1.6229
10121TIP3    H251855   2.874   0.793   6.602 -0.9063  1.5371  1.5068
10122TIP3   OH251856   4.820   1.158   1.079  0.0640 -0.5278 -0.2395
10122TIP3    H151857   4.831   1.235   1.023  0.5561 -1.0320 -0.8665
10122TIP3    H251858   4.873   1.090   1.036  2.5192 -0.2959  2.1288
10123TIP3   OH251859   1.796   0.281   4.249 -0.3787 -0.2855  0.5364
10123TIP3    H151860   1.776   0.375   4.255  1.8768  0.1919  2.0094
10123TIP3    H251861   1.851   0.273   4.172 -1.8154 -0.7175 -0.4906
10124TIP3   OH251862   3.756   1.617  15.296  0.1278 -0.2412  0.1450
10124TIP3    H151863   3.786   1.619  15.205  0.9014 -2.1275  0.3204
10124TIP3    H251864   3.728   1.527  15.311 -0.6930  0.2172  1.5672
10125TIP3   OH251865   3.966   4.500  16.293  0.1726 -0.6008 -0.2296
10125TIP3    H151866   4.055   4.510  16.326 -0.8360  1.4570  2.2199
10125TIP3    H251867   3.964   4.551  16.212  1.3204 -1.1760 -0.6424
10126TIP3   OH251868   0.279   0.693  10.767 -0.2448  0.2988 -0.4040
10126TIP3    H151869   0.338   0.706  10.841 -0.4868  0.9220 -0.3153
10126TIP3    H251870   0.314   0.616  10.722  1.6600  1.6031 -1.3217
10127TIP3   OH251871   4.882   3.459   4.085  0.8929  0.5276 -0.1186
10127TIP3    H151872   4.955   3.520   4.085  0.9234  0.5165 -1.1940
10127TIP3    H251873   4.831   3.482   4.162  1.8170  0.7870  0.4330
10128TIP3   OH251874   3.385   1.618  12.897  0.3799  0.3624  0.1458
10128TIP3    H151875   3.450   1.548  12.895  1.3079  1.1784 -2.1798
10128TIP3    H251876   3.410   1.676  12.825 -2.1929  1.4009 -0.0284
10129TIP3   OH251877   1.697   4.326   5.365  0.4366  0.4457  0.3042
10129TIP3    H151878   1.641   4.380   5.421 -0.2993 -0.3935  0.3889
10129TIP3    H251879   1.643   4.251   5.341  1.9138 -1.0649  1.4399
10130TIP3   OH251880   3.764   4.552   1.604 -0.2250  0.0208 -0.1396
10130TIP3    H151881   3.727   4.603   1.677 -0.9067 -2.8977  1.7554
10130TIP3    H251882   3.707   4.571   1.530 -0.0300  2.4534  0.2604
10131TIP3   OH251883   6.748   2.270   3.808 -0.2133  0.0526  0.2512
10131TIP3    H151884   6.797   2.192   3.836 -1.5346 -0.6059  0.8275
10131TIP3    H251885   6.746   2.264   3.712  0.4482 -0.1476  0.2464
10132TIP3   OH251886   1.665   4.194   6.095  0.5175  0.6336  0.2770
10132TIP3    H151887   1.653   4.113   6.144 -1.4332  0.8318  0.1974
10132TIP3    H251888   1.661   4.263   6.162 -0.4356  0.7990  0.0647
10133TIP3   OH251889   1.774   0.381   0.933  0.0856  0.0058 -0.0966
10133TIP3    H151890   1.817   0.407   1.015  0.3690 -1.1411  0.1310
10133TIP3    H251891   1.797   0.451   0.872  0.3838  0.5661  0.6303
10134TIP3   OH251892   4.708   3.007   2.613 -0.3694  0.0254  0.0919
10134TIP3    H151893   4.691   3.100   2.628 -1.8722 -0.2834  0.4298
10134TIP3    H251894   4.728   2.973   2.701 -0.3331 -0.0740  0.0449
10135TIP3   OH251895   2.378   2.249   6.874  0.0822 -0.0294  0.0118
10135TIP3    H151896   2.380   2.329   6.927  0.0762  0.3037 -0.4809
10135TIP3    H251897   2.304   2.262   6.815 -0.6357 -0.9013  0.6811
10136TIP3   OH251898   5.746   5.490   6.152  0.0712 -0.0024 -0.3296
10136TIP3    H151899   5.699   5.407   6.148  0.2253 -0.1514  0.7716
10136TIP3    H251900   5.716   5.538   6.074  0.4886 -1.3382 -1.3532
10137TIP3   OH251901   0.582   2.829   5.219 -0.3502 -0.5475 -0.1596
10137TIP3    H151902   0.656   2.771   5.233 -0.6325 -1.2133 -1.2966
10137TIP3    H251903   0.511   2.789   5.270  0.3569  0.8077  2.0187
10138TIP3   OH251904   4.542   4.610  11.444 -0.1103  0.0216 -0.0340
10138TIP3    H151905   4.621   4.571  11.480  0.7653  2.2645  0.6174
10138TIP3    H251906   4.541   4.699  11.478 -1.8713  0.6828 -1.6275
10139TIP3   OH251907   3.499   2.118  13.559 -0.6038 -0.3428  0.0751
10139TIP3    H151908   3.531   2.093  13.473 -0.0282 -1.5582  0.6224
10139TIP3    H251909   3.406   2.137  13.546 -1.0692 -2.7047 -0.4169
10140TIP3   OH251910   4.717   6.494  14.853 -0.0360  0.3924 -0.3386
10140TIP3    H151911   4.755   6.492  14.941  1.5410 -2.6254 -0.9382
10140TIP3    H251912   4.623   6.485  14.867  0.1425  0.5281  1.0486
10141TIP3   OH251913   6.415   5.274  15.843  0.3199 -0.1799  0.2397
10141TIP3    H151914   6.390   5.350  15.895  1.8524  0.5105  0.0517
10141TIP3    H251915   6.379   5.292  15.756 -0.5417 -0.3715  0.5496
10142TIP3   OH251916   3.939   3.938  14.399 -0.1487 -0.7416 -0.4558
10142TIP3    H151917   3.846   3.922  14.414  0.2915 -2.4482  0.7098
10142TIP3    H251918   3.943   4.027  14.364 -2.0143  0.3256  1.8234
10143TIP3   OH251919   1.201   4.760   5.183  0.6985 -0.1304  0.8199
10143TIP3    H151920   1.198   4.851   5.213  2.0372 -0.7248  2.9673
10143TIP3    H251921   1.109   4.733   5.183  0.1291  1.5428 -1.1278
10144TIP3   OH251922   1.800   0.359  14.328  0.1959 -0.5083  0.2537
10144TIP3    H151923   1.818   0.346  14.235 -0.3925 -0.5062  0.1311
10144TIP3    H251924   1.821   0.275  14.368 -0.5291 -0.8475 -0.0456
10145TIP3   OH251925   2.828   0.993   6.002  0.5238 -0.6416  0.1053
10145TIP3    H151926   2.859   0.971   6.089  1.9791 -0.3123 -0.2885
10145TIP3    H251927   2.733   0.999   6.010  0.7215  0.7102  1.9724
10146TIP3   OH251928   4.112   2.071   0.445  0.2918  0.2812  0.0329
10146TIP3    H151929   4.017   2.072   0.452  0.2046 -1.1425 -0.5434
10146TIP3    H251930   4.143   2.064   0.536 -0.1802  0.0250  0.1763
10147TIP3   OH251931   0.415   3.376   3.889 -0.2138  0.0560  0.4877
10147TIP3    H151932   0.323   3.360   3.911 -0.1578 -0.7665  0.1434
10147TIP3    H251933   0.439   3.303   3.833  0.5088  0.5399  0.1536
10148TIP3   OH251934   2.813   2.162   5.802 -0.0338 -0.0949  0.6438
10148TIP3    H151935   2.797   2.254   5.783 -0.1361  0.7133  3.9762
10148TIP3    H251936   2.905   2.147   5.780 -0.7180 -0.1002 -2.6524
10149TIP3   OH251937   6.074   5.789   1.414 -0.6170  0.6330  0.0007
10149TIP3    H151938   6.096   5.813   1.323 -3.0665  1.9197 -0.3350
10149TIP3    H251939   6.140   5.835   1.467  1.2215 -0.6132 -1.0756
10150TIP3   OH251940   1.348   5.303  11.546  0.1868 -0.0867  0.3882
10150TIP3    H151941   1.439   5.334  11.549 -0.0221  0.4725  3.3642
10150TIP3    H251942   1.303   5.367  11.491  1.5273 -0.3460 -1.0908
10151TIP3   OH251943   5.843   4.157   5.046 -0.4209 -0.6380 -0.0380
10151TIP3    H151944   5.790   4.213   5.102  0.2032 -1.7537  1.7584
10151TIP3    H251945   5.933   4.186   5.062 -0.2914 -0.4536 -1.0721
10152TIP3   OH251946   0.297   6.639  12.020 -0.2702  0.5110 -0.0768
10152TIP3    H151947   0.255   6.608  11.940 -1.8338  0.5150  0.7042
10152TIP3    H251948   0.288   6.567  12.082  1.3746  0.3079 -0.0118
10153TIP3   OH251949   3.047   5.897   2.619  0.5814 -0.1385  0.6672
10153TIP3    H151950   3.014   5.864   2.535  0.5394  0.7400  0.3328
10153TIP3    H251951   3.134   5.858   2.627 -0.4630 -2.4845  1.5551
10154TIP3   OH251952   6.294   2.698  10.821 -0.1515 -0.5892 -0.2227
10154TIP3    H151953   6.329   2.777  10.861 -0.6835  0.3353 -1.4956
10154TIP3    H251954   6.329   2.626  10.874 -2.6003  0.5615  3.2922
10155TIP3   OH251955   0.412   3.958  11.932 -0.0215 -0.4025  0.0533
10155TIP3    H151956   0.425   4.007  11.851 -1.3901 -2.5246 -1.5557
10155TIP3    H251957   0.501   3.942  11.965  0.5548  0.4321 -1.0402
10156TIP3   OH251958   2.074   2.962   5.793 -0.2132  0.1996  0.3375
10156TIP3    H151959   1.997   2.910   5.770 -1.8016  3.5548 -3.1554
10156TIP3    H251960   2.047   3.015   5.868 -0.2056 -0.6487  0.9540
10157TIP3   OH251961   2.562   4.448   0.170 -0.5412 -0.3304  0.6351
10157TIP3    H151962   2.646   4.473   0.133 -0.5998 -0.6298  0.3008
10157TIP3    H251963   2.541   4.363   0.130 -1.1904 -0.0709  0.4015
10158TIP3   OH251964   0.519   6.478   4.717  0.3156 -0.6065  0.0894
10158TIP3    H151965   0.486   6.437   4.797 -0.5897  1.9500  1.1404
10158TIP3    H251966   0.614   6.468   4.721  0.3230 -0.1256  1.7733
10159TIP3   OH251967   5.651   5.256  16.998  0.2515 -0.6778  0.1923
10159TIP3    H151968   5.649   5.290  16.908  0.7201  0.7877  0.7079
10159TIP3    H251969   5.694   5.171  16.991  1.2631 -0.1016 -0.8330
10160TIP3   OH251970   5.177   2.287  15.215 -0.2853  0.1864  0.0223
10160TIP3    H151971   5.229   2.360  15.182 -2.3769  1.9031  0.2341
10160TIP3    H251972   5.143   2.245  15.136  3.5994 -2.8961 -0.3003
10161TIP3   OH251973   3.418   2.524  16.773 -0.1774  0.2405 -0.8324
10161TIP3    H151974   3.490   2.577  16.739  1.3890  0.0354  1.9197
10161TIP3    H251975   3.372   2.581  16.834  0.9675 -1.1630  1.4685
10162TIP3   OH251976   4.790   2.032   6.106  0.3123 -0.1654 -0.2738
10162TIP3    H151977   4.718   2.085   6.072 -0.2910 -0.8876 -0.1462
10162TIP3    H251978   4.844   2.094   6.155  0.3789  0.5936 -1.2739
10163TIP3   OH251979   4.488   3.926  16.459  0.1330  0.1698  0.1858
10163TIP3    H151980   4.449   3.926  16.547  1.6657 -1.2072  0.9272
10163TIP3    H251981   4.458   4.008  16.420 -1.4674  0.3227  1.5841
10164TIP3   OH251982   0.393   5.073  15.405 -0.5330  0.6105 -0.2730
10164TIP3    H151983   0.338   5.148  15.384 -1.1519  0.5821  1.0950
10164TIP3    H251984   0.419   5.087  15.497 -0.3093 -0.6265 -0.1253
10165TIP3   OH251985   2.005   3.932  14.190 -0.1445  0.0165  0.0217
10165TIP3    H151986   2.022   3.961  14.279  1.2149 -0.4572 -0.0692
10165TIP3    H251987   1.949   4.000  14.153  0.3872  0.9035  0.8158
10166TIP3   OH251988   5.824   5.321   1.408  0.1622  0.2146 -0.2704
10166TIP3    H151989   5.839   5.234   1.445  0.2134  0.6263  0.7108
10166TIP3    H251990   5.776   5.305   1.327  0.1559 -0.7262 -0.0888
10167TIP3   OH251991   0.439   1.947  16.157  0.5585 -0.0030 -0.1768
10167TIP3    H151992   0.420   1.855  16.137 -1.1010  0.1112  0.7573
10167TIP3    H251993   0.356   1.993  16.144  1.2303  1.2820 -0.0920
10168TIP3   OH251994   4.500   6.352   3.055 -0.1959  0.1531  0.0496
10168TIP3    H151995   4.515   6.439   3.090  0.7349  0.0189  0.0248
10168TIP3    H251996   4.536   6.293   3.121  0.9632 -0.1236 -0.7974
10169TIP3   OH251997   2.247   1.418  16.019  0.7014 -0.5402 -0.6759
10169TIP3    H151998   2.236   1.470  15.940  1.0308  1.4191  0.5018
10169TIP3    H251999   2.209   1.471  16.089  0.5846 -2.1279  0.5417
10170TIP3   OH252000   0.169   4.443   5.179 -0.0066 -0.4182 -0.6257
10170TIP3    H152001   0.217   4.518   5.215  1.2119 -1.6189  0.3359
10170TIP3    H252002   0.235   4.375   5.170 -0.8323 -1.0377 -2.6370
10171TIP3   OH252003   5.860   3.607   3.710 -0.2739 -0.3529  0.3773
10171TIP3    H152004   5.822   3.519   3.719 -1.3763 -0.0273 -0.7384
10171TIP3    H252005   5.853   3.646   3.797 -1.1371 -0.8552  0.5428
10172TIP3   OH252006   2.955   4.906   1.793 -0.4694 -0.3624  0.1323
10172TIP3    H152007   2.909   4.838   1.744  1.2196 -0.4895 -1.3845
10172TIP3    H252008   3.022   4.858   1.842  0.5191  0.1427 -0.6953
10173TIP3   OH252009   4.726   2.378  16.975 -0.2846 -0.2927 -0.5580
10173TIP3    H152010   4.683   2.397  17.059 -1.2438  0.0239 -1.1058
10173TIP3    H252011   4.814   2.348  16.999 -0.4826 -0.0189  0.5494
10174TIP3   OH252012   4.648   0.946  12.642  0.0488 -0.3841 -0.0070
10174TIP3    H152013   4.634   1.019  12.582  0.7345  0.3228  0.6859
10174TIP3    H252014   4.564   0.900  12.642 -0.5431  0.6561 -0.1052
10175TIP3   OH252015   3.744   0.268  14.642  0.1708  0.0273  0.2703
10175TIP3    H152016   3.649   0.268  14.636  0.0324  0.2129  2.0605
10175TIP3    H252017   3.765   0.208  14.713  1.5143 -1.2834 -1.1488
10176TIP3   OH252018   5.854   2.982  17.010 -0.6506  0.4423 -0.2025
10176TIP3    H152019   5.795   2.979  16.935  0.4802 -0.2171 -1.0921
10176TIP3    H252020   5.941   2.990  16.972  0.0717 -1.2982  0.9533
10177TIP3   OH252021   6.152   0.584  11.889 -0.0564 -0.1171  0.0219
10177TIP3    H152022   6.232   0.538  11.913  0.1086  0.7106  1.1588
10177TIP3    H252023   6.135   0.642  11.963  0.0501  2.0557 -1.5721
10178TIP3   OH252024   5.174   2.771   1.869  0.2449 -0.3745 -0.2696
10178TIP3    H152025   5.195   2.715   1.944  1.6147 -0.4180 -0.6516
10178TIP3    H252026   5.248   2.757   1.808 -1.8993 -2.1595 -2.6957
10179TIP3   OH252027   4.597   6.044   5.286 -0.6570 -0.0646 -0.1662
10179TIP3    H152028   4.637   5.975   5.232  0.3713  0.3581  0.0314
10179TIP3    H252029   4.657   6.054   5.360 -0.1749  1.8042 -0.7491
10180TIP3   OH252030   6.230   1.990   1.106 -0.2764  0.1041  0.6647
10180TIP3    H152031   6.138   1.997   1.129 -0.5592 -0.7100 -0.1341
10180TIP3    H252032   6.243   2.055   1.037 -0.3969 -0.1498  0.3981
10181TIP3   OH252033   2.076   1.790   3.023 -0.2665 -0.0576  0.1649
10181TIP3    H152034   2.072   1.879   3.058  1.7909  0.5081 -0.8365
10181TIP3    H252035   2.100   1.802   2.931  1.7161 -1.6572  0.4011
10182TIP3   OH252036   0.892   0.153   5.283  0.1898 -0.2245  0.7660
10182TIP3    H152037   0.799   0.134   5.295 -0.1923  1.8789  1.5677
10182TIP3    H252038   0.923   0.181   5.370  1.8537 -1.8206  0.7622
10183TIP3   OH252039   3.448   3.974   4.199  1.0928  0.4683 -0.1138
10183TIP3    H152040   3.510   3.925   4.145  1.6231 -0.7957  1.5520
10183TIP3    H252041   3.362   3.936   4.178  1.2471  0.2557 -0.3549
10184TIP3   OH252042   3.151   5.951  11.139 -0.0366 -0.9093  0.0156
10184TIP3    H152043   3.071   5.972  11.091  0.3354 -0.7639 -0.5519
10184TIP3    H252044   3.199   5.892  11.081 -0.4551 -2.2970  1.0328
10185TIP3   OH252045   2.119   3.352  15.337 -0.6070  0.3596 -0.8891
10185TIP3    H152046   2.144   3.389  15.422  0.7830 -1.0572 -0.6386
10185TIP3    H252047   2.059   3.281  15.358  1.7406 -1.7371 -0.7895
10186TIP3   OH252048   1.138   5.128   4.685 -0.0298 -0.3248  0.1011
10186TIP3    H152049   1.203   5.086   4.628  0.5097  1.3130 -0.5441
10186TIP3    H252050   1.189   5.185   4.742 -0.8295  0.5410 -0.0153
10187TIP3   OH252051   1.567   0.959  17.056  0.2265  0.3031  0.6798
10187TIP3    H152052   1.655   0.939  17.086 -0.2277 -0.0153  1.8488
10187TIP3    H252053   1.518   0.877  17.065  0.7091 -0.7217 -3.7114
10188TIP3   OH252054   6.017   4.393  13.889  0.5185 -0.1627  0.0529
10188TIP3    H152055   5.967   4.313  13.873  1.3640 -0.6177 -0.3879
10188TIP3    H252056   6.022   4.436  13.804 -2.3857  1.8841  0.7738
10189TIP3   OH252057   4.601   6.730   0.521 -0.3932 -0.0062  0.8075
10189TIP3    H152058   4.632   6.706   0.608  1.0765  0.3196  0.3994
10189TIP3    H252059   4.513   6.693   0.516  0.7745 -3.1828  1.1451
10190TIP3   OH252060   5.458   1.673  17.030 -0.5185 -0.7491  0.1221
10190TIP3    H152061   5.384   1.730  17.049 -0.8118 -1.4129  1.0302
10190TIP3    H252062   5.459   1.666  16.935 -0.4423  0.8033 -0.0145
10191TIP3   OH252063   2.028   3.347  11.695 -0.1005 -0.0155  0.6009
10191TIP3    H152064   2.063   3.415  11.752 -0.2413  0.3630  0.2412
10191TIP3    H252065   2.087   3.272  11.706  0.2807  0.3006  0.6996
10192TIP3   OH252066   1.267   4.038   5.286 -0.4192 -0.0883  1.1862
10192TIP3    H152067   1.253   4.074   5.374 -0.5684  0.2473  1.0263
10192TIP3    H252068   1.179   4.014   5.255 -0.4044  0.1015  0.9968
10193TIP3   OH252069   1.511   1.657  14.288 -0.3515  0.2013  0.4874
10193TIP3    H152070   1.551   1.621  14.366 -0.4558  1.6846  1.2656
10193TIP3    H252071   1.584   1.673  14.228  0.0676  1.3323  1.2535
10194TIP3   OH252072   1.933   4.041   1.007 -0.1419 -0.3655  0.6894
10194TIP3    H152073   1.877   4.119   1.003 -0.1656 -0.4134 -0.0516
10194TIP3    H252074   2.020   4.073   0.985 -0.3494 -0.7288 -0.7305
10195TIP3   OH252075   1.639   6.253   5.891  0.1147 -0.0817  0.3389
10195TIP3    H152076   1.672   6.232   5.804  1.2389  0.1549  0.7003
10195TIP3    H252077   1.588   6.176   5.916  0.5479 -0.5358 -0.1508
10196TIP3   OH252078   5.157   3.693   3.567  0.7814  0.0754  0.2368
10196TIP3    H152079   5.130   3.633   3.498 -0.3861 -1.6258  2.0858
10196TIP3    H252080   5.181   3.774   3.520  2.5528 -1.7808 -2.3523
10197TIP3   OH252081   6.368   3.746  13.168 -0.2549  0.0182  0.6041
10197TIP3    H152082   6.408   3.683  13.108 -0.7298 -0.1269  0.4357
10197TIP3    H252083   6.275   3.727  13.164 -0.2271 -0.5407  2.0212
10198TIP3   OH252084   3.441   1.346  16.596 -0.6186  0.1395  0.8697
10198TIP3    H152085   3.401   1.421  16.552  0.1060  0.1860  0.2718
10198TIP3    H252086   3.370   1.282  16.604 -0.6372 -0.1223 -0.9363
10199TIP3   OH252087   0.174   3.357  13.170  0.2892 -0.3572 -0.4569
10199TIP3    H152088   0.181   3.437  13.118 -0.4532 -0.7341 -1.1630
10199TIP3    H252089   0.227   3.293  13.123 -1.3436 -1.0343 -1.4586
10200TIP3   OH252090   5.599   0.886  15.273 -0.4452 -0.6951 -0.1160
10200TIP3    H152091   5.635   0.859  15.357 -1.4871 -0.1366  0.5337
10200TIP3    H252092   5.508   0.858  15.276 -0.7940  0.3316 -0.5822
10201TIP3   OH252093   2.054   3.631   5.378  0.2855 -0.0582 -0.3489
10201TIP3    H152094   2.002   3.556   5.349  1.1180  0.3526 -3.1246
10201TIP3    H252095   1.990   3.701   5.390 -0.0148  0.0675 -2.3950
10202TIP3   OH252096   0.561   0.106   5.628 -0.0782  0.1596  0.0664
10202TIP3    H152097   0.592   0.126   5.539 -0.5968 -1.6607 -0.5729
10202TIP3    H252098   0.638   0.120   5.684  0.6314  0.0502 -0.8547
10203TIP3   OH252099   3.599   0.527  15.716  0.1284 -0.0136  0.0136
10203TIP3    H152100   3.608   0.446  15.666 -1.1852 -0.3732  0.3097
10203TIP3    H252101   3.580   0.594  15.650  1.8849  0.2167 -0.3042
10204TIP3   OH252102   1.848   4.139  12.692  0.2686 -0.2143 -0.0291
10204TIP3    H152103   1.778   4.146  12.757 -0.7060 -1.1633 -0.9479
10204TIP3    H252104   1.804   4.118  12.611  1.6495 -1.1543 -0.5741
10205TIP3   OH252105   1.085   2.391   0.225 -0.1514 -0.0538  0.1474
10205TIP3    H152106   1.153   2.404   0.291 -1.2961  0.0975  1.3502
10205TIP3    H252107   1.119   2.321   0.169  1.2252  0.4104  0.3630
10206TIP3   OH252108   1.219   3.003   6.403 -0.1864  0.0052  0.2879
10206TIP3    H152109   1.137   2.964   6.373  0.1179 -1.3840  1.1687
10206TIP3    H252110   1.208   3.011   6.498 -0.2448  2.1512  0.1378
10207TIP3   OH252111   5.926   0.196   5.129 -0.4342  0.1039 -0.0289
10207TIP3    H152112   5.991   0.244   5.181  0.1648  2.4191 -2.6940
10207TIP3    H252113   5.873   0.264   5.088 -1.7087 -1.6338 -1.3943
10208TIP3   OH252114   1.382   5.986   0.884  0.1657  0.5773 -1.1878
10208TIP3    H152115   1.460   5.999   0.938  0.7534 -0.3504 -1.7869
10208TIP3    H252116   1.407   6.019   0.797  0.6576 -1.6054 -1.9410
10209TIP3   OH252117   5.970   4.386  13.031 -0.7140 -0.1466  0.1565
10209TIP3    H152118   6.044   4.344  12.988 -0.9391 -1.0693  0.6415
10209TIP3    H252119   5.925   4.315  13.077 -1.7213  0.4489  0.1285
10210TIP3   OH252120   3.747   2.791   0.038  0.0499  0.1623  0.1388
10210TIP3    H152121   3.830   2.789   0.086  0.3434 -1.2592 -0.3858
10210TIP3    H252122   3.682   2.814   0.104  0.9493  2.1875  0.3835
10211TIP3   OH252123   0.647   4.761  15.063 -0.2030  0.1595 -0.0289
10211TIP3    H152124   0.710   4.727  15.127  0.2830  0.5795 -0.2742
10211TIP3    H252125   0.613   4.841  15.103 -0.5840 -0.0705  0.1048
10212TIP3   OH252126   2.464   4.987  13.499 -0.6216  0.1068 -0.0206
10212TIP3    H152127   2.461   5.080  13.521 -0.2410 -0.0768  0.8499
10212TIP3    H252128   2.385   4.950  13.539 -0.6977  0.0274 -0.2423
10213TIP3   OH252129   1.736   0.970   0.463 -0.9223  0.5848 -0.1616
10213TIP3    H152130   1.736   1.037   0.532 -1.2376 -0.2028  0.6205
10213TIP3    H252131   1.656   0.989   0.413 -0.4742  1.4196 -0.5876
10214TIP3   OH252132   4.973   6.064   4.651 -0.0269  0.5870  0.2629
10214TIP3    H152133   5.049   6.107   4.611 -0.1079  0.4505 -0.0406
10214TIP3    H252134   4.903   6.076   4.587  0.3476 -1.4022 -0.5847
10215TIP3   OH252135   4.620   2.348   2.026  0.5069  0.1170 -0.0430
10215TIP3    H152136   4.637   2.385   1.939  1.1692  0.1165  0.0825
10215TIP3    H252137   4.691   2.285   2.039 -0.9322 -1.7233 -0.5366
10216TIP3   OH252138   5.977   1.058  13.263 -0.7289 -0.0002  0.3720
10216TIP3    H152139   6.013   1.140  13.299 -2.0720  0.2637  1.2017
10216TIP3    H252140   5.989   1.067  13.168  0.1809  0.6361  0.5245
10217TIP3   OH252141   5.409   1.870  15.452  0.1449 -0.4814  0.8394
10217TIP3    H152142   5.375   1.849  15.539 -0.7162  0.1186  0.6486
10217TIP3    H252143   5.350   1.936  15.417  1.8388  1.0542  0.7471
10218TIP3   OH252144   2.798   4.730   4.901  0.5788  0.3415  0.2064
10218TIP3    H152145   2.764   4.737   4.812  1.4611 -0.9275 -0.2448
10218TIP3    H252146   2.748   4.659   4.941  0.7348  0.3807  0.4745
10219TIP3   OH252147   1.460   3.735   1.812  0.3278 -0.6479 -0.1455
10219TIP3    H152148   1.454   3.640   1.818  1.6396 -0.8048 -0.9288
10219TIP3    H252149   1.528   3.751   1.746  0.5425  0.8281  0.3893
10220TIP3   OH252150   1.082   1.743  11.940 -0.5029  0.2086  0.1547
10220TIP3    H152151   0.992   1.751  11.907 -0.5981  0.4000  0.4503
10220TIP3    H252152   1.123   1.828  11.920  0.1553 -0.4614 -1.5293
10221TIP3   OH252153   0.590   3.554   4.076  0.3670  0.0079  0.3460
10221TIP3    H152154   0.521   3.501   4.035 -1.1609  1.4711  0.8833
10221TIP3    H252155   0.642   3.587   4.003 -0.5488  0.2453 -0.2131
10222TIP3   OH252156   4.832   2.656   6.059 -0.1324 -0.5797  0.6571
10222TIP3    H152157   4.804   2.572   6.095 -1.2758 -0.6019 -0.2285
10222TIP3    H252158   4.768   2.676   5.990  0.2401  0.9100  0.6966
10223TIP3   OH252159   2.141   3.521  16.706  0.2103 -0.1947 -0.2513
10223TIP3    H152160   2.139   3.508  16.611  0.0482  1.4474 -0.4967
10223TIP3    H252161   2.193   3.448  16.739  0.9243 -0.3603 -1.6817
10224TIP3   OH252162   6.177   2.624   4.498 -0.3812  0.2343  0.2324
10224TIP3    H152163   6.169   2.567   4.575 -0.6885 -0.0471 -0.0024
10224TIP3    H252164   6.233   2.696   4.526  2.8145 -1.8192 -0.3540
10225TIP3   OH252165   5.669   5.804  14.736  0.5040 -0.3998  0.8417
10225TIP3    H152166   5.600   5.839  14.792 -0.4167 -1.9979  0.7626
10225TIP3    H252167   5.744   5.792  14.794  0.3406  0.2643  1.1872
10226TIP3   OH252168   4.978   0.900   4.579  0.4390 -0.3775 -0.4984
10226TIP3    H152169   4.897   0.914   4.529 -1.0151 -3.7646  0.6048
10226TIP3    H252170   5.039   0.865   4.514  0.3033  0.1519 -0.9218
10227TIP3   OH252171   0.059   4.994  15.917  0.3483  0.1733 -0.0785
10227TIP3    H152172   0.028   5.053  15.848 -0.6192 -0.2943 -0.0498
10227TIP3    H252173   0.088   5.053  15.987  1.7683  0.6657 -1.0331
10228TIP3   OH252174   1.155   6.621  12.120  0.0737  0.2306 -0.3358
10228TIP3    H152175   1.109   6.700  12.149  0.9785  0.7780 -0.3595
10228TIP3    H252176   1.137   6.556  12.188  1.4732  1.2447  1.0737
10229TIP3   OH252177   0.163   0.629  12.324  0.1888  0.4479  0.1477
10229TIP3    H152178   0.133   0.539  12.334  0.2946  0.5079  1.1356
10229TIP3    H252179   0.139   0.653  12.234 -0.0903 -0.4655 -0.0287
10230TIP3   OH252180   2.829   4.992  14.549  0.2885 -0.0835 -0.1844
10230TIP3    H152181   2.843   5.085  14.529  1.2203 -0.3475 -0.8065
10230TIP3    H252182   2.737   4.977  14.530 -0.2769  1.0586  1.3563
10231TIP3   OH252183   4.680   6.461  11.361 -0.0644 -0.0177  0.2719
10231TIP3    H152184   4.735   6.444  11.285  0.4179 -0.7501  0.7729
10231TIP3    H252185   4.593   6.477  11.325  0.3194  0.4126 -0.4783
10232TIP3   OH252186   4.630   5.719  14.971  0.0468  0.1852 -0.1315
10232TIP3    H152187   4.700   5.661  14.942  0.6302  0.5621  0.4799
10232TIP3    H252188   4.612   5.775  14.896 -1.1686 -1.3619 -1.0462
10233TIP3   OH252189   1.972   2.595  15.887  0.1036 -0.2079 -1.1643
10233TIP3    H152190   2.032   2.623  15.956 -2.3187 -0.2225  1.0819
10233TIP3    H252191   1.916   2.671  15.871 -1.9233 -1.3951 -0.1418
10234TIP3   OH252192   4.273   3.121   5.282 -0.1415 -0.2430 -0.0413
10234TIP3    H152193   4.192   3.135   5.330  0.1820  3.8036 -0.3528
10234TIP3    H252194   4.342   3.129   5.348  0.1612  2.5064 -0.5604
10235TIP3   OH252195   5.574   4.268  14.564  0.1545  0.0936 -0.1028
10235TIP3    H152196   5.609   4.274  14.653  3.0917 -0.4318 -1.1377
10235TIP3    H252197   5.560   4.359  14.537 -0.8541  0.2527  0.8706
10236TIP3   OH252198   4.003   1.932  14.848 -0.4026  0.2504  0.0373
10236TIP3    H152199   4.044   2.004  14.895  0.4769 -1.1156  1.4487
10236TIP3    H252200   3.915   1.926  14.885 -0.1025 -0.0856  0.7106
10237TIP3   OH252201   1.518   4.807   1.464 -0.2480  0.5525 -0.5009
10237TIP3    H152202   1.554   4.890   1.432  0.0522 -0.1883 -2.1702
10237TIP3    H252203   1.586   4.773   1.522 -0.0326  1.1100 -0.4155
10238TIP3   OH252204   3.694   0.386   5.060  0.1430 -0.0816 -0.2594
10238TIP3    H152205   3.658   0.393   5.148  0.5603 -0.1570 -0.0833
10238TIP3    H252206   3.618   0.368   5.004 -0.1739  0.3341  0.0327
10239TIP3   OH252207   3.295   5.861   2.792  0.7013  0.3322 -0.2027
10239TIP3    H152208   3.260   5.920   2.859 -0.2419 -0.3067 -0.1025
10239TIP3    H252209   3.331   5.919   2.725 -0.2590  1.0322 -0.1398
10240TIP3   OH252210   1.236   2.870  12.931  0.1872  0.2228 -0.4228
10240TIP3    H152211   1.214   2.892  13.021  0.4916  1.7286 -0.6902
10240TIP3    H252212   1.207   2.779  12.921  0.2856 -0.0216  1.2209
10241TIP3   OH252213   4.731   5.564   1.298 -0.0150 -0.7759 -0.4429
10241TIP3    H152214   4.776   5.632   1.247 -0.7872  0.2085  0.1586
10241TIP3    H252215   4.706   5.498   1.233  0.1802 -0.1744 -1.1396
10242TIP3   OH252216   4.330   2.843   0.958  0.0009 -0.8095  0.5097
10242TIP3    H152217   4.413   2.833   0.911 -0.9180 -2.3591 -0.8779
10242TIP3    H252218   4.275   2.895   0.900 -0.5258 -1.1180  0.7226
10243TIP3   OH252219   6.355   4.811   0.370  0.1540  0.0682  0.0042
10243TIP3    H152220   6.354   4.757   0.291  1.1637 -0.6385  0.4543
10243TIP3    H252221   6.322   4.753   0.439 -0.7992  0.7064  0.0965
10244TIP3   OH252222   3.021   3.520  14.447  0.1416 -0.0220 -0.2013
10244TIP3    H152223   3.097   3.512  14.505  0.3881  3.3193  0.1091
10244TIP3    H252224   2.947   3.532  14.506  0.2189  2.1221 -0.4564
10245TIP3   OH252225   2.722   3.534  15.180 -0.0010  0.2226 -0.1041
10245TIP3    H152226   2.654   3.548  15.246  0.6231  3.7086 -0.0088
10245TIP3    H252227   2.673   3.514  15.100 -0.9249 -0.5168  0.6197
10246TIP3   OH252228   4.102   5.850  16.337 -0.3913 -0.2590 -0.2842
10246TIP3    H152229   4.112   5.759  16.364 -2.0266 -0.4704 -0.3135
10246TIP3    H252230   4.187   5.874  16.300 -0.7478 -2.6906 -3.0016
10247TIP3   OH252231   1.100   4.817   4.172 -0.2601  0.0348 -0.0472
10247TIP3    H152232   1.166   4.761   4.212 -0.0212 -0.3007 -0.8765
10247TIP3    H252233   1.144   4.901   4.160  0.6940 -0.6998 -2.2993
10248TIP3   OH252234   2.132   5.021   0.804 -0.2186  0.5556  0.4123
10248TIP3    H152235   2.090   4.949   0.850 -0.3752 -0.2144 -0.8844
10248TIP3    H252236   2.226   5.005   0.816 -0.1337 -1.4472 -2.0416
10249TIP3   OH252237   5.862   0.903   0.039 -0.3969  0.4411  0.3489
10249TIP3    H152238   5.806   0.979   0.056 -1.6581 -0.7762  1.9747
10249TIP3    H252239   5.860   0.853   0.121  2.6819  0.0567  0.3210
10250TIP3   OH252240   6.413   0.082  16.209 -0.5437 -0.2007  0.0014
10250TIP3    H152241   6.358   0.076  16.287  0.8166  0.9657  1.1014
10250TIP3    H252242   6.416   0.176  16.188 -1.3920 -0.5348 -1.8727
10251TIP3   OH252243   2.845   5.134   4.029  0.5486  0.1773  0.1680
10251TIP3    H152244   2.764   5.095   4.062  0.7600  1.0023  1.7438
10251TIP3    H252245   2.907   5.128   4.102  2.3328 -1.4801 -1.3469
10252TIP3   OH252246   1.468   0.981   0.386 -0.1312  0.5229 -0.3061
10252TIP3    H152247   1.451   1.006   0.295  1.8667 -0.5720 -1.0245
10252TIP3    H252248   1.386   0.941   0.415 -1.2621  2.1248 -1.1343
10253TIP3   OH252249   6.055   4.979  14.926  0.5015  0.0254 -0.3777
10253TIP3    H152250   5.985   4.956  14.865 -0.7923 -1.3740  1.5291
10253TIP3    H252251   6.022   5.057  14.972  0.5903 -0.0813 -0.1273
10254TIP3   OH252252   5.955   2.019  13.761  0.0988  0.7422 -0.4480
10254TIP3    H152253   5.959   2.074  13.839  0.7968  2.2206 -1.4725
10254TIP3    H252254   6.046   1.992  13.746 -0.0560  0.3321 -0.6678
10255TIP3   OH252255   4.461   4.442   2.992  0.1803  0.4613 -0.3818
10255TIP3    H152256   4.462   4.480   2.904  1.0710  1.0145 -0.1549
10255TIP3    H252257   4.494   4.353   2.980 -1.2762 -0.0488 -0.8228
10256TIP3   OH252258   2.275   6.160   3.048  0.4710 -0.0079  0.5870
10256TIP3    H152259   2.188   6.181   3.016 -0.6503 -0.4519  3.1253
10256TIP3    H252260   2.300   6.081   3.000 -1.2307 -0.8116  0.9511
10257TIP3   OH252261   1.849   3.372   1.502 -0.8508 -0.3552 -0.2711
10257TIP3    H152262   1.832   3.285   1.465 -0.2021 -0.9231  0.7355
10257TIP3    H252263   1.886   3.422   1.429  1.6901 -1.8475 -0.1317
10258TIP3   OH252264   5.764   6.485   0.373  0.1442 -0.2285  0.5217
10258TIP3    H152265   5.802   6.509   0.288 -2.7050  0.4709 -0.6587
10258TIP3    H252266   5.734   6.395   0.361  1.0355 -0.6417  1.3061
10259TIP3   OH252267   0.339   3.428   4.400  0.1080  0.6694  0.1387
10259TIP3    H152268   0.322   3.458   4.310 -1.7157  1.9845  0.8692
10259TIP3    H252269   0.412   3.483   4.430  1.0454 -0.0961 -0.6486
10260TIP3   OH252270   6.296   3.495   2.475 -0.3782  0.1859  0.6752
10260TIP3    H152271   6.284   3.430   2.405  1.5852  1.7283 -1.2123
10260TIP3    H252272   6.268   3.578   2.436  1.9563  1.3010  1.1724
10261TIP3   OH252273   5.907   0.821   1.952  0.3792 -0.0023 -0.2690
10261TIP3    H152274   5.892   0.750   2.014  1.8963 -0.5507 -0.4812
10261TIP3    H252275   5.837   0.884   1.970  1.4906  0.4870  2.8887
10262TIP3   OH252276   4.977   2.586  14.984 -0.1273 -0.3669 -0.0417
10262TIP3    H152277   4.935   2.578  15.070 -1.1223 -0.9018 -0.5726
10262TIP3    H252278   5.053   2.643  15.001 -0.3076 -0.4533  1.1860
10263TIP3   OH252279   0.752   3.497   5.666  0.1965  0.2496 -0.0204
10263TIP3    H152280   0.834   3.457   5.638  0.1601  0.0427  0.1611
10263TIP3    H252281   0.740   3.573   5.608  1.2481  1.1396  0.8955
10264TIP3   OH252282   4.590   4.123   3.697  0.4883 -0.1466 -0.1910
10264TIP3    H152283   4.668   4.166   3.732 -0.3982  0.7001  0.7911
10264TIP3    H252284   4.547   4.191   3.645  0.0744 -0.4266 -0.2189
10265TIP3   OH252285   2.164   2.092  11.047  0.3206  0.2417  0.3229
10265TIP3    H152286   2.258   2.103  11.029  0.3031 -0.6153 -0.3367
10265TIP3    H252287   2.135   2.179  11.075  1.0896  0.7740 -0.4736
10266TIP3   OH252288   1.537   3.400   3.370 -0.2603 -0.5299  0.0775
10266TIP3    H152289   1.497   3.341   3.434 -0.1632  1.3756  2.0111
10266TIP3    H252290   1.463   3.444   3.328 -0.3010 -0.2431  0.4416
10267TIP3   OH252291   4.568   2.602  15.890  0.7862 -0.0604 -0.0437
10267TIP3    H152292   4.473   2.590  15.888  0.5035  1.8635 -1.5588
10267TIP3    H252293   4.597   2.584  15.801  1.7921 -0.2360  0.3037
10268TIP3   OH252294   5.114   3.279   4.234  0.0673  0.0314  0.4500
10268TIP3    H152295   5.026   3.245   4.222  0.7807 -0.9660 -3.1461
10268TIP3    H252296   5.102   3.374   4.237 -1.1331 -0.0414 -0.7997
10269TIP3   OH252297   1.939   4.598   4.378 -0.3026 -0.2594  0.0579
10269TIP3    H152298   1.890   4.634   4.451  0.5035 -1.6082  1.3091
10269TIP3    H252299   1.997   4.669   4.351  0.7969 -0.3105  2.0574
10270TIP3   OH252300   0.912   0.792  15.870  0.0154  0.2088 -0.3650
10270TIP3    H152301   0.842   0.727  15.877 -1.4613  1.8416  0.7205
10270TIP3    H252302   0.899   0.831  15.783  0.6865 -0.6370 -0.8707
10271TIP3   OH252303   0.841   6.525   1.236  0.4264 -0.4664  0.4689
10271TIP3    H152304   0.880   6.611   1.249 -1.3415  0.1812  1.7498
10271TIP3    H252305   0.751   6.542   1.209 -0.2572 -1.8852  1.6993
10272TIP3   OH252306   3.575   1.581   4.413  0.1373  0.6550 -0.0933
10272TIP3    H152307   3.553   1.541   4.329  1.9260 -0.2367 -0.1884
10272TIP3    H252308   3.540   1.670   4.408 -1.1163  0.1240 -1.1629
10273TIP3   OH252309   0.088   0.662   2.671  0.1495 -0.1463  0.1085
10273TIP3    H152310   0.084   0.635   2.579  0.0921 -0.6740  0.2628
10273TIP3    H252311   0.152   0.603   2.711 -1.6042 -1.5790  0.9455
10274TIP3   OH252312   5.905   2.643  13.385 -0.0614  0.2328 -0.6534
10274TIP3    H152313   5.831   2.655  13.324 -1.8417 -0.4148  1.2818
10274TIP3    H252314   5.944   2.560  13.359 -0.7249  0.0214 -1.0128
10275TIP3   OH252315   4.341   1.854  15.353  0.2005  0.4685  0.2621
10275TIP3    H152316   4.315   1.870  15.263  0.8016  0.2325  0.0437
10275TIP3    H252317   4.289   1.779  15.381  1.3804 -0.6852 -0.5210
10276TIP3   OH252318   0.443   0.473   2.202 -0.4273 -0.7946 -0.2428
10276TIP3    H152319   0.404   0.537   2.143  0.7875 -0.2249 -0.4635
10276TIP3    H252320   0.498   0.419   2.146 -0.7939 -1.5067  0.0712
10277TIP3   OH252321   0.389   2.724   1.642 -0.5557  0.0716 -0.3686
10277TIP3    H152322   0.296   2.746   1.642 -0.8184 -0.9465 -0.2300
10277TIP3    H252323   0.405   2.684   1.557  0.2472  2.0302 -1.1977
10278TIP3   OH252324   1.884   4.088   0.333  0.0634  0.1502 -0.1274
10278TIP3    H152325   1.874   4.183   0.332  0.4426  0.1961  0.2044
10278TIP3    H252326   1.820   4.057   0.269 -0.6902  0.5674  0.4086
10279TIP3   OH252327   1.017   6.788   0.119 -0.3724 -0.1410 -0.3551
10279TIP3    H152328   0.992   6.872   0.157 -0.5766 -0.1104 -0.5579
10279TIP3    H252329   0.942   6.731   0.133 -1.2904  0.4431 -2.5144
10280TIP3   OH252330   5.342   3.226   6.308  0.0891 -0.8689  0.7776
10280TIP3    H152331   5.292   3.152   6.343  1.1691 -1.5430  0.9507
10280TIP3    H252332   5.327   3.296   6.371 -0.7443 -1.0060  0.7471
10281TIP3   OH252333   2.816   4.080   5.174 -0.1063  0.0497  0.4102
10281TIP3    H152334   2.886   4.123   5.126  0.4489 -1.7372 -0.4546
10281TIP3    H252335   2.736   4.107   5.129  0.0780  1.2891  0.7816
10282TIP3   OH252336   6.313   2.945  16.497  0.5429 -0.2757 -0.1223
10282TIP3    H152337   6.298   3.015  16.434 -1.3858 -1.4953 -1.1060
10282TIP3    H252338   6.395   2.904  16.469  0.0349 -0.4053 -1.4878
10283TIP3   OH252339   6.040   3.539   2.739  0.1730 -0.3943 -0.4026
10283TIP3    H152340   6.069   3.628   2.758 -1.8225  0.1219  0.4171
10283TIP3    H252341   5.984   3.515   2.812  0.7712 -2.4063 -0.5305
10284TIP3   OH252342   3.708   4.243   1.336 -0.2731  1.1476  0.4229
10284TIP3    H152343   3.801   4.242   1.356 -0.2259 -0.5952  0.2876
10284TIP3    H252344   3.704   4.253   1.241 -0.0906 -0.9915  0.1329
10285TIP3   OH252345   2.721   3.182  11.076 -0.0136 -0.4625  0.1749
10285TIP3    H152346   2.740   3.223  11.159 -0.9082  0.1285  0.1071
10285TIP3    H252347   2.778   3.226  11.013 -0.3827  0.1086  0.2370
10286TIP3   OH252348   1.677   2.418  12.718  0.4807 -0.0361 -0.5270
10286TIP3    H152349   1.737   2.349  12.688 -0.0891 -0.8532  0.1666
10286TIP3    H252350   1.719   2.500  12.690  1.8060 -0.5917 -0.2648
10287TIP3   OH252351   0.419   4.306   2.505  0.2510 -0.1650  0.2466
10287TIP3    H152352   0.344   4.355   2.469  0.4877 -0.0436 -0.0927
10287TIP3    H252353   0.494   4.335   2.452  1.0100  1.5635  2.1224
10288TIP3   OH252354   6.743   2.083  15.221  0.0832  0.4848  0.0036
10288TIP3    H152355   6.723   2.095  15.314 -0.1055  0.4300 -0.0301
10288TIP3    H252356   6.693   2.006  15.196 -1.1298  1.4251 -0.5419
10289TIP3   OH252357   1.330   4.594  15.424  0.4681  0.4436 -0.1257
10289TIP3    H152358   1.239   4.620  15.432  0.4324  0.2353  0.1292
10289TIP3    H252359   1.362   4.587  15.514  0.1606 -1.5110 -0.1367
10290TIP3   OH252360   3.394   1.620  16.762 -0.0398 -0.3229 -0.2127
10290TIP3    H152361   3.388   1.587  16.851  1.0309  1.2018  0.4641
10290TIP3    H252362   3.356   1.708  16.766 -2.0381 -1.0466 -1.7699
10291TIP3   OH252363   6.139   5.801  13.675  0.2269  0.6996  0.8422
10291TIP3    H152364   6.093   5.885  13.671 -0.1187  0.4643 -1.0301
10291TIP3    H252365   6.230   5.825  13.692 -0.0803  1.3506  1.6783
10292TIP3   OH252366   3.608   3.379  12.819 -0.1037 -0.6948 -0.4434
10292TIP3    H152367   3.551   3.305  12.799 -1.9701  0.1747  1.3397
10292TIP3    H252368   3.568   3.421  12.895  2.8004  0.1347  0.7753
10293TIP3   OH252369   0.231   5.569  16.368 -0.2783 -0.4096 -0.0635
10293TIP3    H152370   0.312   5.554  16.417 -0.0831 -1.1374 -0.5850
10293TIP3    H252371   0.260   5.587  16.279 -0.6882 -0.8165 -0.2858
10294TIP3   OH252372   3.320   0.453   0.868  0.2250 -0.1298  0.2452
10294TIP3    H152373   3.327   0.545   0.843 -1.3121  0.0838  0.5313
10294TIP3    H252374   3.410   0.420   0.860  0.9066  1.5051  0.6258
10295TIP3   OH252375   3.477   2.624  11.766  0.1450 -0.1271  0.3707
10295TIP3    H152376   3.439   2.685  11.829  0.4094 -0.2045  0.6060
10295TIP3    H252377   3.501   2.547  11.818 -0.2351 -0.4571  0.0703
10296TIP3   OH252378   1.471   0.648  10.494 -0.1770  0.3381 -0.1369
10296TIP3    H152379   1.427   0.723  10.535  0.5795  1.5718 -1.5021
10296TIP3    H252380   1.556   0.682  10.467 -0.2661 -0.6641 -1.8344
10297TIP3   OH252381   3.918   5.967   4.501  0.2271  0.2450 -0.7076
10297TIP3    H152382   4.004   5.976   4.543  0.6836 -0.4296 -1.4548
10297TIP3    H252383   3.904   6.051   4.457  0.3242  0.4943 -0.2688
10298TIP3   OH252384   5.028   0.527  10.180 -0.2795 -0.1021 -0.0103
10298TIP3    H152385   5.101   0.485  10.135  0.1353  3.0295 -2.6074
10298TIP3    H252386   5.068   0.594  10.235 -1.1123  0.3787  0.0287
10299TIP3   OH252387   6.479   0.913  10.517 -0.7466  0.3594  0.0180
10299TIP3    H152388   6.562   0.960  10.516 -0.8955  0.8699  3.0344
10299TIP3    H252389   6.415   0.979  10.491 -0.3606  0.2221 -1.3580
10300TIP3   OH252390   5.784   5.731  11.952 -0.0743 -0.5276 -0.4372
10300TIP3    H152391   5.810   5.695  12.037 -2.2306 -1.3480 -0.0583
10300TIP3    H252392   5.797   5.825  11.960 -4.0549  0.0255  2.4314
10301TIP3   OH252393   3.928   2.566   3.105  0.3504 -0.4167 -0.2520
10301TIP3    H152394   3.952   2.492   3.049  1.9348  0.5457 -0.9348
10301TIP3    H252395   3.963   2.544   3.191  1.1354 -0.3300 -0.5394
10302TIP3   OH252396   3.971   4.380  15.090  0.1068 -0.0536  0.3478
10302TIP3    H152397   3.904   4.423  15.142  0.0997 -1.7649  1.8237
10302TIP3    H252398   3.930   4.300  15.058  1.2611 -0.8924  0.8747
10303TIP3   OH252399   0.698   3.164   2.627 -0.4344  0.0492  0.1320
10303TIP3    H152400   0.776   3.219   2.626 -0.8797  0.7240 -1.6530
10303TIP3    H252401   0.638   3.207   2.566 -0.4224 -2.9045 -2.2286
10304TIP3   OH252402   1.539   4.776  15.986  0.1607  0.1498  0.5321
10304TIP3    H152403   1.594   4.835  16.037  0.5050  0.5886 -0.3226
10304TIP3    H252404   1.574   4.688  16.005  1.7814  0.4827 -0.6830
10305TIP3   OH252405   5.413   3.456   3.923  0.6575 -0.1987  0.2317
10305TIP3    H152406   5.490   3.443   3.979  2.3364 -0.1414 -1.9245
10305TIP3    H252407   5.431   3.537   3.876 -0.6485 -0.2943 -0.4884
10306TIP3   OH252408   5.920   3.609  12.761 -0.1028 -0.1330  0.1284
10306TIP3    H152409   5.956   3.671  12.697 -0.7974 -1.7927 -1.9915
10306TIP3    H252410   5.993   3.591  12.820  0.5692  1.4802 -0.1535
10307TIP3   OH252411   3.850   2.043   0.496  0.3996  0.3709  0.4630
10307TIP3    H152412   3.832   1.949   0.494 -1.5618  0.6866  0.9207
10307TIP3    H252413   3.767   2.083   0.471  0.8557  2.0024  1.4196
10308TIP3   OH252414   1.803   1.848  12.981  0.1909  0.5378  0.1626
10308TIP3    H152415   1.727   1.803  13.017 -0.1272  1.5312  0.7964
10308TIP3    H252416   1.779   1.941  12.983  1.6167  0.9191  0.8641
10309TIP3   OH252417   3.176   2.882   5.522 -0.2553 -0.3257  0.2274
10309TIP3    H152418   3.092   2.915   5.555  0.8254  1.6454  1.1567
10309TIP3    H252419   3.215   2.836   5.597  1.3684  2.5436  1.2821
10310TIP3   OH252420   1.035   0.946   5.793  0.1549  0.1033 -0.0123
10310TIP3    H152421   0.945   0.961   5.766  0.6083  2.1813 -0.4960
10310TIP3    H252422   1.029   0.877   5.860 -2.0749  1.9414  1.8173
10311TIP3   OH252423   5.978   6.219  17.100 -0.1314 -0.0573  0.1686
10311TIP3    H152424   5.953   6.264  17.180 -1.1156 -1.9397  0.9748
10311TIP3    H252425   5.895   6.199  17.056  0.1552 -1.9924  0.3945
10312TIP3   OH252426   1.890   2.806   0.800 -0.0152 -0.2708 -0.6302
10312TIP3    H152427   1.966   2.859   0.825 -0.0903 -0.9982  1.3036
10312TIP3    H252428   1.927   2.724   0.768  0.0578  0.4133 -2.4201
10313TIP3   OH252429   3.396   2.617   5.484 -0.1910  0.4114  0.3635
10313TIP3    H152430   3.471   2.627   5.543  1.6732 -4.4826 -0.7109
10313TIP3    H252431   3.330   2.571   5.536 -0.4316  0.2521 -0.0760
10314TIP3   OH252432   6.755   4.003   3.743 -0.4501  0.0718 -0.3590
10314TIP3    H152433   6.811   3.972   3.814 -1.3422  0.7593  0.6850
10314TIP3    H252434   6.699   4.069   3.784 -1.2658  0.1976 -1.6195
10315TIP3   OH252435   6.638   5.910  14.905 -0.4403  0.5702  0.1550
10315TIP3    H152436   6.563   5.855  14.883 -0.3666 -0.0469  1.3255
10315TIP3    H252437   6.602   5.998  14.912 -0.6930  0.5745 -1.0775
10316TIP3   OH252438   4.429   1.377   1.220  0.1590  0.1303  0.3613
10316TIP3    H152439   4.334   1.378   1.214  0.1906 -0.1171 -0.2316
10316TIP3    H252440   4.460   1.388   1.130  0.6925  0.3489  0.5637
10317TIP3   OH252441   3.093   1.650   5.387 -0.3929  0.4926  0.1456
10317TIP3    H152442   3.146   1.681   5.460 -0.7999 -0.6378  0.9546
10317TIP3    H252443   3.037   1.582   5.425  0.2829 -1.0439 -1.4512
10318TIP3   OH252444   5.089   2.789  15.649 -0.3417 -0.2443 -0.2683
10318TIP3    H152445   5.087   2.840  15.730  0.8503 -0.4852 -0.0795
10318TIP3    H252446   5.038   2.710  15.670 -0.5437 -0.0326  0.0508
10319TIP3   OH252447   0.522   2.145   2.582  0.3376  0.0865 -0.4303
10319TIP3    H152448   0.515   2.188   2.668 -0.7839  0.0659 -0.4913
10319TIP3    H252449   0.472   2.202   2.523  1.4799  0.3430 -1.1839
10320TIP3   OH252450   3.565   4.067   5.532  0.3640 -0.0436 -0.4707
10320TIP3    H152451   3.611   3.986   5.513  2.4748  1.4191 -2.1256
10320TIP3    H252452   3.516   4.086   5.451 -1.2118 -0.2903  0.3765
10321TIP3   OH252453   3.772   1.899  14.995 -0.3566 -0.3057  0.5334
10321TIP3    H152454   3.695   1.927  14.945 -0.3695 -0.6579  0.3473
10321TIP3    H252455   3.760   1.937  15.082  0.0399  0.9530  0.0550
10322TIP3   OH252456   6.117   1.527   6.493 -0.1187 -0.5461  0.2319
10322TIP3    H152457   6.207   1.511   6.521  0.8131  0.7757 -1.7550
10322TIP3    H252458   6.083   1.592   6.554  1.6796  1.9053 -1.2100
10323TIP3   OH252459   6.074   2.804  15.071  0.8609 -0.1539 -0.7406
10323TIP3    H152460   6.112   2.750  15.140  1.9386  0.4175 -0.8640
10323TIP3    H252461   6.041   2.742  15.006  2.3146 -0.6766 -1.0013
10324TIP3   OH252462   3.686   6.272  16.102 -0.0109 -0.6181  0.1839
10324TIP3    H152463   3.736   6.341  16.059 -0.8538 -1.1127 -1.6569
10324TIP3    H252464   3.680   6.301  16.193 -0.3138  1.7137 -0.5160
10325TIP3   OH252465   4.801   1.901  16.435  0.1284 -0.1678  0.2790
10325TIP3    H152466   4.824   1.846  16.360  0.6602 -1.0389  1.0469
10325TIP3    H252467   4.884   1.940  16.462  0.2125 -0.9576  1.2357
10326TIP3   OH252468   1.516   3.847  14.785 -0.1790  0.2302 -0.1341
10326TIP3    H152469   1.447   3.798  14.830 -1.0449  1.2417 -0.3125
10326TIP3    H252470   1.549   3.909  14.850  1.4304 -1.0416  0.3217
10327TIP3   OH252471   4.682   0.644   4.317 -0.4671  0.1007  0.0711
10327TIP3    H152472   4.757   0.701   4.331 -0.8830  0.5381  0.5734
10327TIP3    H252473   4.607   0.703   4.305 -0.7877 -0.3275 -0.0996
10328TIP3   OH252474   0.766   4.974  13.213  0.2806  0.0666 -0.2979
10328TIP3    H152475   0.714   4.915  13.158  0.5531 -1.0032  0.5523
10328TIP3    H252476   0.711   4.990  13.290 -1.0862  3.4129 -1.7965
10329TIP3   OH252477   1.461   2.250  13.016 -0.1954  0.4416  0.1627
10329TIP3    H152478   1.480   2.341  12.997  2.2740  0.2148  1.1853
10329TIP3    H252479   1.372   2.236  12.983  0.2552  2.5432 -2.1652
10330TIP3   OH252480   1.068   6.465  15.916 -0.2151  0.0346  0.3742
10330TIP3    H152481   1.081   6.372  15.894 -0.3265  0.2486 -0.6353
10330TIP3    H252482   0.996   6.465  15.979 -0.6826 -0.5114 -0.1526
10331TIP3   OH252483   6.036   3.644  15.330  0.0088 -1.2318 -0.4402
10331TIP3    H152484   6.123   3.643  15.289  0.5736 -1.3582  0.7120
10331TIP3    H252485   6.044   3.583  15.403 -1.3438 -1.9419 -0.8670
10332TIP3   OH252486   5.351   6.274  15.644 -0.4900 -0.3484 -0.8943
10332TIP3    H152487   5.299   6.353  15.659 -2.9915 -1.9423 -0.7644
10332TIP3    H252488   5.436   6.307  15.616 -1.4160  2.3870 -0.7638
10333TIP3   OH252489   6.511   2.545   0.591  0.1065 -0.3561  0.6610
10333TIP3    H152490   6.464   2.498   0.660  1.1294 -0.7402  1.1101
10333TIP3    H252491   6.602   2.514   0.598  0.9709  2.1476  1.4094
10334TIP3   OH252492   6.289   3.751  15.647 -0.3225 -0.6521 -0.1235
10334TIP3    H152493   6.282   3.656  15.659 -1.1339 -0.3634  2.1798
10334TIP3    H252494   6.213   3.787  15.694  1.1730  1.2567  0.9769
10335TIP3   OH252495   4.303   3.155  12.528 -0.9149  0.3601 -0.3908
10335TIP3    H152496   4.296   3.194  12.440 -0.5125  1.2063 -0.0599
10335TIP3    H252497   4.288   3.228  12.587 -0.6141 -0.0948  0.2523
10336TIP3   OH252498   5.462   4.451   2.317  0.0119 -0.0091  0.1227
10336TIP3    H152499   5.540   4.411   2.356 -0.7505  1.3511  3.3801
10336TIP3    H252500   5.464   4.541   2.347 -3.0287 -0.0445  0.7569
10337TIP3   OH252501   1.643   1.106   4.098  0.3305  0.1491 -0.4643
10337TIP3    H152502   1.709   1.174   4.108  1.2826 -0.9265  0.9392
10337TIP3    H252503   1.633   1.096   4.003 -0.9195  3.1963 -0.7418
10338TIP3   OH252504   2.795   0.663  11.305 -0.3039 -0.3376 -0.3297
10338TIP3    H152505   2.793   0.711  11.388  2.2220  0.1546 -0.4869
10338TIP3    H252506   2.767   0.727  11.239  1.5237  0.5253 -0.3281
10339TIP3   OH252507   3.268   0.746   1.037 -0.0784 -0.1580  0.0966
10339TIP3    H152508   3.277   0.724   0.944  1.3980 -0.1877  0.2279
10339TIP3    H252509   3.196   0.808   1.040  0.7365  0.9085 -1.2687
10340TIP3   OH252510   5.415   0.085  11.582  0.3212 -0.0731 -0.0186
10340TIP3    H152511   5.377   0.160  11.536 -1.6944 -2.0977 -1.8930
10340TIP3    H252512   5.495   0.066  11.533 -0.0900 -0.2047 -0.6524
10341TIP3   OH252513   1.714   2.654  11.923  0.0582 -0.3329  0.3804
10341TIP3    H152514   1.691   2.630  12.013 -0.7004  0.7186  0.4842
10341TIP3    H252515   1.665   2.734  11.906  0.5577 -0.2566 -0.8181
10342TIP3   OH252516   2.729   0.177  12.044  0.1792 -0.0981  0.4461
10342TIP3    H152517   2.793   0.116  12.082 -1.5489 -2.1528  0.2293
10342TIP3    H252518   2.648   0.127  12.039 -1.0531  1.8867 -0.8552
10343TIP3   OH252519   0.224   5.277  15.560 -0.0649 -0.0669  0.0377
10343TIP3    H152520   0.147   5.308  15.513  0.1732 -0.7170 -0.8052
10343TIP3    H252521   0.287   5.348  15.552 -0.8042  0.7880  1.3747
10344TIP3   OH252522   0.374   2.390   2.584  0.1835  0.1315  0.2143
10344TIP3    H152523   0.279   2.405   2.580  0.2850  1.2517  1.2346
10344TIP3    H252524   0.410   2.453   2.522  0.2641 -0.2063 -0.0796
10345TIP3   OH252525   4.023   4.993   5.795  0.0200  0.1110 -0.0012
10345TIP3    H152526   3.984   4.939   5.863 -0.5951  0.1300 -0.3276
10345TIP3    H252527   3.975   4.970   5.716  1.4952 -0.7876 -0.6923
10346TIP3   OH252528   0.121   2.535   4.613  0.3063 -0.9520 -0.6802
10346TIP3    H152529   0.043   2.510   4.564 -0.0880  0.6071 -0.9238
10346TIP3    H252530   0.125   2.631   4.604  0.1881 -0.5755  2.3752
10347TIP3   OH252531   3.314   3.238   3.736  0.3546 -0.0344  0.0810
10347TIP3    H152532   3.234   3.217   3.785 -0.3829  0.7948 -0.7230
10347TIP3    H252533   3.322   3.168   3.671  0.8447 -0.6569  0.8023
10348TIP3   OH252534   4.216   0.543   5.203 -0.0875  0.1500 -0.3553
10348TIP3    H152535   4.235   0.475   5.138 -0.8711 -0.2020 -0.2389
10348TIP3    H252536   4.120   0.542   5.210 -0.0082 -0.1601  1.1486
10349TIP3   OH252537   4.962   4.165   2.978 -0.5825 -0.4534 -0.4624
10349TIP3    H152538   4.894   4.184   2.913  0.2415  1.7107 -0.7759
10349TIP3    H252539   4.918   4.177   3.062 -0.4418  1.8735 -0.6551
10350TIP3   OH252540   3.494   0.406  14.119 -0.0296  0.0426  0.4548
10350TIP3    H152541   3.581   0.445  14.109 -0.6829  1.5000  0.0825
10350TIP3    H252542   3.438   0.458  14.060 -0.6865 -2.5310 -1.3607
10351TIP3   OH252543   3.386   6.593   5.484 -0.0810 -0.2388  0.4618
10351TIP3    H152544   3.405   6.674   5.435  0.7452 -1.1393 -0.7816
10351TIP3    H252545   3.459   6.585   5.546  0.7391 -0.8422 -0.5392
10352TIP3   OH252546   4.080   4.734  16.962  0.2758 -0.4577 -0.1265
10352TIP3    H152547   4.118   4.659  17.008 -0.0613 -0.9397 -0.6131
10352TIP3    H252548   4.141   4.752  16.890  1.4487  1.0758  1.1717
10353TIP3   OH252549   1.262   3.584  14.492  0.7833 -0.5526  0.6117
10353TIP3    H152550   1.308   3.551  14.569  1.9451  0.3952  0.3541
10353TIP3    H252551   1.261   3.679  14.504 -1.3811 -0.5312  0.7263
10354TIP3   OH252552   1.658   3.701  10.600  0.4489 -0.5051 -0.7329
10354TIP3    H152553   1.581   3.689  10.544 -1.0282 -0.1852  1.1211
10354TIP3    H252554   1.706   3.619  10.593  0.2559 -0.5153 -2.3456
10355TIP3   OH252555   2.621   3.871  12.659 -0.1840  0.0023  0.0871
10355TIP3    H152556   2.607   3.946  12.601 -0.5411 -0.5217 -0.5231
10355TIP3    H252557   2.575   3.894  12.739 -0.5464  0.3085 -0.2037
10356TIP3   OH252558   1.317   1.365   2.494 -0.0985 -0.0617  0.0540
10356TIP3    H152559   1.392   1.424   2.494  1.1006 -1.4742 -1.1526
10356TIP3    H252560   1.243   1.419   2.521  1.2460  1.5189  0.7482
10357TIP3   OH252561   0.470   5.163  15.664 -0.6561  0.3038 -0.3435
10357TIP3    H152562   0.523   5.242  15.656  0.0894 -0.0652  0.6888
10357TIP3    H252563   0.411   5.180  15.738 -0.3532 -0.1619  0.0166
10358TIP3   OH252564   6.255   3.984  14.514  0.2423  0.6908  0.1838
10358TIP3    H152565   6.318   3.916  14.489  1.2546  1.9491 -0.7976
10358TIP3    H252566   6.221   4.018  14.432 -0.4148  1.2236  0.6630
10359TIP3   OH252567   3.578   4.737   4.175  0.0647 -0.4247 -0.1460
10359TIP3    H152568   3.541   4.825   4.164  0.1472 -0.2365  1.0160
10359TIP3    H252569   3.573   4.720   4.269  2.2014 -0.7330 -0.0487
10360TIP3   OH252570   4.012   6.284   2.871  0.0948  0.7958  0.2477
10360TIP3    H152571   4.001   6.226   2.946 -0.7986  0.0603 -0.4260
10360TIP3    H252572   3.932   6.337   2.869 -1.1900 -1.0150 -1.6777
10361TIP3   OH252573   4.714   4.234  17.064  0.0986 -0.2467  0.2494
10361TIP3    H152574   4.801   4.234  17.104  0.2739 -1.5107 -0.0820
10361TIP3    H252575   4.658   4.190  17.128 -0.3001  0.5234  0.4430
10362TIP3   OH252576   0.704   1.848   5.319  0.5446 -0.0296  0.4880
10362TIP3    H152577   0.656   1.928   5.342  0.5579 -0.3452  1.6689
10362TIP3    H252578   0.637   1.780   5.314  0.7776 -0.3757  1.6775
10363TIP3   OH252579   1.159   3.047  11.901 -0.4947  0.0525 -0.1809
10363TIP3    H152580   1.202   3.076  11.820  1.4331 -2.7835 -0.2991
10363TIP3    H252581   1.095   2.982  11.872 -1.5069  0.7424  0.4365
10364TIP3   OH252582   1.445   0.077  15.444 -0.6482 -0.1834  0.4307
10364TIP3    H152583   1.382   0.079  15.516 -1.0770  0.3493  0.0515
10364TIP3    H252584   1.407   0.016  15.380  0.9392 -2.6474  1.7029
10365TIP3   OH252585   6.228   0.189  14.486 -0.1074 -0.2178  0.7721
10365TIP3    H152586   6.207   0.223  14.399  0.6207  0.1830  0.7405
10365TIP3    H252587   6.323   0.173  14.483 -0.5120 -2.9300  0.5779
10366TIP3   OH252588   0.696   2.721  11.335  0.4322 -0.3671 -0.5224
10366TIP3    H152589   0.783   2.701  11.369  0.1320 -0.2261  0.3330
10366TIP3    H252590   0.697   2.815  11.319 -0.2867  0.0622  1.6552
10367TIP3   OH252591   5.760   1.610  15.511  0.7014  0.3635  0.0801
10367TIP3    H152592   5.753   1.596  15.605  0.8143  0.0374  0.0419
10367TIP3    H252593   5.757   1.705  15.500  0.7713  0.4049  0.4191
10368TIP3   OH252594   5.755   6.009  11.942 -0.3618 -0.0402  0.1597
10368TIP3    H152595   5.690   6.036  11.877  0.0056 -0.1442 -0.2563
10368TIP3    H252596   5.711   6.022  12.026 -1.1667 -0.7511 -0.1356
10369TIP3   OH252597   4.197   5.489  15.794 -0.0539  0.0734  0.3148
10369TIP3    H152598   4.174   5.533  15.876  0.0081  0.1987  0.2634
10369TIP3    H252599   4.278   5.443  15.814  0.2840  0.5880  0.1524
10370TIP3   OH252600   3.508   5.424  11.176  0.1450 -0.0890  0.0817
10370TIP3    H152601   3.565   5.417  11.100 -0.0751 -0.2099 -0.0739
10370TIP3    H252602   3.423   5.449  11.140  0.2961  0.9346  0.3785
10371TIP3   OH252603   0.320   0.545   0.956 -0.2400  0.2605 -0.1491
10371TIP3    H152604   0.362   0.605   0.895  3.0000 -3.7416 -2.4016
10371TIP3    H252605   0.258   0.496   0.902  0.7790 -1.5978  0.2686
10372TIP3   OH252606   1.113   6.118  15.067 -0.2405 -0.3162  0.1922
10372TIP3    H152607   1.198   6.102  15.026  0.3468 -0.5306  1.4687
10372TIP3    H252608   1.087   6.035  15.105 -2.2234 -0.9560 -2.2076
10373TIP3   OH252609   2.651   2.419   3.316 -0.2039 -0.3648 -0.1294
10373TIP3    H152610   2.646   2.484   3.386  2.9363 -0.8750  0.7514
10373TIP3    H252611   2.611   2.340   3.353 -1.7651  0.3197 -0.2824
10374TIP3   OH252612   2.596   0.319   0.065 -0.3079 -0.0230  0.2882
10374TIP3    H152613   2.636   0.245   0.111 -1.9363 -0.8968  0.3644
10374TIP3    H252614   2.508   0.326   0.102 -0.6443  1.1239 -0.6559
10375TIP3   OH252615   1.699   5.226   4.746  0.0278  0.1725 -0.0411
10375TIP3    H152616   1.771   5.286   4.728  0.0260  0.1962  0.0353
10375TIP3    H252617   1.639   5.237   4.672  0.5742 -0.5529 -0.6165
10376TIP3   OH252618   4.425   2.309  12.297 -0.2393 -0.3727  0.2909
10376TIP3    H152619   4.413   2.309  12.202 -0.2260  1.2031  0.2623
10376TIP3    H252620   4.346   2.269  12.332 -0.1765 -1.1083 -0.3800
10377TIP3   OH252621   1.608   2.923   3.985  0.8931 -0.4362  0.1133
10377TIP3    H152622   1.665   2.997   4.006  2.7183 -1.7399  0.0253
10377TIP3    H252623   1.601   2.874   4.067 -1.0109  0.2504  0.3975
10378TIP3   OH252624   0.392   5.629  15.270 -1.0794  0.5706 -0.8425
10378TIP3    H152625   0.383   5.577  15.350 -2.6697  2.1515  0.0779
10378TIP3    H252626   0.309   5.618  15.225 -1.0737  1.5325 -1.1095
10379TIP3   OH252627   6.392   1.221   1.994  0.2910  0.0316 -0.0176
10379TIP3    H152628   6.470   1.181   1.956  0.8717  0.9114  0.2268
10379TIP3    H252629   6.320   1.192   1.937  1.0994  1.1663 -1.7041
10380TIP3   OH252630   2.310   1.632   3.082 -0.4161 -0.1955 -0.2288
10380TIP3    H152631   2.219   1.662   3.089 -0.3688 -0.2189  0.5088
10380TIP3    H252632   2.354   1.671   3.157  0.0426 -0.6913 -0.2395
10381TIP3   OH252633   3.668   2.646   3.064  0.9088 -0.1580  0.2551
10381TIP3    H152634   3.623   2.583   3.120 -0.0827  1.8860  1.9071
10381TIP3    H252635   3.761   2.631   3.080  0.7121 -1.3602  0.3755
10382TIP3   OH252636   6.344   2.643  13.875 -0.0536 -0.0880  0.5946
10382TIP3    H152637   6.429   2.621  13.913 -0.3408 -0.4024  1.0617
10382TIP3    H252638   6.344   2.738  13.868  0.4557 -0.1048  0.3078
10383TIP3   OH252639   6.365   3.304   1.432  0.4543 -0.0045  0.7083
10383TIP3    H152640   6.414   3.352   1.365  1.8965 -0.0776  1.6715
10383TIP3    H252641   6.389   3.212   1.419  0.5897 -0.0407  1.1875
10384TIP3   OH252642   6.143   0.756   1.826  0.7522 -0.4704  0.7673
10384TIP3    H152643   6.059   0.794   1.851 -1.2185 -2.1755 -2.5761
10384TIP3    H252644   6.132   0.662   1.840  1.0389 -1.0135 -2.1168
10385TIP3   OH252645   2.143   5.959  12.704 -0.6506 -0.3041 -0.1864
10385TIP3    H152646   2.136   5.990  12.795  3.1563 -2.0912  0.9104
10385TIP3    H252647   2.061   5.912  12.689 -1.6930  0.6280  2.0561
10386TIP3   OH252648   1.754   2.648   4.555 -0.3064 -0.0471  0.2759
10386TIP3    H152649   1.688   2.711   4.582 -0.8812  0.1668 -1.4728
10386TIP3    H252650   1.745   2.643   4.459  1.6342 -0.6546  0.0752
10387TIP3   OH252651   2.570   0.069  12.327 -0.1829  0.0205  0.4091
10387TIP3    H152652   2.664   0.052  12.316 -0.4660 -1.2153 -0.2835
10387TIP3    H252653   2.535   0.068  12.239 -1.0669 -0.9646  0.7493
10388TIP3   OH252654   6.622   0.167   0.791 -0.6347  0.7919 -0.1064
10388TIP3    H152655   6.686   0.166   0.720 -0.0434 -0.4036  0.4195
10388TIP3    H252656   6.538   0.176   0.747 -0.4141 -1.4166 -1.0896
10389TIP3   OH252657   1.177   0.240  11.319 -0.1347 -0.2621 -0.0615
10389TIP3    H152658   1.254   0.244  11.263 -1.3109 -1.4015 -1.8562
10389TIP3    H252659   1.103   0.255  11.260 -1.3790 -0.2361  1.4187
10390TIP3   OH252660   1.617   1.248   5.885 -0.7807  0.4407 -0.0002
10390TIP3    H152661   1.656   1.251   5.972 -0.1329  1.7623 -0.3068
10390TIP3    H252662   1.692   1.237   5.826 -1.2622 -1.0376 -0.3754
10391TIP3   OH252663   2.759   3.262  15.012  0.5189  0.3303  0.6788
10391TIP3    H152664   2.819   3.279  14.939  0.5505 -1.6824  0.1911
10391TIP3    H252665   2.695   3.333  15.006  3.0063  2.8739  1.5208
10392TIP3   OH252666   5.657   5.211   5.872  0.4068 -0.2398 -0.1182
10392TIP3    H152667   5.686   5.163   5.949 -0.0485  0.1451  0.2988
10392TIP3    H252668   5.721   5.282   5.863  1.1808 -1.0121 -0.8390
10393TIP3   OH252669   1.370   3.487  15.411  0.0378  0.1749  0.0846
10393TIP3    H152670   1.440   3.485  15.346 -0.0752  0.8946 -0.0657
10393TIP3    H252671   1.351   3.395  15.428  0.5151 -0.0230 -0.4188
10394TIP3   OH252672   4.092   2.094  15.187 -0.2906 -0.2697  0.4894
10394TIP3    H152673   4.145   2.037  15.131 -0.3749 -1.8571  1.9402
10394TIP3    H252674   4.013   2.043  15.205 -1.7281  1.5024 -0.5104
10395TIP3   OH252675   6.753   1.794   1.768 -0.1390  0.0036 -0.4246
10395TIP3    H152676   6.708   1.790   1.685 -1.1400 -0.1560  0.1140
10395TIP3    H252677   6.844   1.814   1.745 -0.2910 -0.5473 -1.5730
10396TIP3   OH252678   0.796   4.099  11.863  0.2843 -0.1970  0.3110
10396TIP3    H152679   0.821   4.171  11.922 -0.1387 -1.0574  1.5929
10396TIP3    H252680   0.802   4.137  11.775 -0.0981  1.4620  0.9564
10397TIP3   OH252681   5.460   6.018  10.913  0.1303  0.4549  0.1917
10397TIP3    H152682   5.490   6.087  10.973  1.5169 -0.9173  1.1424
10397TIP3    H252683   5.528   6.014  10.846  0.5391 -0.5991  0.6566
10398TIP3   OH252684   4.252   0.707   3.395  0.1456  0.1141  0.4766
10398TIP3    H152685   4.174   0.653   3.386  0.1296  0.3262 -0.9626
10398TIP3    H252686   4.219   0.797   3.393  0.5072  0.2907 -2.3266
10399TIP3   OH252687   3.585   6.080   1.958  0.2357  0.0810 -0.3305
10399TIP3    H152688   3.496   6.087   1.994 -0.0317 -0.3673 -0.8872
10399TIP3    H252689   3.632   6.155   1.996 -0.2501  0.0611  0.3294
10400TIP3   OH252690   1.698   0.015  15.299  0.3431 -0.3755 -0.2096
10400TIP3    H152691   1.674  -0.076  15.314 -0.2050 -0.6396 -2.3022
10400TIP3    H252692   1.618   0.065  15.316  0.7730 -0.1847  1.4196
10401TIP3   OH252693   4.632   4.665  16.589  0.2130  0.5943  0.3519
10401TIP3    H152694   4.640   4.642  16.682  0.5883  0.3462  0.2605
10401TIP3    H252695   4.704   4.619  16.547 -0.2297  0.3319 -0.1323
10402TIP3   OH252696   3.916   6.576   2.956  0.2151 -0.2893 -0.0400
10402TIP3    H152697   3.927   6.671   2.960 -2.9653  0.1222  1.8085
10402TIP3    H252698   3.824   6.563   2.935 -0.3994 -2.8391  3.3370
10403TIP3   OH252699   0.578   3.273   2.155 -0.1041 -0.1739 -0.2506
10403TIP3    H152700   0.553   3.200   2.099  0.4658 -0.0307 -0.7002
10403TIP3    H252701   0.499   3.328   2.160  0.2756  0.6095 -2.1762
10404TIP3   OH252702   5.151   0.776   2.393  0.5579  0.8383 -0.1969
10404TIP3    H152703   5.062   0.811   2.404 -0.2773 -1.2911  0.3459
10404TIP3    H252704   5.151   0.739   2.305 -0.2517 -2.0296  0.9002
10405TIP3   OH252705   2.783   5.972  13.615 -0.2721 -0.2424  0.3556
10405TIP3    H152706   2.787   5.889  13.663  1.1663 -0.8980 -0.8096
10405TIP3    H252707   2.695   5.973  13.577 -0.4337 -1.0626  0.6736
10406TIP3   OH252708   4.410   4.106  12.327  0.2764 -0.1793  0.1116
10406TIP3    H152709   4.454   4.186  12.301  0.7723 -0.0615  1.2466
10406TIP3    H252710   4.373   4.071  12.246  0.3086  1.0325 -0.4366
10407TIP3   OH252711   0.602   1.711   4.427 -0.1709  0.4891  0.2327
10407TIP3    H152712   0.575   1.669   4.345  0.2541 -1.2189  0.9209
10407TIP3    H252713   0.632   1.798   4.401  1.2845 -0.5070 -1.6538
10408TIP3   OH252714   1.105   4.206   0.961  0.4556  0.1992 -0.3074
10408TIP3    H152715   1.138   4.281   0.912  0.0901  1.6769  1.5872
10408TIP3    H252716   1.066   4.244   1.040  0.5523 -2.0132  0.8888
10409TIP3   OH252717   5.893   3.066  15.968  0.0392  0.2607  0.0824
10409TIP3    H152718   5.861   3.116  16.043 -0.5446  2.2000 -1.3853
10409TIP3    H252719   5.951   3.126  15.921  2.1973 -1.6404  0.1279
10410TIP3   OH252720   2.118   5.832   6.199 -0.2244 -0.3458 -0.8007
10410TIP3    H152721   2.094   5.923   6.179 -0.3826 -0.0227  0.7530
10410TIP3    H252722   2.072   5.812   6.281  1.8675 -0.9460  0.3124
10411TIP3   OH252723   3.958   2.853   4.576 -0.2490  0.2119 -0.2141
10411TIP3    H152724   3.975   2.934   4.625  2.4668  0.9894 -2.2243
10411TIP3    H252725   3.897   2.805   4.632  2.3719  1.0842  3.9329
10412TIP3   OH252726   2.381   0.723   0.667  0.2638  0.3057 -0.0089
10412TIP3    H152727   2.313   0.767   0.615 -0.6175  1.3091  1.8839
10412TIP3    H252728   2.463   0.747   0.624 -0.4120  1.3742 -0.7595
10413TIP3   OH252729   2.366   3.691  11.721  0.8890  0.3601 -0.3237
10413TIP3    H152730   2.455   3.683  11.688  1.1210 -0.7615  0.5018
10413TIP3    H252731   2.359   3.622  11.787 -0.5053  0.6098 -0.1824
10414TIP3   OH252732   2.864   0.523   3.538 -0.3955  0.4435  0.0011
10414TIP3    H152733   2.793   0.469   3.573 -0.6819  0.9544  0.2216
10414TIP3    H252734   2.819   0.601   3.503  0.2822  2.5191  3.3234
10415TIP3   OH252735   6.674   3.239   2.093  0.4051 -0.0780 -0.7429
10415TIP3    H152736   6.681   3.265   2.001  0.9187 -0.4420 -0.8096
10415TIP3    H252737   6.738   3.295   2.138  0.3720 -0.1134 -0.6524
10416TIP3   OH252738   2.842   0.396   6.380  0.0282 -0.0725  0.0276
10416TIP3    H152739   2.844   0.490   6.397 -0.1943  0.3285 -1.9478
10416TIP3    H252740   2.920   0.362   6.424 -0.4100  0.8628  1.5880
10417TIP3   OH252741   6.107   0.827  14.500 -0.1934  0.6571  0.2998
10417TIP3    H152742   6.086   0.745  14.545 -1.6114  1.8918  2.0729
10417TIP3    H252743   6.172   0.869  14.557  0.1693  0.9786 -0.3447
10418TIP3   OH252744   1.008   2.559   4.697  0.3727  0.3252 -0.3097
10418TIP3    H152745   1.079   2.605   4.652 -0.8508  1.9065 -0.7339
10418TIP3    H252746   1.008   2.596   4.785  1.8186 -1.7086  0.6246
10419TIP3   OH252747   6.672   4.381   1.609  0.0171 -0.0967  0.3993
10419TIP3    H152748   6.590   4.408   1.652 -0.6480  0.2414 -1.0378
10419TIP3    H252749   6.697   4.300   1.653 -0.8384  0.0428  1.1669
10420TIP3   OH252750   4.168   1.311  14.077 -0.0750 -0.2160 -0.0525
10420TIP3    H152751   4.119   1.281  14.001  1.0274 -0.0123 -0.8596
10420TIP3    H252752   4.234   1.370  14.042 -0.2557  0.7670  1.1834
10421TIP3   OH252753   0.650   4.279   5.024  0.4457 -0.1640  0.2816
10421TIP3    H152754   0.717   4.255   4.959 -1.4249 -1.8034 -1.1690
10421TIP3    H252755   0.631   4.198   5.071 -1.3389 -0.0611 -0.1758
10422TIP3   OH252756   4.436   4.727  17.105 -0.0196  0.1095 -0.3218
10422TIP3    H152757   4.522   4.685  17.101  0.2955  0.7368 -0.2313
10422TIP3    H252758   4.391   4.696  17.027  0.1772 -0.4685 -0.2087
10423TIP3   OH252759   5.428   4.259  15.127 -0.6359  0.0391  0.1261
10423TIP3    H152760   5.354   4.308  15.163  0.1257  0.4440  1.1589
10423TIP3    H252761   5.389   4.178  15.094 -1.5931  0.4101  0.3198
10424TIP3   OH252762   3.233   1.126  12.568  0.0850  0.4284  0.0861
10424TIP3    H152763   3.229   1.080  12.485  3.4982  2.0629 -1.1736
10424TIP3    H252764   3.295   1.076  12.621  0.1681  0.9609  0.5056
10425TIP3   OH252765   0.767   5.901  15.021  0.0801 -0.0977  0.1271
10425TIP3    H152766   0.857   5.917  15.050  0.7875 -2.3527 -0.6694
10425TIP3    H252767   0.754   5.962  14.948  0.8858  0.3428  0.3390
10426TIP3   OH252768   3.901   1.272  16.388 -0.0228  0.2491  0.1187
10426TIP3    H152769   3.848   1.275  16.309  1.1155  1.6832 -0.6590
10426TIP3    H252770   3.952   1.191  16.381  0.5387  0.6832 -0.9688
10427TIP3   OH252771   2.881   3.565  17.006 -0.2935  0.0001  0.6938
10427TIP3    H152772   2.949   3.600  16.947  1.7213 -1.5821  1.9364
10427TIP3    H252773   2.848   3.488  16.961 -1.0126  0.5371  0.2770
10428TIP3   OH252774   2.112   1.347   0.891  0.5304  0.4644  0.1247
10428TIP3    H152775   2.195   1.366   0.847  1.2169 -2.1695  0.1101
10428TIP3    H252776   2.130   1.359   0.984  0.8669  0.1247  0.1032
10429TIP3   OH252777   1.900   0.834   6.285 -0.1136  0.5739 -0.3583
10429TIP3    H152778   1.882   0.755   6.336 -0.5029  0.4572 -0.6695
10429TIP3    H252779   1.962   0.884   6.339  0.0727  0.0961 -0.1243
10430TIP3   OH252780   5.412   4.706   0.455  0.0712  0.5916  0.0445
10430TIP3    H152781   5.467   4.753   0.518  0.5891  0.2701 -0.1563
10430TIP3    H252782   5.470   4.638   0.420 -1.3313 -1.8843  2.1746
10431TIP3   OH252783   0.918   6.533  13.247 -0.6169  0.1133 -0.0762
10431TIP3    H152784   0.912   6.518  13.341  1.3514  1.0925  0.2550
10431TIP3    H252785   0.838   6.494  13.211 -1.2309 -0.5970  1.9422
10432TIP3   OH252786   0.691   2.369  14.329 -0.0918 -0.6061  0.5424
10432TIP3    H152787   0.761   2.366  14.264  0.7560 -1.5081  1.4546
10432TIP3    H252788   0.610   2.371  14.277  0.5089 -2.6201 -0.5849
10433TIP3   OH252789   2.440   2.182  11.228 -0.4924  0.1787  0.4788
10433TIP3    H152790   2.503   2.147  11.291 -0.4721  1.7712  1.3868
10433TIP3    H252791   2.464   2.140  11.145 -1.1737 -2.7633  1.6480
10434TIP3   OH252792   1.312   6.738   3.262  0.1393  0.2210  0.1503
10434TIP3    H152793   1.304   6.779   3.348 -0.3726  0.9344 -0.2292
10434TIP3    H252794   1.223   6.735   3.227  0.3099 -0.2694 -0.2670
10435TIP3   OH252795   1.602   3.422  12.514  0.5950  0.5921  0.6491
10435TIP3    H152796   1.664   3.442  12.583 -0.1250 -0.3570  1.6172
10435TIP3    H252797   1.619   3.330  12.492  0.3905  0.6981  0.0201
10436TIP3   OH252798   3.081   2.622  15.939  0.0171  0.1626 -0.1125
10436TIP3    H152799   3.124   2.689  15.992  0.3290 -0.2086  0.1032
10436TIP3    H252800   2.988   2.647  15.940  0.1769  0.7812 -0.3133
10437TIP3   OH252801   6.527   1.951   0.826 -0.3019 -0.4142  0.6646
10437TIP3    H152802   6.491   2.038   0.844 -1.2080 -0.8670  1.0880
10437TIP3    H252803   6.518   1.903   0.908 -1.0710 -1.3370  0.0648
10438TIP3   OH252804   4.029   4.862   2.440  0.0507  0.3984  0.2021
10438TIP3    H152805   4.100   4.841   2.380 -0.0180  1.3492 -0.2168
10438TIP3    H252806   4.071   4.872   2.525  0.1933 -0.5979  0.2672
10439TIP3   OH252807   2.593   1.717  16.177  0.2500 -0.0621 -0.0756
10439TIP3    H152808   2.634   1.803  16.169  0.0406 -0.0217 -0.8404
10439TIP3    H252809   2.661   1.661  16.214 -0.0898  0.7616  1.9358
10440TIP3   OH252810   4.567   5.475  13.919 -0.0683  0.0785 -0.5818
10440TIP3    H152811   4.592   5.383  13.922  0.6283  0.1540 -2.4385
10440TIP3    H252812   4.536   5.488  13.829  1.3931  1.9838 -0.8893
10441TIP3   OH252813   2.722   4.631  15.283 -0.2691  0.3307  0.3080
10441TIP3    H152814   2.743   4.724  15.284 -0.2858  0.3521 -0.4695
10441TIP3    H252815   2.658   4.619  15.353  0.8439  0.6282  1.4121
10442TIP3   OH252816   2.752   3.807   5.877  0.0933  0.0014 -0.0161
10442TIP3    H152817   2.674   3.863   5.877 -0.5855 -0.9214 -0.1597
10442TIP3    H252818   2.759   3.775   5.967  0.2928  0.0594 -0.0096
10443TIP3   OH252819   4.314   6.490   3.386  0.4045  0.2800  0.4165
10443TIP3    H152820   4.401   6.523   3.366  0.8153  0.4715  2.3151
10443TIP3    H252821   4.316   6.473   3.481 -1.1196 -1.2046  0.2290
10444TIP3   OH252822   5.393   6.448  12.506 -0.0971  0.2162  0.0002
10444TIP3    H152823   5.423   6.378  12.564  1.8779  0.6722 -0.4095
10444TIP3    H252824   5.306   6.471  12.539  0.5090 -0.2848  2.0875
10445TIP3   OH252825   5.620   6.406   2.425 -0.1096  0.2610  0.1650
10445TIP3    H152826   5.549   6.349   2.455 -0.5986  0.2517 -0.9787
10445TIP3    H252827   5.612   6.407   2.330 -0.2923  2.4441  0.1440
10446TIP3   OH252828   2.400   2.082   3.221  0.6659 -0.1610  0.5117
10446TIP3    H152829   2.440   2.145   3.161  1.8914 -0.9566  0.4540
10446TIP3    H252830   2.341   2.134   3.275  0.7725  0.8352 -0.2944
10447TIP3   OH252831   2.372   6.548   0.482  0.1028 -0.4552 -0.6347
10447TIP3    H152832   2.417   6.583   0.559 -0.1610  0.7316 -0.9992
10447TIP3    H252833   2.429   6.569   0.409  0.9082 -2.5771 -0.6996
10448TIP3   OH252834   6.069   3.426   3.676  0.2770 -0.3103  0.2431
10448TIP3    H152835   6.029   3.510   3.657  0.6114 -0.2506 -0.2138
10448TIP3    H252836   6.017   3.390   3.747 -1.4524 -0.8379 -1.2197
10449TIP3   OH252837   5.903   5.987  13.726 -0.1533  0.1739 -0.7127
10449TIP3    H152838   5.981   6.043  13.733  0.5607 -0.7839 -0.9073
10449TIP3    H252839   5.841   6.040  13.676  1.4756 -0.1871 -3.2932
10450TIP3   OH252840   0.099   3.742   5.955  0.0253 -0.3089 -0.2890
10450TIP3    H152841   0.020   3.772   5.999  0.6542 -0.1799  0.7906
10450TIP3    H252842   0.169   3.755   6.019  0.9947 -0.0347 -1.3518
10451TIP3   OH252843   6.655   3.997   5.259 -0.0283 -0.7487 -0.4264
10451TIP3    H152844   6.735   3.996   5.312  0.4125 -0.5636 -1.0817
10451TIP3    H252845   6.665   4.073   5.202 -1.5425  0.4167  0.7847
10452TIP3   OH252846   5.972   2.227   0.440 -0.0104  0.4203  0.3015
10452TIP3    H152847   6.060   2.226   0.478  0.7201  0.5693 -1.3118
10452TIP3    H252848   5.948   2.319   0.437  0.4080  0.5074 -0.6155
10453TIP3   OH252849   3.508   3.855  14.959  0.5199  0.3319 -0.4149
10453TIP3    H152850   3.525   3.929  15.017 -0.1832 -0.4982  0.8983
10453TIP3    H252851   3.412   3.852  14.950  0.5272 -0.5156 -0.3100
10454TIP3   OH252852   5.275   1.818  11.776 -0.7696  0.0949 -0.3830
10454TIP3    H152853   5.245   1.856  11.858 -0.4778 -0.1465 -0.1605
10454TIP3    H252854   5.206   1.839  11.713 -0.8376  0.5724 -0.1554
10455TIP3   OH252855   1.856   5.984  12.740  0.0523 -0.3748 -0.3877
10455TIP3    H152856   1.838   5.944  12.825 -0.2064  0.6228  0.0478
10455TIP3    H252857   1.777   5.968  12.688 -0.2923  0.0922 -0.0111
10456TIP3   OH252858   0.998   4.297   1.707  0.0587  0.0723  0.5198
10456TIP3    H152859   1.075   4.314   1.653 -0.8253  1.1973 -0.4442
10456TIP3    H252860   0.958   4.219   1.668 -0.8142  1.1254 -0.8064
10457TIP3   OH252861   0.311   6.137   1.984 -0.4480 -0.5382  0.1029
10457TIP3    H152862   0.394   6.131   2.032 -0.7337  2.8509  1.3041
10457TIP3    H252863   0.334   6.177   1.901 -0.9373  1.4046  0.8631
10458TIP3   OH252864   5.890   3.912   0.619 -0.8069  0.7053 -0.1057
10458TIP3    H152865   5.943   3.992   0.622 -4.0300  3.0320  0.6350
10458TIP3    H252866   5.867   3.903   0.526  0.5050 -0.0832 -0.3680
10459TIP3   OH252867   0.310   6.557  11.395  0.2117  0.4431 -0.2404
10459TIP3    H152868   0.368   6.629  11.372 -0.7070  0.7812 -1.6048
10459TIP3    H252869   0.222   6.596  11.398 -0.1302 -0.3381  0.4116
10460TIP3   OH252870   2.920   6.753   0.935 -0.0503  0.0229 -0.5101
10460TIP3    H152871   2.824   6.751   0.945  0.0387  0.6914  0.8159
10460TIP3    H252872   2.946   6.661   0.929 -0.5381 -0.4247  2.4435
10461TIP3   OH252873   5.806   1.432  10.752 -0.3133 -0.2966  0.0058
10461TIP3    H152874   5.815   1.522  10.784 -0.2272 -0.2233 -0.2246
10461TIP3    H252875   5.856   1.379  10.814  2.5098  0.1816 -1.7059
10462TIP3   OH252876   5.080   0.146  13.981  0.6249 -0.0398 -0.1020
10462TIP3    H152877   5.160   0.174  14.025  0.2921 -0.2769  0.6710
10462TIP3    H252878   5.024   0.114  14.052  0.0288 -0.3099 -0.6880
10463TIP3   OH252879   0.615   1.290  16.095 -0.7999 -0.5672 -0.4704
10463TIP3    H152880   0.627   1.308  16.002 -0.6935  2.6926  0.0306
10463TIP3    H252881   0.696   1.319  16.136 -0.6171 -2.4741  0.6532
10464TIP3   OH252882   6.648   2.438  12.840  0.2928 -0.1010 -0.1407
10464TIP3    H152883   6.656   2.354  12.795  1.2678 -0.8620  1.3737
10464TIP3    H252884   6.707   2.497  12.792 -1.3649  0.1737 -2.0294
10465TIP3   OH252885   6.691   4.415  16.636 -0.2825  0.2321 -0.6977
10465TIP3    H152886   6.631   4.358  16.683 -0.7274  1.9279  0.9175
10465TIP3    H252887   6.766   4.425  16.695  0.1678  0.6267 -1.3223
10466TIP3   OH252888   5.925   6.148  11.539  0.0145  0.5520 -0.5925
10466TIP3    H152889   5.942   6.172  11.448  0.5011 -0.9147 -0.9241
10466TIP3    H252890   5.848   6.199  11.564  0.6092  1.9122 -1.4106
10467TIP3   OH252891   6.590   2.391   4.320 -0.1707 -0.2187  0.0833
10467TIP3    H152892   6.510   2.356   4.361  1.1267 -2.9018  0.5265
10467TIP3    H252893   6.586   2.359   4.230 -0.4424  1.2236 -0.4445
10468TIP3   OH252894   2.539   5.053  14.252  0.1711  0.3526 -0.1872
10468TIP3    H152895   2.574   5.079  14.167  0.1440  0.0542 -0.2927
10468TIP3    H252896   2.588   5.106  14.315 -1.6840  2.5884 -0.5008
10469TIP3   OH252897   2.647   6.239   1.104 -0.0536 -0.3014  0.2462
10469TIP3    H152898   2.733   6.251   1.064 -0.2275 -0.6988 -0.2522
10469TIP3    H252899   2.585   6.241   1.031 -0.6519  1.6795  0.7490
10470TIP3   OH252900   2.588   4.076   0.812 -0.4309  0.0847 -0.1665
10470TIP3    H152901   2.505   4.125   0.804 -0.2783  1.1850  3.4789
10470TIP3    H252902   2.591   4.047   0.903  2.9384 -0.4140 -0.3031
10471TIP3   OH252903   6.222   0.189   5.026  0.2595 -0.4904  0.0213
10471TIP3    H152904   6.179   0.251   4.968 -1.1344 -0.5743  0.8990
10471TIP3    H252905   6.182   0.104   5.005  0.7198 -0.7546  0.1820
10472TIP3   OH252906   2.551   2.716  14.129 -0.0333 -0.4527  0.1925
10472TIP3    H152907   2.612   2.762  14.187 -1.8819  0.8280  1.2554
10472TIP3    H252908   2.491   2.672  14.188 -2.0192  0.9447 -0.6618
10473TIP3   OH252909   4.284   4.289   4.056  0.4962 -0.1432 -0.1713
10473TIP3    H152910   4.234   4.269   4.135  0.2809 -0.4597 -0.3842
10473TIP3    H252911   4.375   4.275   4.081  0.5558  1.1394  0.4341
10474TIP3   OH252912   5.047   0.838   3.296  0.6177  0.0263 -0.0164
10474TIP3    H152913   5.035   0.771   3.228  0.8498 -0.6936  0.6258
10474TIP3    H252914   5.049   0.921   3.249 -2.3557 -0.1350 -0.5913
10475TIP3   OH252915   0.255   1.881   2.804  0.1168  0.9291 -0.3824
10475TIP3    H152916   0.325   1.843   2.751  0.3896  0.8135  0.0600
10475TIP3    H252917   0.248   1.971   2.774 -0.6362  0.5197 -1.5537
10476TIP3   OH252918   2.549   4.803   3.943 -0.1906 -0.2937 -0.3922
10476TIP3    H152919   2.483   4.869   3.964  0.7188  0.2778  0.7654
10476TIP3    H252920   2.500   4.720   3.939 -1.1197  0.2485 -0.4921
10477TIP3   OH252921   3.882   0.481   0.583 -0.9948  0.4141  0.0801
10477TIP3    H152922   3.843   0.553   0.634 -0.8415  0.6729 -0.1661
10477TIP3    H252923   3.884   0.514   0.493  0.1378  0.5507  0.1404
10478TIP3   OH252924   4.975   2.550   0.856  0.0553  0.0678  0.1189
10478TIP3    H152925   4.979   2.496   0.935 -0.7346 -0.6598 -0.3239
10478TIP3    H252926   5.047   2.517   0.802 -0.0761 -0.1707  0.0862
10479TIP3   OH252927   4.860   2.968  15.297 -0.5741  0.1870 -0.1416
10479TIP3    H152928   4.856   3.000  15.387 -1.4124 -1.3903  0.4171
10479TIP3    H252929   4.953   2.972  15.275 -0.4092  0.9874  0.6221
10480TIP3   OH252930   3.744   3.617  15.137  0.3431 -1.0443 -0.2871
10480TIP3    H152931   3.708   3.656  15.057  0.9614  0.2525  0.0420
10480TIP3    H252932   3.730   3.684  15.204  2.1561 -1.0503  0.1331
10481TIP3   OH252933   1.200   5.095  14.853  0.1681 -0.1055  0.2685
10481TIP3    H152934   1.257   5.152  14.802 -0.2981 -0.0846 -0.2392
10481TIP3    H252935   1.111   5.121  14.829 -0.0556 -0.6662  0.4516
10482TIP3   OH252936   1.412   2.909   2.141  0.1763  0.5975 -0.3884
10482TIP3    H152937   1.444   2.852   2.072  0.2868  0.5945 -0.3343
10482TIP3    H252938   1.455   2.878   2.221  1.0077  1.3873 -0.5253
10483TIP3   OH252939   5.888   1.191   6.363  0.5957  0.5196 -0.1955
10483TIP3    H152940   5.911   1.185   6.271 -0.7486  0.6204 -0.5538
10483TIP3    H252941   5.970   1.172   6.409  1.2059  0.1328 -1.3928
10484TIP3   OH252942   1.305   5.002  11.088 -0.1587  0.0493  0.6366
10484TIP3    H152943   1.351   5.082  11.114 -1.7929  0.7347  1.5402
10484TIP3    H252944   1.313   5.000  10.993  0.3842  0.9729  0.6473
10485TIP3   OH252945   1.235   6.810   2.286 -0.0915 -0.2091  0.4671
10485TIP3    H152946   1.164   6.779   2.229 -0.2699  1.0446 -0.0366
10485TIP3    H252947   1.207   6.788   2.374 -0.7791 -0.3452  0.2199
10486TIP3   OH252948   1.568   0.365  16.303  0.0566  0.1560  0.5144
10486TIP3    H152949   1.521   0.294  16.260  0.4865  1.2106 -1.8404
10486TIP3    H252950   1.659   0.334  16.308  0.5326  1.0066 -1.8005
10487TIP3   OH252951   3.369   6.830   0.168  0.2876 -0.2454 -0.3788
10487TIP3    H152952   3.287   6.853   0.124 -0.4670  0.4028  1.3189
10487TIP3    H252953   3.391   6.907   0.220  0.4443 -1.4495  1.4016
10488TIP3   OH252954   2.921   0.562  13.194 -0.0946 -0.5088  0.1064
10488TIP3    H152955   2.859   0.608  13.138 -0.8152 -0.1069  1.1918
10488TIP3    H252956   2.927   0.474  13.156 -0.0910 -0.0660 -0.9386
10489TIP3   OH252957   1.820   3.767   3.319 -0.1493  0.3275 -0.0847
10489TIP3    H152958   1.725   3.778   3.315 -0.0272  1.1549 -1.3477
10489TIP3    H252959   1.852   3.847   3.361  0.0160  0.2120  0.0118
10490TIP3   OH252960   0.944   5.779   6.573  0.4505 -0.3692  0.5688
10490TIP3    H152961   0.911   5.792   6.484 -1.0947 -2.0850  0.8189
10490TIP3    H252962   0.968   5.866   6.602  0.8735  0.2628 -1.4739
10491TIP3   OH252963   3.617   1.000  11.789 -0.2861 -0.3152 -0.2073
10491TIP3    H152964   3.632   1.072  11.728 -0.2355 -0.5153 -0.4320
10491TIP3    H252965   3.603   0.923  11.733 -1.7154 -0.2284 -0.0027
10492TIP3   OH252966   4.239   2.649  11.198 -0.2829  0.2312 -0.4810
10492TIP3    H152967   4.195   2.611  11.275 -1.8217  1.0283 -0.9164
10492TIP3    H252968   4.173   2.646  11.129  0.5835  0.8699 -1.3670
10493TIP3   OH252969   5.983   0.869  11.359 -0.0722  0.0438  0.0424
10493TIP3    H152970   5.933   0.900  11.283  1.5216  1.2732 -0.5748
10493TIP3    H252971   5.978   0.774  11.355 -0.2207  0.1005 -1.4791
10494TIP3   OH252972   2.823   6.334  11.616  0.6648  0.4111 -0.5782
10494TIP3    H152973   2.758   6.386  11.570  1.3044  0.2625 -1.6767
10494TIP3    H252974   2.790   6.328  11.706 -1.3696 -0.5363 -1.3315
10495TIP3   OH252975   5.654   0.123   3.320 -0.3299  0.2117  0.4719
10495TIP3    H152976   5.681   0.039   3.356 -1.4729 -1.0366 -1.3898
10495TIP3    H252977   5.712   0.136   3.244 -0.4162  0.9217  0.5191
10496TIP3   OH252978   6.488   5.630  13.920 -0.1215  0.0447 -0.7134
10496TIP3    H152979   6.505   5.694  13.851 -1.2173  1.8305  0.5686
10496TIP3    H252980   6.457   5.683  13.994 -0.1274 -1.8975  0.7547
10497TIP3   OH252981   0.205   5.222  14.288  0.3291  0.5365 -0.6091
10497TIP3    H152982   0.176   5.307  14.321  2.1584  1.2388 -0.7019
10497TIP3    H252983   0.174   5.220  14.198  0.9391  1.4632 -0.8560
10498TIP3   OH252984   2.187   1.334  16.530  0.0504  0.1152 -0.4700
10498TIP3    H152985   2.244   1.283  16.587  3.4403  1.3120 -2.5006
10498TIP3    H252986   2.099   1.304  16.550  1.3074 -1.6918  3.0960
10499TIP3   OH252987   3.703   3.839   0.704  0.0222 -0.1226 -0.2970
10499TIP3    H152988   3.740   3.809   0.787 -0.5903 -1.4494 -0.4622
10499TIP3    H252989   3.613   3.863   0.726  0.0801  0.2223 -0.4396
10500TIP3   OH252990   5.754   2.928   2.654  0.3886  0.2067  0.1596
10500TIP3    H152991   5.820   2.997   2.658  0.5847  0.0807 -0.6891
10500TIP3    H252992   5.804   2.847   2.643  0.0861  0.2002 -1.3693
10501TIP3   OH252993   6.578   3.860   0.721  0.0845 -0.0547 -0.1138
10501TIP3    H152994   6.572   3.786   0.781  0.0686  1.3697  1.7290
10501TIP3    H252995   6.657   3.844   0.671  0.8000 -0.6830  1.1714
10502TIP3   OH252996   1.685   4.566   0.691  0.5098 -0.2025  0.0482
10502TIP3    H152997   1.751   4.506   0.656  0.8192  0.2616 -0.1850
10502TIP3    H252998   1.660   4.620   0.616  0.2041 -0.0705  0.2435
10503TIP3   OH252999   6.638   3.718   3.419 -0.0782  0.3401  0.1857
10503TIP3    H153000   6.663   3.764   3.499  1.1249 -0.3119  0.2144
10503TIP3    H253001   6.589   3.642   3.449  2.4690 -1.2694  0.5310
10504TIP3   OH253002   4.098   4.997   4.509  0.2930 -0.3740  0.2317
10504TIP3    H153003   4.156   5.050   4.455  0.3713  0.9048  1.5302
10504TIP3    H253004   4.143   4.989   4.593 -1.4122  0.7466  1.3157
10505TIP3   OH253005   2.107   2.422   4.279 -0.6462  0.2829 -0.5531
10505TIP3    H153006   2.119   2.484   4.352 -2.4160  1.8716 -1.5316
10505TIP3    H253007   2.195   2.385   4.265  0.2821  1.8548  0.6904
10506TIP3   OH253008   3.580   3.242   5.375  0.2496 -0.2151  0.7722
10506TIP3    H153009   3.509   3.255   5.438  1.9801  0.7143  2.6346
10506TIP3    H253010   3.632   3.322   5.382  0.2747  0.1439 -2.2461
10507TIP3   OH253011   2.839   6.497   3.736  0.0784  0.4876  0.1299
10507TIP3    H153012   2.833   6.434   3.808  1.3448 -0.6488 -0.6980
10507TIP3    H253013   2.790   6.456   3.665 -2.2668  2.1850  0.6582
10508TIP3   OH253014   0.873   1.123  16.463  0.6445  0.1893 -0.2683
10508TIP3    H153015   0.783   1.137  16.492  0.3524 -0.3342 -0.8812
10508TIP3    H253016   0.864   1.071  16.382  1.5651 -1.4132  0.6078
10509TIP3   OH253017   1.649   6.554  16.888  0.1092  0.3493  0.3678
10509TIP3    H153018   1.576   6.535  16.948 -0.8329  0.6599 -0.6520
10509TIP3    H253019   1.655   6.649  16.886 -0.3115  0.3664 -0.5380
10510TIP3   OH253020   3.100   3.005  15.932 -0.0615 -0.1183 -0.1197
10510TIP3    H153021   3.140   2.978  15.849 -0.2955  0.6388 -0.4840
10510TIP3    H253022   3.013   2.965  15.931 -0.1229  0.0185 -0.3122
10511TIP3   OH253023   2.142   1.665   2.113 -0.2422  0.3080  0.3509
10511TIP3    H153024   2.120   1.758   2.110 -1.2641  0.1327  1.4235
10511TIP3    H253025   2.237   1.662   2.108 -0.2159  1.3883 -0.0397
10512TIP3   OH253026   0.350   6.260   2.645 -0.3061  0.0375 -0.2006
10512TIP3    H153027   0.342   6.200   2.571  1.3415 -0.4907  0.0063
10512TIP3    H253028   0.375   6.205   2.719 -1.3046  0.6476  0.6301
10513TIP3   OH253029   0.066   5.817   3.367  0.0012  0.0377  0.0603
10513TIP3    H153030   0.144   5.830   3.311 -1.7432  0.9083 -2.3684
10513TIP3    H253031   0.032   5.906   3.379 -2.7638 -0.5352 -2.3846
10514TIP3   OH253032   2.121   2.691   3.651 -1.0943 -0.1503  0.5293
10514TIP3    H153033   2.043   2.677   3.597 -0.6590 -1.4706  0.2087
10514TIP3    H253034   2.193   2.697   3.588 -0.5963 -1.5907  0.9370
10515TIP3   OH253035   5.575   0.994  16.257  0.4351 -0.1646  0.1129
10515TIP3    H153036   5.520   1.031  16.327 -1.6457  0.3433 -1.6600
10515TIP3    H253037   5.614   0.915  16.296  1.3296  1.3871  2.5577
10516TIP3   OH253038   6.441   2.506   3.649 -0.0757 -0.3722  1.0699
10516TIP3    H153039   6.491   2.431   3.617  1.1762 -0.1717  2.4607
10516TIP3    H253040   6.507   2.568   3.680 -1.1182  0.9608  0.7221
10517TIP3   OH253041   3.753   1.678   0.832  0.3097 -0.2968 -0.3719
10517TIP3    H153042   3.818   1.613   0.857  1.0433  1.0799  1.5425
10517TIP3    H253043   3.669   1.631   0.837  0.8588 -1.2307  0.4820
10518TIP3   OH253044   3.110   5.231   2.654  0.2077  0.0096 -0.0753
10518TIP3    H153045   3.163   5.153   2.640 -1.9171 -1.1768 -2.0571
10518TIP3    H253046   3.136   5.261   2.742  3.3843 -0.9984 -0.5337
10519TIP3   OH253047   2.253   2.530   1.543  0.1387 -0.1294 -0.6030
10519TIP3    H153048   2.165   2.524   1.581  0.7103 -1.6761  0.5861
10519TIP3    H253049   2.257   2.458   1.481 -0.1139  1.2142 -2.2404
10520TIP3   OH253050   1.061   4.459  12.202 -0.3728  0.6917 -0.0501
10520TIP3    H153051   1.086   4.539  12.156 -0.2916  0.4294 -0.4587
10520TIP3    H253052   1.026   4.490  12.286 -0.8987  1.1980 -0.4465
10521TIP3   OH253053   3.869   6.827  11.642  0.0607  0.4621  0.3695
10521TIP3    H153054   3.853   6.753  11.583  1.1359 -0.7185  1.4686
10521TIP3    H253055   3.788   6.833  11.694  0.1198 -0.2555  0.5665
10522TIP3   OH253056   2.090   5.724   2.858  0.1676  0.1506  0.2350
10522TIP3    H153057   2.100   5.629   2.850 -1.3044  0.0293 -0.4536
10522TIP3    H253058   1.996   5.739   2.852  0.3957  1.6913  0.0823
10523TIP3   OH253059   3.708   5.580  11.496  0.0752  0.3221  0.4779
10523TIP3    H153060   3.630   5.557  11.446 -0.0951  0.9709  0.4383
10523TIP3    H253061   3.701   5.527  11.575  0.1284 -0.3906  0.0143
10524TIP3   OH253062   1.049   0.160  13.683 -0.0640 -0.3279  0.8768
10524TIP3    H153063   1.139   0.175  13.711  0.3955 -0.1751 -0.6116
10524TIP3    H253064   1.053   0.081  13.630 -0.5260  0.5039 -0.4379
10525TIP3   OH253065   3.154   2.309  16.364  0.0424 -0.0710  0.1280
10525TIP3    H153066   3.208   2.344  16.434  2.9218 -0.0051 -1.9263
10525TIP3    H253067   3.120   2.386  16.319  0.0212 -0.0695  0.1466
10526TIP3   OH253068   6.769   3.609  14.497  0.2273  0.4370 -0.5586
10526TIP3    H153069   6.695   3.549  14.504 -0.0613  0.8179 -0.3198
10526TIP3    H253070   6.844   3.558  14.528  0.2320 -0.2358 -1.6422
10527TIP3   OH253071   1.020   3.704  14.720 -0.3390 -0.8406  0.5139
10527TIP3    H153072   0.972   3.669  14.645 -2.2788 -0.1303  1.3643
10527TIP3    H253073   1.084   3.636  14.741  0.3782 -0.9948 -1.8414
10528TIP3   OH253074   5.428   3.410  14.127  0.1320 -0.1469  0.2295
10528TIP3    H153075   5.389   3.337  14.079  0.1309 -1.3000  1.8942
10528TIP3    H253076   5.378   3.487  14.099 -0.1629 -0.8419 -1.2188
10529TIP3   OH253077   4.687   4.861   4.562  0.7773  0.4006  0.1556
10529TIP3    H153078   4.592   4.867   4.552  0.6040 -1.7713  0.0698
10529TIP3    H253079   4.705   4.901   4.647 -0.3122  0.1523  0.5161
10530TIP3   OH253080   1.825   1.609   0.949  0.2446  0.2832  0.2104
10530TIP3    H153081   1.825   1.515   0.965  0.5341  0.3934  0.8832
10530TIP3    H253082   1.809   1.648   1.034  2.1796  0.8937  0.3458
10531TIP3   OH253083   0.128   1.260  14.127 -0.7132 -0.1276 -0.6928
10531TIP3    H153084   0.160   1.190  14.069  0.7683 -0.3760  0.3782
10531TIP3    H253085   0.080   1.214  14.196 -1.6289  0.1051 -1.1488
10532TIP3   OH253086   3.164   6.262  13.854 -0.2102 -0.4966 -0.2542
10532TIP3    H153087   3.153   6.239  13.762  1.0894  0.2676 -0.6294
10532TIP3    H253088   3.107   6.202  13.901  0.8849 -2.5311 -1.3724
10533TIP3   OH253089   2.698   0.037   2.251  0.4574 -0.3362  0.0313
10533TIP3    H153090   2.629  -0.003   2.304  1.2317 -0.5667  0.8920
10533TIP3    H253091   2.685   0.132   2.264  0.2815 -0.3749  0.1502
10534TIP3   OH253092   6.399   5.091   0.800 -0.3875 -0.4360 -0.2505
10534TIP3    H153093   6.411   5.103   0.706  1.3596  1.2587  0.1282
10534TIP3    H253094   6.309   5.118   0.817 -0.2188  0.7952 -1.2090
10535TIP3   OH253095   1.403   0.027   3.064  0.1791 -0.2886  0.3020
10535TIP3    H153096   1.440   0.114   3.081  0.7574 -0.2647 -0.9077
10535TIP3    H253097   1.360   0.002   3.146 -1.2645  1.7466  0.2246
10536TIP3   OH253098   5.103   1.192  13.032  0.4019  0.3094 -0.9963
10536TIP3    H153099   5.092   1.116  13.089 -0.5922  0.3883 -1.0651
10536TIP3    H253100   5.182   1.234  13.064 -0.6714  0.9329  1.0351
10537TIP3   OH253101   1.487   0.817  13.658  0.0026  0.0483 -0.3652
10537TIP3    H153102   1.515   0.817  13.749  0.8342 -0.3935 -0.6140
10537TIP3    H253103   1.510   0.905  13.626 -2.6203  1.1404  0.5185
10538TIP3   OH253104   6.173   2.958  16.760 -0.2931 -0.1313 -0.3172
10538TIP3    H153105   6.081   2.947  16.737  0.3086 -4.6584 -1.5940
10538TIP3    H253106   6.220   2.949  16.677  1.3953  0.8639  0.4672
10539TIP3   OH253107   1.297   5.069  11.679  0.0241  0.0823  0.2025
10539TIP3    H153108   1.206   5.045  11.698  0.3482 -0.4137  1.1985
10539TIP3    H253109   1.290   5.144  11.620 -1.0350  0.1627  0.4103
10540TIP3   OH253110   0.258   0.992   0.833 -0.0664  0.0909 -0.4204
10540TIP3    H153111   0.249   1.048   0.756  1.5306 -0.2711 -0.8983
10540TIP3    H253112   0.260   0.903   0.798  0.2909 -0.1015  0.0734
10541TIP3   OH253113   3.451   3.046  12.210 -0.6182  0.1479 -0.1999
10541TIP3    H153114   3.471   3.030  12.302  0.1659  0.8340 -0.2475
10541TIP3    H253115   3.359   3.073  12.210 -1.2412 -1.8101  0.1520
10542TIP3   OH253116   3.103   5.136  17.039 -0.1368  0.1453  0.2336
10542TIP3    H153117   3.086   5.064  16.979  0.6626 -1.1392  1.5015
10542TIP3    H253118   3.165   5.192  16.993 -0.3779 -0.2243 -0.5585
10543TIP3   OH253119   3.605   5.431   5.030  0.1792  0.3128 -0.5339
10543TIP3    H153120   3.654   5.392   4.957 -0.7094  2.1684 -2.2348
10543TIP3    H253121   3.556   5.357   5.068  1.2990 -0.8539 -1.2763
10544TIP3   OH253122   3.971   2.948   2.163  0.4345  0.3947  0.4901
10544TIP3    H153123   3.992   2.917   2.251  1.5966  2.0458  0.8495
10544TIP3    H253124   4.052   2.937   2.113 -0.4696 -1.3596 -0.6687
10545TIP3   OH253125   5.081   5.547  15.508 -0.3945  0.5926  0.4122
10545TIP3    H153126   5.064   5.468  15.559 -1.2731  0.6307  0.2024
10545TIP3    H253127   5.070   5.618  15.572 -0.5424  0.5927  0.3857
10546TIP3   OH253128   2.069   5.359  11.294 -0.1274  0.5730  0.0633
10546TIP3    H153129   2.021   5.407  11.227 -0.3344 -1.4714 -1.3424
10546TIP3    H253130   2.161   5.385  11.281 -0.1429  0.0661 -1.1574
10547TIP3   OH253131   2.120   1.183  12.386 -0.2155  0.7187 -0.6586
10547TIP3    H153132   2.176   1.126  12.333  1.9020  0.9829  1.1636
10547TIP3    H253133   2.127   1.148  12.474 -3.9320  0.0651 -0.4551
10548TIP3   OH253134   3.749   2.267  12.586  0.3689  0.6760 -0.4967
10548TIP3    H153135   3.682   2.200  12.598  2.1306 -0.7017  3.2302
10548TIP3    H253136   3.704   2.350  12.599 -0.6147 -0.2406  2.9291
10549TIP3   OH253137   6.265   1.852   5.364  0.6044 -0.1043 -0.0571
10549TIP3    H153138   6.214   1.792   5.419  0.1809  1.4125  1.2722
10549TIP3    H253139   6.223   1.847   5.278  0.3860 -1.4472  0.1019
10550TIP3   OH253140   4.271   1.876  13.826 -0.2308  0.4449 -0.3642
10550TIP3    H153141   4.273   1.860  13.732  0.3001 -0.8673 -0.1548
10550TIP3    H253142   4.350   1.833  13.859  0.6850  2.5908  0.4501
10551TIP3   OH253143   4.392   5.785  12.828  0.1519 -0.3289  0.7468
10551TIP3    H153144   4.315   5.835  12.798  0.5307  0.2461  0.7233
10551TIP3    H253145   4.356   5.701  12.856 -0.3779 -0.4162 -0.1337
10552TIP3   OH253146   0.469   0.779   3.334  0.4884  0.3839 -0.2543
10552TIP3    H153147   0.528   0.712   3.302  0.6410  1.2154 -1.7918
10552TIP3    H253148   0.381   0.748   3.311  0.2634 -0.7860  1.9098
10553TIP3   OH253149   5.281   5.155  12.997  0.0583  0.0305 -0.2979
10553TIP3    H153150   5.313   5.202  12.919 -0.1036 -2.0685 -1.7044
10553TIP3    H253151   5.186   5.151  12.985  0.1409 -1.3466 -0.6443
10554TIP3   OH253152   1.556   5.761  13.010 -0.3806  0.5213  0.4331
10554TIP3    H153153   1.575   5.698  12.940 -2.1634 -0.0265  0.3803
10554TIP3    H253154   1.566   5.710  13.091  1.5911  1.1310  0.6333
10555TIP3   OH253155   1.884   6.674  11.347 -0.4811  0.1057  0.9468
10555TIP3    H153156   1.790   6.692  11.335 -0.1482  1.4051  0.0467
10555TIP3    H253157   1.916   6.749  11.397 -0.0598 -0.7379  1.9669
10556TIP3   OH253158   2.032   2.359  15.128  0.0431 -0.1085 -0.3812
10556TIP3    H153159   1.982   2.440  15.123 -1.2985 -0.9228 -0.5525
10556TIP3    H253160   2.090   2.362  15.052 -0.2475  0.5324 -0.5847
10557TIP3   OH253161   0.257   2.860  11.784 -0.5676  0.4260 -0.9250
10557TIP3    H153162   0.269   2.924  11.855  1.0284  0.1881 -0.9387
10557TIP3    H253163   0.343   2.818  11.776 -0.8986  0.0296 -2.6064
10558TIP3   OH253164   0.918   1.366  14.181 -0.4054 -0.0379  0.0109
10558TIP3    H153165   0.968   1.336  14.257 -1.0156 -0.8870  0.0912
10558TIP3    H253166   0.985   1.393  14.118  0.1524 -0.7344  0.2873
10559TIP3   OH253167   5.893   0.100  16.882  0.1589  0.3626  0.2241
10559TIP3    H153168   5.983   0.068  16.879  0.3965  1.0115  0.0972
10559TIP3    H253169   5.863   0.082  16.971  0.7704  1.0628  0.5840
10560TIP3   OH253170   4.522   0.283  17.084 -0.3964  0.4435 -0.8655
10560TIP3    H153171   4.585   0.353  17.103 -1.3081  0.9654  0.3501
10560TIP3    H253172   4.502   0.294  16.991 -1.6822  2.8449 -0.3929
10561TIP3   OH253173   2.691   2.875  14.541 -0.0698  0.0347 -0.2567
10561TIP3    H153174   2.718   2.861  14.450 -1.2864  0.8173 -0.7644
10561TIP3    H253175   2.596   2.888  14.536  0.0847  1.9411  0.9066
10562TIP3   OH253176   3.746   1.689  13.839 -0.3036  0.3828  0.5003
10562TIP3    H153177   3.737   1.745  13.762 -1.3754  1.1092  1.1419
10562TIP3    H253178   3.841   1.683  13.853 -0.1602  1.9884  0.3784
10563TIP3   OH253179   4.127   5.655   2.791  0.1792 -0.2678 -0.0722
10563TIP3    H153180   4.119   5.613   2.877  0.8157 -1.1091 -0.4130
10563TIP3    H253181   4.158   5.743   2.810  1.3619 -0.7953  0.5055
10564TIP3   OH253182   1.668   4.114  11.565 -0.5817  0.3969 -0.1481
10564TIP3    H153183   1.696   4.185  11.508  0.7611  0.3107  0.3756
10564TIP3    H253184   1.604   4.065  11.512  0.8046  0.1626 -1.6902
10565TIP3   OH253185   0.394   0.030  12.942 -0.5097 -0.1425 -0.1018
10565TIP3    H153186   0.428  -0.020  12.868 -0.9359 -0.2634 -0.2202
10565TIP3    H253187   0.357  -0.037  13.001  2.0540 -0.3335  1.4653
10566TIP3   OH253188   5.468   4.563  17.126 -0.3570 -0.5177 -0.6192
10566TIP3    H153189   5.391   4.619  17.127 -0.9997 -1.3518  0.9839
10566TIP3    H253190   5.540   4.620  17.153 -0.5241  0.0934 -1.4254
10567TIP3   OH253191   5.432   6.245  16.160 -0.5334  0.3462  0.1487
10567TIP3    H153192   5.414   6.218  16.070  0.1943 -0.8215  0.3288
10567TIP3    H253193   5.462   6.335  16.154 -2.0210  0.8343 -0.6024
10568TIP3   OH253194   5.377   1.460   0.037 -0.4959 -0.3140  0.3989
10568TIP3    H153195   5.296   1.480   0.083  0.0947  1.0489  0.9075
10568TIP3    H253196   5.376   1.516  -0.040 -1.0277 -1.8910 -0.7943
10569TIP3   OH253197   6.363   2.975   5.212 -0.8432 -0.0232  0.4924
10569TIP3    H153198   6.379   2.959   5.305  2.9745 -0.1937 -0.0304
10569TIP3    H253199   6.368   3.070   5.202  0.1360 -0.0907  0.2879
10570TIP3   OH253200   2.042   4.351  12.957  0.7042 -0.1281  0.2257
10570TIP3    H153201   1.987   4.396  12.893  0.7666 -0.8143 -0.3204
10570TIP3    H253202   2.120   4.406  12.964  1.7863 -1.2133 -2.1054
10571TIP3   OH253203   0.250   6.065   4.935 -0.0850  0.6963  0.1176
10571TIP3    H153204   0.214   6.103   4.855  0.8776  0.7348 -0.3028
10571TIP3    H253205   0.266   5.973   4.913  1.2112  0.9523 -0.1070
10572TIP3   OH253206   0.218   1.803   4.330  0.2286  0.2907  0.5519
10572TIP3    H153207   0.290   1.741   4.319 -1.0200 -1.2415  0.5033
10572TIP3    H253208   0.235   1.846   4.413 -0.0332 -1.8707  1.8176
10573TIP3   OH253209   3.952   5.712  14.880  0.0412 -0.1849 -0.1875
10573TIP3    H153210   3.960   5.799  14.917 -1.5383 -0.7390  1.6545
10573TIP3    H253211   3.896   5.723  14.803  1.7623  0.7090 -1.3668
10574TIP3   OH253212   1.695   6.842  16.568  0.6648  0.2694  0.2409
10574TIP3    H153213   1.709   6.824  16.661 -0.4731 -1.5356  0.1345
10574TIP3    H253214   1.599   6.846  16.559  0.6280 -1.7674 -1.1312
10575TIP3   OH253215   4.118   3.021  15.983 -0.5801  0.4672  0.6915
10575TIP3    H153216   4.117   3.095  16.044  0.9227  0.4815  0.7325
10575TIP3    H253217   4.209   2.992  15.982 -0.9174 -0.6273 -0.2458
10576TIP3   OH253218   6.053   6.285  15.383 -0.3007  1.1179 -0.4168
10576TIP3    H153219   5.996   6.216  15.351 -1.0703  1.0823  0.9719
10576TIP3    H253220   6.125   6.239  15.426  0.2382  1.1760 -1.2362
10577TIP3   OH253221   1.603   3.916  15.821 -0.3713  0.1870  0.6041
10577TIP3    H153222   1.594   3.909  15.726  3.1439  2.9108 -0.1293
10577TIP3    H253223   1.602   4.010  15.839 -1.6883 -0.2456  3.4625
10578TIP3   OH253224   6.218   3.395   3.175 -0.2882 -0.4196 -0.2452
10578TIP3    H153225   6.214   3.368   3.267  0.2057 -0.6678 -0.2879
10578TIP3    H253226   6.290   3.458   3.172 -1.4906  0.9900 -0.1369
10579TIP3   OH253227   2.143   4.644  14.664  0.2261  0.2457 -0.2085
10579TIP3    H153228   2.054   4.633  14.631  0.3811  4.1573 -2.5301
10579TIP3    H253229   2.195   4.579  14.616 -1.0303 -0.5928 -0.4678
10580TIP3   OH253230   5.153   0.757  13.350 -0.7905  0.3253 -0.0866
10580TIP3    H153231   5.154   0.661  13.351  1.5107  0.2783  1.0704
10580TIP3    H253232   5.071   0.781  13.392  0.0668 -1.2395  2.7520
10581TIP3   OH253233   0.393   4.569   3.904  0.0997 -0.2689  0.2216
10581TIP3    H153234   0.303   4.543   3.887 -0.0598  0.0108  0.6057
10581TIP3    H253235   0.386   4.639   3.969  0.6191 -0.5770  0.6253
10582TIP3   OH253236   3.495   6.134   0.909 -0.4710 -0.2781  0.0324
10582TIP3    H153237   3.583   6.101   0.888 -0.4058 -0.9012  1.2387
10582TIP3    H253238   3.463   6.168   0.825  1.1608  0.5601 -0.3063
10583TIP3   OH253239   2.638   5.831  12.142  0.4076 -0.4055  0.5597
10583TIP3    H153240   2.639   5.814  12.048  1.6047 -1.5605  0.7507
10583TIP3    H253241   2.624   5.745  12.181  2.9436 -0.4856  1.4933
10584TIP3   OH253242   3.303   1.934  15.111  0.2055  0.0912  0.4662
10584TIP3    H153243   3.396   1.929  15.134  0.2450  0.9291  0.5228
10584TIP3    H253244   3.264   1.982  15.184  0.0373  1.3088 -0.4141
10585TIP3   OH253245   6.736   5.732   4.109  0.4117  0.0593 -0.7547
10585TIP3    H153246   6.708   5.713   4.198 -2.3000 -1.2946 -1.7908
10585TIP3    H253247   6.812   5.789   4.120 -0.6719  1.1407  2.3849
10586TIP3   OH253248   4.985   6.476   4.430 -0.4044  0.3056  0.1039
10586TIP3    H153249   4.906   6.516   4.466 -1.5566  0.3871 -2.2713
10586TIP3    H253250   5.002   6.526   4.350  1.9365  0.1229  0.4425
10587TIP3   OH253251   5.182   1.113  12.496  0.1901 -0.0903 -0.4193
10587TIP3    H153252   5.210   1.205  12.488  0.5552 -0.1337  0.2756
10587TIP3    H253253   5.154   1.105  12.587  1.1711 -0.9471 -0.1861
10588TIP3   OH253254   0.528   2.719  13.857  0.0242 -0.4447 -0.4859
10588TIP3    H153255   0.583   2.743  13.932  0.8175  0.2816 -1.2782
10588TIP3    H253256   0.577   2.749  13.781 -0.0724 -2.4902 -1.4155
10589TIP3   OH253257   6.023   0.537   5.015  0.4470 -0.4377  0.5307
10589TIP3    H153258   6.023   0.454   4.967 -0.4135 -1.4680  2.2005
10589TIP3    H253259   6.096   0.586   4.978  0.3001 -1.4809 -1.2505
10590TIP3   OH253260   3.799   1.849   4.413 -0.0617  0.0467 -0.6390
10590TIP3    H153261   3.833   1.760   4.414 -0.5814 -0.1768 -1.6715
10590TIP3    H253262   3.708   1.841   4.441 -0.5290  0.0456 -2.0832
10591TIP3   OH253263   6.402   2.549   1.869  0.0090 -0.3244  1.1220
10591TIP3    H153264   6.349   2.587   1.799  1.6293  0.0921  0.0667
10591TIP3    H253265   6.362   2.582   1.950  0.5517  2.6505  0.2984
10592TIP3   OH253266   3.673   5.064   6.233  0.0715 -0.2639 -0.1081
10592TIP3    H153267   3.744   5.021   6.185 -0.1745 -1.2368  0.3743
10592TIP3    H253268   3.612   4.993   6.254 -0.1246  0.2406  1.0970
10593TIP3   OH253269   6.589   1.540  16.242 -0.2483 -0.1105 -0.7183
10593TIP3    H153270   6.538   1.584  16.175 -0.9113 -1.4766 -1.1442
10593TIP3    H253271   6.647   1.481  16.194 -0.5115 -0.8722 -0.1187
10594TIP3   OH253272   0.571   3.574  16.139 -0.0359  0.0900  0.0535
10594TIP3    H153273   0.503   3.560  16.073  0.3209  1.0672 -0.5368
10594TIP3    H253274   0.650   3.534  16.101  0.1552  0.5987 -0.0906
10595TIP3   OH253275   4.259   2.805  16.953 -0.0550 -0.3081  0.1877
10595TIP3    H153276   4.181   2.858  16.972  0.1334  0.4859 -1.0933
10595TIP3    H253277   4.320   2.827  17.024 -0.4652  0.2040  0.3946
10596TIP3   OH253278   4.585   1.778  11.030 -0.1564 -0.2200 -0.2171
10596TIP3    H153279   4.578   1.683  11.025  1.6701 -0.3855 -0.1743
10596TIP3    H253280   4.669   1.798  10.989 -0.0772  1.3044  0.6283
10597TIP3   OH253281   3.758   0.425  13.701 -0.6702  0.2074  0.0266
10597TIP3    H153282   3.833   0.371  13.676  0.7176  2.0121  0.0435
10597TIP3    H253283   3.688   0.397  13.642  0.7862  0.2036 -1.8191
10598TIP3   OH253284   2.502   0.331  10.442  0.2408 -0.3230 -0.6654
10598TIP3    H153285   2.442   0.389  10.395 -0.4690 -0.7737 -0.3346
10598TIP3    H253286   2.489   0.245  10.402  0.3594 -0.5054 -0.3207
10599TIP3   OH253287   6.184   5.485  13.168 -0.8569  0.1138  0.1674
10599TIP3    H153288   6.180   5.451  13.257 -1.6372  1.0667  0.5225
10599TIP3    H253289   6.093   5.482  13.137 -0.4221 -1.3636 -1.0661
10600TIP3   OH253290   5.495   0.627   5.546 -0.0673 -0.1867 -0.0410
10600TIP3    H153291   5.418   0.675   5.514  0.5297  0.1637 -0.9782
10600TIP3    H253292   5.496   0.646   5.640 -1.6890 -1.0089  0.1827
10601TIP3   OH253293   1.285   5.718  12.570 -0.5703  0.3043  0.6258
10601TIP3    H153294   1.363   5.703  12.623  1.3929  1.1789 -1.8182
10601TIP3    H253295   1.289   5.651  12.502 -2.7319 -0.4657  1.1822
10602TIP3   OH253296   0.494   4.020   4.728  0.3879  0.8509  0.0894
10602TIP3    H153297   0.587   4.020   4.751  0.8297  2.6390 -1.4533
10602TIP3    H253298   0.455   4.082   4.789  0.0842 -0.2359  1.0350
10603TIP3   OH253299   6.656   4.740   4.407 -0.1705  0.1871  0.4187
10603TIP3    H153300   6.626   4.831   4.411  1.7341  1.0114 -1.6471
10603TIP3    H253301   6.659   4.720   4.313  0.1114 -1.7923  0.7984
10604TIP3   OH253302   6.526   4.844  14.055  0.6400 -0.4042  0.2938
10604TIP3    H153303   6.452   4.795  14.091 -0.0490  1.3943  1.4751
10604TIP3    H253304   6.579   4.778  14.010 -0.2142 -2.2129  1.8019
10605TIP3   OH253305   5.315   0.429   2.664 -0.0533  0.4622  0.6857
10605TIP3    H153306   5.390   0.475   2.702  0.0779 -0.5244  1.6917
10605TIP3    H253307   5.253   0.497   2.642  0.6077  1.2019  1.0535
10606TIP3   OH253308   2.113   3.863  11.725  0.5351 -0.9246 -0.4019
10606TIP3    H153309   2.022   3.878  11.700  0.5421 -0.3786 -0.1264
10606TIP3    H253310   2.156   3.833  11.645  0.2394 -0.6266 -0.6731
10607TIP3   OH253311   1.178   2.019  10.607  0.0642 -0.4561  0.6016
10607TIP3    H153312   1.116   1.966  10.557  0.4473 -0.1119 -0.2591
10607TIP3    H253313   1.264   1.995  10.572  0.1834  1.5204 -0.6461
10608TIP3   OH253314   4.567   1.735   2.308  0.3490  0.1879 -0.1915
10608TIP3    H153315   4.570   1.829   2.290  1.5878  0.0254 -0.8926
10608TIP3    H253316   4.552   1.694   2.223  0.3186 -0.2890  0.0400
10609TIP3   OH253317   6.425   0.787   4.568 -0.1783 -0.0159  0.2253
10609TIP3    H153318   6.384   0.865   4.531  2.1025  1.2340  0.1969
10609TIP3    H253319   6.375   0.769   4.648 -1.2874  0.9195 -0.2257
10610TIP3   OH253320   0.540   0.175   3.410  0.2688  0.2276  0.8422
10610TIP3    H153321   0.555   0.090   3.451 -0.1252 -0.0682  0.3920
10610TIP3    H253322   0.622   0.223   3.423  0.6216 -0.3516  0.7996
10611TIP3   OH253323   1.818   6.155  15.326 -0.2642  0.6941  0.5326
10611TIP3    H153324   1.903   6.154  15.369 -1.6663  0.0919  3.5640
10611TIP3    H253325   1.768   6.222  15.374 -2.0747 -0.2771  0.0988
10612TIP3   OH253326   4.755   0.697  10.897 -0.0589 -0.5712 -0.0607
10612TIP3    H153327   4.805   0.659  10.969 -0.0863 -0.3833  0.0566
10612TIP3    H253328   4.675   0.644  10.894  0.0324 -0.7103 -0.0881
10613TIP3   OH253329   3.629   4.320   0.071  0.1561  0.1877  0.4468
10613TIP3    H153330   3.675   4.236   0.075  0.1480  0.1318 -0.3667
10613TIP3    H253331   3.691   4.383   0.109  0.1304 -0.1881  1.1330
10614TIP3   OH253332   5.473   0.768  14.852  0.3926  0.5350  0.5080
10614TIP3    H153333   5.453   0.722  14.934 -1.4333  2.4253  1.1961
10614TIP3    H253334   5.533   0.838  14.879  1.1130  0.1658 -0.0933
10615TIP3   OH253335   1.574   0.655  12.040 -0.2156  0.1375  0.3191
10615TIP3    H153336   1.501   0.595  12.023 -0.2332  0.2235  0.0926
10615TIP3    H253337   1.538   0.741  12.022  0.1977  0.1150 -0.6436
10616TIP3   OH253338   3.740   2.849  15.964 -0.6362  0.2316 -0.5960
10616TIP3    H153339   3.778   2.913  15.905  0.9305  0.2122  0.3427
10616TIP3    H253340   3.680   2.798  15.909  0.4806  0.4520 -2.0808
10617TIP3   OH253341   6.221   4.184   2.293 -0.1881  0.3047  0.1613
10617TIP3    H153342   6.188   4.164   2.380 -0.1501  2.2201  0.6503
10617TIP3    H253343   6.290   4.249   2.307 -0.5519  1.0533 -1.3306
10618TIP3   OH253344   0.726   6.201   0.477  0.4125 -0.2837 -0.4295
10618TIP3    H153345   0.794   6.255   0.435  1.6241 -1.1005  0.4079
10618TIP3    H253346   0.765   6.114   0.483 -0.2422 -0.4998  1.1519
10619TIP3   OH253347   0.339   6.743   0.526 -0.3559  0.1085 -0.6272
10619TIP3    H153348   0.275   6.736   0.597  0.4178  0.1737  0.0901
10619TIP3    H253349   0.287   6.733   0.446 -1.2757  0.2620 -0.0665
10620TIP3   OH253350   6.750   6.228  15.139 -0.4211  0.3053 -0.0917
10620TIP3    H153351   6.720   6.209  15.050  1.1927  0.7435 -0.7497
10620TIP3    H253352   6.816   6.162  15.157  2.2666  2.5893 -0.8415
10621TIP3   OH253353   0.219   2.170   2.698  0.0394  0.6966 -0.5978
10621TIP3    H153354   0.267   2.243   2.659  0.2526  1.1127  0.4161
10621TIP3    H253355   0.208   2.108   2.626  1.4994  0.8901 -1.0313
10622TIP3   OH253356   2.902   2.962  13.683  0.1222  0.5354 -0.2327
10622TIP3    H153357   2.981   2.909  13.694  0.0188  0.6909  1.5105
10622TIP3    H253358   2.922   3.045  13.726 -1.2528  0.2913  0.9543
10623TIP3   OH253359   2.363   3.446   4.515 -0.0728  0.6294  0.0372
10623TIP3    H153360   2.401   3.362   4.488 -1.2475 -0.1189  0.6015
10623TIP3    H253361   2.435   3.509   4.508  0.5854 -0.2205 -1.3567
10624TIP3   OH253362   3.859   4.592  14.008 -0.1029 -0.0905 -0.0023
10624TIP3    H153363   3.862   4.659  13.939  0.0950 -0.3015 -0.2012
10624TIP3    H253364   3.916   4.626  14.076  0.1384 -0.1387 -0.1793
10625TIP3   OH253365   6.743   2.535   6.227 -0.0163  0.5197 -0.5229
10625TIP3    H153366   6.809   2.490   6.280 -0.1554  0.4652 -0.3972
10625TIP3    H253367   6.718   2.470   6.160  0.3042  0.6556 -0.7811
10626TIP3   OH253368   2.124   4.764  12.062 -0.2665  0.0155  0.1199
10626TIP3    H153369   2.060   4.746  12.130 -0.4286 -0.0738 -0.0567
10626TIP3    H253370   2.154   4.678  12.032  2.1164  0.0058  2.2289
10627TIP3   OH253371   0.779   1.748  15.461  0.1038 -0.2270 -0.1690
10627TIP3    H153372   0.853   1.706  15.504  0.8255  0.6054 -0.5739
10627TIP3    H253373   0.819   1.808  15.398 -0.9173 -0.4995 -1.1021
10628TIP3   OH253374   4.048   4.292   6.470  0.3140  0.2226 -0.0928
10628TIP3    H153375   4.143   4.291   6.474  0.2737 -0.0787  1.0594
10628TIP3    H253376   4.025   4.212   6.422  0.5908 -1.1405  1.8906
10629TIP3   OH253377   5.693   6.363   3.349 -0.0558 -0.2012 -0.1264
10629TIP3    H153378   5.616   6.390   3.399 -0.3370 -0.4708 -0.4127
10629TIP3    H253379   5.664   6.286   3.300  0.0510  0.4119 -1.1623
10630TIP3   OH253380   5.833   1.793  13.905 -0.2078  0.4108 -0.0315
10630TIP3    H153381   5.804   1.758  13.821 -2.3673  0.3778  0.6754
10630TIP3    H253382   5.868   1.879  13.884  1.8293 -0.6353 -1.2902
10631TIP3   OH253383   6.162   1.651  16.069  0.8335  0.3650 -0.2336
10631TIP3    H153384   6.254   1.676  16.075  1.6588 -2.2828 -0.3057
10631TIP3    H253385   6.129   1.695  15.991  1.9215  1.6550  0.0121
10632TIP3   OH253386   0.148   5.247  11.486  0.1184  1.2165  0.0540
10632TIP3    H153387   0.081   5.247  11.417  1.2511  2.6991 -1.0980
10632TIP3    H253388   0.107   5.199  11.558 -1.8612  1.3322 -0.9174
10633TIP3   OH253389   2.026   2.631  12.107  0.8384 -0.1437 -0.0750
10633TIP3    H153390   2.025   2.536  12.102 -1.3766 -0.1280 -1.5776
10633TIP3    H253391   2.030   2.660  12.016 -1.1712  1.0970  0.1592
10634TIP3   OH253392   1.117   1.139   2.361  0.4530  1.0379  0.7368
10634TIP3    H153393   1.047   1.190   2.319 -1.1014 -0.2719  1.6234
10634TIP3    H253394   1.120   1.171   2.451 -1.4962 -1.2293  1.7095
10635TIP3   OH253395   5.276   4.898  14.172 -0.1835 -0.3427 -0.0146
10635TIP3    H153396   5.236   4.812  14.160  0.0623 -0.2573 -1.6597
10635TIP3    H253397   5.260   4.944  14.090 -0.6464  1.3478  0.9613
10636TIP3   OH253398   2.484   3.432   3.563  0.0298 -0.1753 -0.4845
10636TIP3    H153399   2.468   3.416   3.470  1.3791 -0.6986 -0.6455
10636TIP3    H253400   2.472   3.527   3.573  0.4265 -0.0285 -1.3098
10637TIP3   OH253401   4.897   1.956  14.998 -0.3833 -0.1151 -0.4396
10637TIP3    H153402   4.992   1.946  15.005 -0.3450  1.1579  2.0290
10637TIP3    H253403   4.861   1.871  15.025  0.0876  0.3200  1.7562
10638TIP3   OH253404   2.449   1.792   2.750 -0.6654  0.0496 -0.3436
10638TIP3    H153405   2.461   1.825   2.840  1.1441 -0.3171 -0.3984
10638TIP3    H253406   2.533   1.811   2.707 -1.0395 -0.9683 -1.5739
10639TIP3   OH253407   5.950   0.033   1.279 -0.2336  0.2918 -0.0005
10639TIP3    H153408   6.024  -0.019   1.247  1.6934  2.3751  0.7731
10639TIP3    H253409   5.991   0.105   1.327 -2.7894  1.7589  0.1414
10640TIP3   OH253410   2.794   4.184   2.829 -0.3565  0.3899 -0.3700
10640TIP3    H153411   2.805   4.256   2.891  0.5871 -0.0763  0.0297
10640TIP3    H253412   2.831   4.108   2.873  1.4009  0.2726 -1.8881
10641TIP3   OH253413   4.197   2.228  14.150  0.7693  0.4695  0.8089
10641TIP3    H153414   4.267   2.165  14.132  0.3068 -0.0820  0.8750
10641TIP3    H253415   4.215   2.302  14.094  1.6284  0.5025  1.1151
10642TIP3   OH253416   3.075   1.781   0.897 -0.2015 -0.4649 -0.0609
10642TIP3    H153417   3.123   1.864   0.905 -1.0295 -0.1063  1.8643
10642TIP3    H253418   3.033   1.786   0.812 -1.8270  2.0638  0.7736
10643TIP3   OH253419   6.158   4.325  12.838  0.0668 -0.6910 -0.8763
10643TIP3    H153420   6.165   4.380  12.760 -1.1719 -1.7867 -1.8031
10643TIP3    H253421   6.216   4.251  12.822  0.3638 -0.5588 -0.4305
10644TIP3   OH253422   2.652   6.079  14.442  0.2099  0.3144  0.2893
10644TIP3    H153423   2.632   6.142  14.511 -0.4573 -0.7537  1.1062
10644TIP3    H253424   2.667   5.996  14.488 -0.0110 -0.3731 -0.8226
10645TIP3   OH253425   0.294   2.753   5.870  0.7836 -0.5593 -0.6279
10645TIP3    H153426   0.237   2.700   5.926  0.6558 -0.7187 -0.9042
10645TIP3    H253427   0.314   2.696   5.796  1.3472 -0.5217 -0.5078
10646TIP3   OH253428   3.424   1.541  11.371  0.5774  0.0374  0.5047
10646TIP3    H153429   3.516   1.534  11.348  0.4197 -0.5780  0.0372
10646TIP3    H253430   3.415   1.488  11.451  0.3835 -1.0087 -0.1868
10647TIP3   OH253431   0.903   5.898  16.684 -0.7344 -0.1506 -0.2988
10647TIP3    H153432   0.978   5.849  16.718 -0.1674  1.3097  0.6734
10647TIP3    H253433   0.918   5.904  16.590  0.8647  0.8671 -0.0136
10648TIP3   OH253434   5.466   0.989  14.256  0.2606  0.1770  0.5664
10648TIP3    H153435   5.405   1.011  14.326  2.0416  0.0951  2.2230
10648TIP3    H253436   5.434   0.905  14.222 -0.5847  0.1606  1.3672
10649TIP3   OH253437   2.276   5.966  11.383 -0.1928 -0.6176  0.4808
10649TIP3    H153438   2.280   5.883  11.334  0.5709  0.0989 -0.7246
10649TIP3    H253439   2.189   6.001  11.365  0.2749 -0.0884 -0.8763
10650TIP3   OH253440   1.162   1.641   3.603 -0.2424 -0.2293  0.6014
10650TIP3    H153441   1.200   1.721   3.638 -1.6890  0.4568  0.6819
10650TIP3    H253442   1.134   1.591   3.680  0.8155 -0.9121  0.5589
10651TIP3   OH253443   6.329   1.370   5.044  0.3251 -0.0256 -0.7386
10651TIP3    H153444   6.399   1.425   5.078  2.3115 -1.8222 -1.6711
10651TIP3    H253445   6.262   1.371   5.112  2.2833 -0.0773  1.2944
10652TIP3   OH253446   6.088   0.393   5.236  0.8243  0.6584  0.5639
10652TIP3    H153447   6.064   0.461   5.173  0.9922 -0.2933 -0.5470
10652TIP3    H253448   6.150   0.338   5.189  0.7556 -0.2208  1.4847
10653TIP3   OH253449   0.599   6.534   0.403  0.3850 -0.2359 -0.0621
10653TIP3    H153450   0.581   6.597   0.473 -0.4661 -2.0074  1.4086
10653TIP3    H253451   0.609   6.588   0.324 -0.1969  1.7249  1.1257
10654TIP3   OH253452   6.839   6.325   5.186 -0.6393 -0.0659  0.1097
10654TIP3    H153453   6.801   6.413   5.181 -1.6079 -0.5259 -1.3860
10654TIP3    H253454   6.931   6.340   5.207 -0.7476  1.3269 -0.2811
10655TIP3   OH253455   5.558   6.007  16.001 -0.4800 -0.0307  0.2815
10655TIP3    H153456   5.476   6.046  15.971  0.0047  0.0032 -1.0632
10655TIP3    H253457   5.531   5.940  16.064 -1.7128 -1.2834 -1.4538
10656TIP3   OH253458   5.978   1.458  12.085 -0.6032 -0.3602  0.2739
10656TIP3    H153459   6.055   1.489  12.134  0.1027 -0.9449 -0.4255
10656TIP3    H253460   6.006   1.463  11.993 -2.0245  1.0740 -0.1241
10657TIP3   OH253461   3.510   1.080   3.684 -0.2535 -0.9573  0.3217
10657TIP3    H153462   3.517   1.002   3.739  1.3267 -0.2393  1.2272
10657TIP3    H253463   3.510   1.154   3.746 -5.9468 -0.1161 -0.1364
10658TIP3   OH253464   6.337   6.443   3.852 -0.6500 -0.3158  0.5312
10658TIP3    H153465   6.370   6.365   3.896 -0.5968 -1.6735 -1.7482
10658TIP3    H253466   6.242   6.439   3.863 -0.7718 -1.4842 -0.6818
10659TIP3   OH253467   3.975   6.408  11.160  0.1721 -0.0298 -0.4412
10659TIP3    H153468   3.889   6.450  11.161 -0.6987 -1.7554 -0.1482
10659TIP3    H253469   4.037   6.481  11.156 -1.2142  1.3532  1.5179
10660TIP3   OH253470   1.126   6.743   1.031 -0.4779 -0.2600  0.5040
10660TIP3    H153471   1.091   6.694   0.957 -0.8942 -0.8308  1.0690
10660TIP3    H253472   1.059   6.737   1.098  0.2728 -0.5386  1.2562
10661TIP3   OH253473   6.062   1.825  16.716 -0.1711  0.0103 -0.4199
10661TIP3    H153474   6.131   1.760  16.723 -0.4223 -0.1922  0.2750
10661TIP3    H253475   6.108   1.907  16.700  0.4061  0.1944  1.7439
10662TIP3   OH253476   4.981   3.297   2.119 -0.2025  0.0702  0.8323
10662TIP3    H153477   5.063   3.329   2.081 -1.5934 -1.1027 -3.8180
10662TIP3    H253478   4.917   3.366   2.100 -0.7519  0.0737  2.5423
10663TIP3   OH253479   6.479   0.092  13.440 -0.1655 -0.1712  0.0582
10663TIP3    H153480   6.573   0.081  13.453  0.1174  2.2729  0.6188
10663TIP3    H253481   6.471   0.174  13.393 -1.9967 -1.0369 -1.2365
10664TIP3   OH253482   2.364   3.872  13.525 -0.6359  0.1723 -0.3292
10664TIP3    H153483   2.394   3.784  13.549  1.0581 -0.8339 -5.0738
10664TIP3    H253484   2.440   3.928  13.541  0.0163 -0.2415 -1.8008
10665TIP3   OH253485   2.695   0.357   3.683 -0.3599  0.1451 -0.9318
10665TIP3    H153486   2.713   0.281   3.738  1.5299  1.0959 -0.1562
10665TIP3    H253487   2.635   0.410   3.736  0.1304  0.2687 -0.4926
10666TIP3   OH253488   4.958   2.173  10.954 -0.1765 -0.1875 -0.1114
10666TIP3    H153489   4.941   2.156  10.862 -0.6860 -1.8815  0.2522
10666TIP3    H253490   4.881   2.220  10.985 -0.8178 -1.1558 -0.1820
10667TIP3   OH253491   1.412   2.613  14.822 -0.1807 -0.2374  0.4728
10667TIP3    H153492   1.329   2.570  14.799 -0.7168  0.6045  0.8127
10667TIP3    H253493   1.472   2.540  14.841 -1.9088 -0.9176  4.1118
10668TIP3   OH253494   3.949   1.712  13.428 -0.3838  0.2953  0.3449
10668TIP3    H153495   3.925   1.698  13.337  2.5778  0.3299 -0.5520
10668TIP3    H253496   3.912   1.637  13.475 -1.3089 -0.1225 -1.0048
10669TIP3   OH253497   3.722   1.794  12.303  0.6193  0.3339 -0.1500
10669TIP3    H153498   3.810   1.779  12.338  0.6427  0.3358 -0.2087
10669TIP3    H253499   3.711   1.889  12.304  0.2711  0.2944  0.7263
10670TIP3   OH253500   2.100   1.612   0.613  0.3932 -1.2234 -0.0895
10670TIP3    H153501   2.117   1.655   0.529 -0.7489 -1.5984 -0.5354
10670TIP3    H253502   2.009   1.582   0.606  0.7168 -2.4636  0.7548
10671TIP3   OH253503   3.532   3.072  13.675  0.4987  0.1370 -1.0024
10671TIP3    H153504   3.599   3.040  13.736 -0.1376 -1.4861 -1.1011
10671TIP3    H253505   3.478   2.995  13.657 -3.4956  1.9674  1.6803
10672TIP3   OH253506   1.353   2.495   4.175 -0.5204  0.4365  1.1092
10672TIP3    H153507   1.312   2.533   4.098 -0.3596 -0.2961  0.6451
10672TIP3    H253508   1.286   2.497   4.243 -0.6283  1.1855  0.9853
10673TIP3   OH253509   6.140   0.541  14.796  0.2894 -0.0431  0.0102
10673TIP3    H153510   6.212   0.565  14.855  2.0428  0.1455 -2.0931
10673TIP3    H253511   6.162   0.453  14.766 -0.4599 -0.0611 -0.4977
10674TIP3   OH253512   2.998   3.461   2.998  0.0349  0.3648  0.2042
10674TIP3    H153513   3.054   3.389   3.028  0.6580  0.6412 -0.2988
10674TIP3    H253514   3.015   3.532   3.059  0.4297  0.5328 -0.0951
10675TIP3   OH253515   6.338   3.348  15.906 -0.4354  0.4279 -0.1433
10675TIP3    H153516   6.323   3.442  15.904  1.9575  0.8885  0.6588
10675TIP3    H253517   6.297   3.319  15.988 -2.4367  0.4459 -1.0652
10676TIP3   OH253518   3.844   2.643  14.348  0.2063  0.3741 -0.0991
10676TIP3    H153519   3.847   2.551  14.373 -0.5671  0.2386 -0.4834
10676TIP3    H253520   3.873   2.644  14.257 -0.6571  0.3847 -0.3866
10677TIP3   OH253521   1.560   0.932  13.063 -0.1941 -0.2611 -0.0766
10677TIP3    H153522   1.534   0.929  13.155 -1.2875 -1.7840 -0.3999
10677TIP3    H253523   1.499   0.992  13.022  0.3919  0.5417  0.1978
10678TIP3   OH253524   5.847   0.278   0.932 -0.0060  0.4025 -0.0494
10678TIP3    H153525   5.931   0.231   0.936 -0.4158 -0.2817  0.9810
10678TIP3    H253526   5.811   0.270   1.021  0.4069  3.6410  0.5134
10679TIP3   OH253527   6.192   1.740  15.656  0.0787  0.2697  0.1751
10679TIP3    H153528   6.153   1.768  15.573 -0.2771  2.5189  1.0160
10679TIP3    H253529   6.118   1.716  15.711  0.2251  0.0149  0.2635
10680TIP3   OH253530   3.843   3.560   2.520  0.1356  0.0708  0.4290
10680TIP3    H153531   3.799   3.585   2.601 -0.4088  0.5496  0.0032
10680TIP3    H253532   3.832   3.636   2.462  0.1426 -0.4191 -0.2334
10681TIP3   OH253533   5.621   6.785  12.582 -0.1349  0.1126  0.4769
10681TIP3    H153534   5.565   6.734  12.524 -0.6418 -0.9403  1.8326
10681TIP3    H253535   5.710   6.759  12.559 -0.3548 -0.6539  0.4754
10682TIP3   OH253536   0.811   0.405  14.799  0.0052  0.8091  0.1277
10682TIP3    H153537   0.903   0.430  14.805  1.0531 -2.3927 -0.5514
10682TIP3    H253538   0.785   0.388  14.890 -0.5092  3.2307  0.5132
10683TIP3   OH253539   1.851   3.274  13.439  0.3102 -0.5430  0.3743
10683TIP3    H153540   1.802   3.320  13.371  0.0355 -0.4589  0.6234
10683TIP3    H253541   1.897   3.344  13.487  1.6347 -0.7161 -0.5890
10684TIP3   OH253542   5.566   1.092   2.753 -0.2337 -0.4894  0.2637
10684TIP3    H153543   5.560   1.139   2.670 -2.1078 -0.9649  0.0895
10684TIP3    H253544   5.624   1.146   2.807 -1.0243  1.1772 -0.4732
10685TIP3   OH253545   4.058   2.826  11.427 -0.8696 -0.4741  0.2390
10685TIP3    H153546   4.034   2.786  11.511 -0.0017 -1.9649 -0.1914
10685TIP3    H253547   4.146   2.859  11.441 -0.8268 -0.4859  0.0023
10686TIP3   OH253548   6.056   5.719   2.674 -0.1885  0.1943  0.6717
10686TIP3    H153549   6.010   5.636   2.690  1.3859 -1.1660 -1.3851
10686TIP3    H253550   6.089   5.744   2.760 -0.8670 -1.1947  1.3894
10687TIP3   OH253551   3.816   1.767  15.523 -0.1146  0.1961  0.6430
10687TIP3    H153552   3.760   1.845  15.525 -0.6162 -0.1486  0.4318
10687TIP3    H253553   3.785   1.718  15.447  0.0824 -0.2954  0.8776
10688TIP3   OH253554   2.764   2.967  11.434  0.3080 -0.3396 -0.6617
10688TIP3    H153555   2.708   2.960  11.357 -1.5417  0.6591  0.5029
10688TIP3    H253556   2.815   2.886  11.435 -0.6646 -1.0125 -2.1275
10689TIP3   OH253557   3.490   6.262   1.587 -0.1346 -0.0576  0.2118
10689TIP3    H153558   3.523   6.186   1.635  1.7229  0.2912 -0.4503
10689TIP3    H253559   3.550   6.272   1.514 -1.9360  0.4181 -1.2955
10690TIP3   OH253560   4.963   5.054   6.423 -0.5630  0.6480  0.0419
10690TIP3    H153561   4.948   5.036   6.516  0.2498  0.8130  0.2146
10690TIP3    H253562   4.876   5.053   6.384 -0.8405 -0.3457  0.6351
10691TIP3   OH253563   2.440   1.223  11.780 -0.2493 -0.6491 -0.2567
10691TIP3    H153564   2.484   1.144  11.748 -1.0405 -0.3955 -2.0604
10691TIP3    H253565   2.461   1.290  11.715 -1.5231  0.0199  0.0066
10692TIP3   OH253566   0.495   3.750  10.849 -0.8166  0.2183  0.1701
10692TIP3    H153567   0.548   3.690  10.797 -0.9285 -1.8619  2.2905
10692TIP3    H253568   0.558   3.813  10.884  0.1232 -1.3553  1.4763
10693TIP3   OH253569   2.972   2.396   5.237  0.3521  0.6636  0.0044
10693TIP3    H153570   2.882   2.418   5.262  0.0226 -1.4503  0.8302
10693TIP3    H253571   3.007   2.478   5.202 -1.5546  1.8034  0.6052
10694TIP3   OH253572   5.485   4.419  14.838  0.2978 -0.2585  0.2446
10694TIP3    H153573   5.530   4.372  14.908  1.5527  1.7652  0.8898
10694TIP3    H253574   5.524   4.506  14.839 -0.2733  0.1111 -2.4115
10695TIP3   OH253575   3.562   5.859   2.272 -0.1735  0.2826  0.0474
10695TIP3    H153576   3.626   5.929   2.259 -1.2978  1.1533 -1.0309
10695TIP3    H253577   3.599   5.784   2.226 -0.0611  0.8643 -0.8228
10696TIP3   OH253578   1.061   0.799  14.108 -0.0248  0.3745  0.4263
10696TIP3    H153579   1.121   0.778  14.179  0.2578 -0.5455 -0.0666
10696TIP3    H253580   1.065   0.723  14.049 -1.3032  0.5005  0.1385
10697TIP3   OH253581   1.318   3.520  12.025  0.2097  0.7529 -0.1066
10697TIP3    H153582   1.366   3.554  12.101  0.6310 -2.3507  1.1649
10697TIP3    H253583   1.385   3.513  11.957  0.4969  0.8516  0.1589
10698TIP3   OH253584   1.453   0.904   2.555 -0.0146 -0.2653 -0.4802
10698TIP3    H153585   1.459   0.809   2.540  2.0147 -0.1606 -0.6633
10698TIP3    H253586   1.449   0.941   2.467 -0.9336 -0.1723 -0.4053
10699TIP3   OH253587   2.417   5.137   5.152  0.0760  0.1251  0.4673
10699TIP3    H153588   2.484   5.074   5.179  0.8350 -0.0643 -1.6379
10699TIP3    H253589   2.420   5.135   5.056 -2.5051  0.6164  0.3136
10700TIP3   OH253590   5.094   5.355  13.706 -0.9032 -0.5336 -0.3635
10700TIP3    H153591   5.185   5.331  13.727 -0.5969 -0.7561 -1.8629
10700TIP3    H253592   5.041   5.309  13.771  0.0944  0.5164  1.2908
10701TIP3   OH253593   3.468   5.883  15.851  0.0080  0.1954 -0.0185
10701TIP3    H153594   3.378   5.851  15.854  0.1320 -0.1278  0.2429
10701TIP3    H253595   3.460   5.974  15.823 -0.3246 -0.1561 -1.1155
10702TIP3   OH253596   6.466   1.543   0.953 -0.3416  0.3531  0.2665
10702TIP3    H153597   6.391   1.487   0.934 -0.8546  0.9955  0.3613
10702TIP3    H253598   6.478   1.535   1.048  0.3187 -0.4977  0.1174
10703TIP3   OH253599   2.337   1.222  13.406 -0.1724 -1.0956  0.7000
10703TIP3    H153600   2.302   1.310  13.389  1.1496 -0.1377  2.5535
10703TIP3    H253601   2.273   1.180  13.462  0.3759 -0.3056  1.9605
10704TIP3   OH253602   4.355   2.898   0.136 -0.2544  0.3980  0.1734
10704TIP3    H153603   4.338   2.961   0.206 -0.3915  0.9652 -0.3613
10704TIP3    H253604   4.306   2.820   0.161 -0.3700  0.6263  0.6642
10705TIP3   OH253605   1.199   1.793   4.676  0.1807 -0.2208 -0.1576
10705TIP3    H153606   1.160   1.770   4.759 -1.2998 -0.0329 -0.7778
10705TIP3    H253607   1.291   1.767   4.685  0.6913  2.0273  2.4022
10706TIP3   OH253608   4.927   6.084   6.004 -0.0663  0.0470  0.4077
10706TIP3    H153609   4.866   6.068   5.932 -0.7872  0.3652  0.9424
10706TIP3    H253610   4.991   6.013   5.997  0.0123  0.2107 -0.6914
10707TIP3   OH253611   6.592   2.720   2.346  0.1801  0.4981 -0.6148
10707TIP3    H153612   6.545   2.646   2.307 -0.8829  1.3877 -1.0957
10707TIP3    H253613   6.683   2.691   2.351 -0.6406 -2.1720  2.4510
10708TIP3   OH253614   0.884   5.663   3.039  0.1117  0.5674 -0.3197
10708TIP3    H153615   0.930   5.743   3.014  0.5827  0.2215 -0.5635
10708TIP3    H253616   0.904   5.601   2.970  2.8781 -0.9804  1.6759
10709TIP3   OH253617   0.935   4.060  16.811 -0.6805  0.3444 -0.8346
10709TIP3    H153618   1.027   4.076  16.833 -0.6324 -0.6369 -0.2370
10709TIP3    H253619   0.938   4.028  16.721  0.0323 -3.2316  0.2872
10710TIP3   OH253620   3.061   6.094  15.923  0.0081 -0.1972 -0.2106
10710TIP3    H153621   3.032   6.165  15.980 -1.1528  0.0063 -1.0315
10710TIP3    H253622   3.154   6.112  15.907  0.1465  0.1912  0.9361
10711TIP3   OH253623   3.204   5.428  10.561  0.0007 -0.1833  0.0822
10711TIP3    H153624   3.127   5.379  10.589 -0.6891  1.6380  1.6366
10711TIP3    H253625   3.208   5.503  10.621  1.6228  1.0542 -1.4416
10712TIP3   OH253626   0.421   5.130   0.185 -0.3433 -0.4092 -0.1306
10712TIP3    H153627   0.418   5.038   0.157  2.2247 -0.3369 -0.8814
10712TIP3    H253628   0.469   5.175   0.116  0.9478  0.9622  1.5705
10713TIP3   OH253629   4.673   6.022   2.779 -0.0648 -0.1528  0.2895
10713TIP3    H153630   4.633   6.108   2.791 -0.3971 -0.1042 -1.0554
10713TIP3    H253631   4.707   6.023   2.690  1.0266 -0.9844  0.6784
10714TIP3   OH253632   0.330   3.325  13.460  0.2610 -0.1360  0.4267
10714TIP3    H153633   0.289   3.264  13.522 -0.3770 -0.8562 -0.6751
10714TIP3    H253634   0.317   3.411  13.499 -0.6754 -0.5256  0.9960
10715TIP3   OH253635   1.551   6.563  10.848  0.0352 -0.5553 -0.0556
10715TIP3    H153636   1.523   6.528  10.933 -0.9409  1.3256  0.4647
10715TIP3    H253637   1.635   6.605  10.867  0.1246 -0.6884 -0.1617
10716TIP3   OH253638   3.662   5.023  11.903 -0.5678 -0.2027  0.0340
10716TIP3    H153639   3.617   4.938  11.903 -0.7145 -0.1757 -2.0435
10716TIP3    H253640   3.653   5.055  11.813  1.0216  1.2030  0.3256
10717TIP3   OH253641   2.788   6.532   1.961  0.1685  0.1596  1.3593
10717TIP3    H153642   2.840   6.459   1.927  0.0983  0.6373  0.2134
10717TIP3    H253643   2.703   6.493   1.984 -0.7159  0.2505 -1.4433
10718TIP3   OH253644   4.512   6.381   5.648  0.2048  0.7589  0.4598
10718TIP3    H153645   4.506   6.466   5.604  0.2256  0.3171 -0.4248
10718TIP3    H253646   4.493   6.400   5.740 -1.1621  1.5075  0.0462
10719TIP3   OH253647   1.560   3.597   3.805  0.2747  0.2644  0.0555
10719TIP3    H153648   1.584   3.512   3.840 -0.8421  0.9153  2.6691
10719TIP3    H253649   1.568   3.657   3.880 -0.3677  2.1656 -1.3180
10720TIP3   OH253650   2.253   3.372  14.101 -0.0718 -0.0892 -0.3101
10720TIP3    H153651   2.332   3.424  14.113  0.2981 -0.4238 -1.2513
10720TIP3    H253652   2.250   3.354  14.008 -0.7711 -0.8539 -0.1471
10721TIP3   OH253653   3.005   2.279  13.062 -0.6158  0.0556  0.4991
10721TIP3    H153654   3.026   2.204  13.007  2.1122  0.6440  0.5495
10721TIP3    H253655   2.996   2.352  13.001  0.1059  0.2787  0.6452
10722TIP3   OH253656   6.129   1.160  13.847  0.2029 -0.2151 -0.6894
10722TIP3    H153657   6.115   1.109  13.768  2.0954  0.0087 -1.2328
10722TIP3    H253658   6.222   1.150  13.866  0.0483  0.7575  0.7943
10723TIP3   OH253659   1.025   5.316  13.994  0.0884  0.2675 -0.4118
10723TIP3    H153660   0.930   5.318  13.980 -0.0036 -0.4111  0.1079
10723TIP3    H253661   1.061   5.303  13.906 -0.3352 -0.2251 -0.5199
10724TIP3   OH253662   3.415   3.529   5.419 -0.6943  0.2670 -0.0927
10724TIP3    H153663   3.453   3.580   5.347  0.6137 -1.6470 -0.8632
10724TIP3    H253664   3.490   3.491   5.464 -1.5772 -0.6668  0.6605
10725TIP3   OH253665   4.135   1.205  12.925  0.2043  0.4361 -0.2114
10725TIP3    H153666   4.141   1.159  12.841 -0.1614  1.5969 -0.8944
10725TIP3    H253667   4.068   1.156  12.974 -0.5767  0.5618 -1.1375
10726TIP3   OH253668   5.903   3.475   4.137  0.0346  0.2644 -0.2871
10726TIP3    H153669   5.829   3.433   4.093 -0.2811  0.6498 -0.1374
10726TIP3    H253670   5.896   3.448   4.228  0.1079  0.2591 -0.2834
10727TIP3   OH253671   6.350   0.494   0.580  0.5102 -0.0697  0.5659
10727TIP3    H153672   6.325   0.403   0.561  2.6794 -1.0609  1.9858
10727TIP3    H253673   6.277   0.546   0.547 -0.3616 -2.2318 -1.2535
10728TIP3   OH253674   4.036   1.362  12.344 -0.7008 -0.1065  0.1413
10728TIP3    H153675   4.001   1.434  12.292 -0.7557 -1.2412 -1.4613
10728TIP3    H253676   3.975   1.354  12.418 -1.2637  0.8352 -0.2101
10729TIP3   OH253677   0.249   4.043  12.143 -0.3433  0.1619  0.4086
10729TIP3    H153678   0.176   4.084  12.096  1.1303  0.6534 -1.5787
10729TIP3    H253679   0.311   4.018  12.074  2.1099  1.2201  2.1011
10730TIP3   OH253680   1.769   0.843  14.189  0.5021  0.1448 -0.3935
10730TIP3    H153681   1.827   0.796  14.250  0.1906  0.6557  0.3158
10730TIP3    H253682   1.759   0.784  14.115 -0.3994 -1.2140  0.7532
10731TIP3   OH253683   1.268   4.291  14.272  0.2430 -0.0802 -0.4058
10731TIP3    H153684   1.351   4.245  14.257 -0.1054 -0.5945 -0.7825
10731TIP3    H253685   1.201   4.225  14.254 -0.2426 -0.0915  1.2834
10732TIP3   OH253686   4.006   0.280  15.502 -0.1510  0.6850 -0.5277
10732TIP3    H153687   4.070   0.210  15.517 -0.9064 -0.0054 -0.4378
10732TIP3    H253688   4.048   0.337  15.438  1.2004  1.1082  0.6707
10733TIP3   OH253689   1.574   6.449   5.499 -0.4562 -0.3748  1.0781
10733TIP3    H153690   1.650   6.499   5.470  0.5976 -1.8668  1.1330
10733TIP3    H253691   1.524   6.433   5.418  0.9044 -1.9682  0.5024
10734TIP3   OH253692   2.703   0.785  11.557  0.0500 -0.2742  0.1083
10734TIP3    H153693   2.642   0.858  11.549  1.2985  0.8888  0.6211
10734TIP3    H253694   2.730   0.786  11.649  3.5622  1.6827 -0.7299
10735TIP3   OH253695   4.104   6.684  10.990 -0.2092 -0.0306  0.9533
10735TIP3    H153696   4.149   6.622  10.931 -0.4906 -0.9465  1.6750
10735TIP3    H253697   4.031   6.717  10.938  1.7983  2.3065 -0.6357
10736TIP3   OH253698   1.338   5.065   3.654  0.0783  0.6536  0.1828
10736TIP3    H153699   1.292   5.065   3.737 -0.6901  2.6925 -0.1772
10736TIP3    H253700   1.355   5.158   3.636  0.8243  0.2152 -1.6020
10737TIP3   OH253701   4.671   4.776  15.016 -0.3457  0.2704  0.2320
10737TIP3    H153702   4.580   4.804  15.029 -0.5000  0.4654 -1.1191
10737TIP3    H253703   4.718   4.814  15.090 -1.0655  1.6310  0.0230
10738TIP3   OH253704   3.093   2.896   7.296  0.3984 -0.0722  0.0946
10738TIP3    H153705   3.146   2.883   7.218  0.2525  0.2133 -0.0569
10738TIP3    H253706   3.002   2.889   7.265  0.3441 -1.2213  0.4708
10739TIP3   OH253707   5.734   0.694  14.665 -0.4545 -0.1470  0.1863
10739TIP3    H153708   5.700   0.634  14.731  0.0033 -0.1317  0.4357
10739TIP3    H253709   5.776   0.638  14.600 -1.3048 -0.1941 -0.3327
10740TIP3   OH253710   3.614   5.503  17.118  0.0089  0.1971 -0.4266
10740TIP3    H153711   3.604   5.596  17.140 -0.7666 -0.3630  1.8662
10740TIP3    H253712   3.536   5.462  17.154  0.3552 -1.3815 -1.3814
10741TIP3   OH253713   5.837   1.081  15.850 -0.2788  0.2651 -0.3702
10741TIP3    H153714   5.900   1.009  15.842 -1.2858 -0.4849 -2.2713
10741TIP3    H253715   5.858   1.122  15.933  2.2417 -0.3950 -0.6001
10742TIP3   OH253716   5.286   0.937  13.206 -0.1425 -0.0980  0.2092
10742TIP3    H153717   5.250   0.888  13.279 -0.0064  0.1838  0.4682
10742TIP3    H253718   5.357   0.988  13.244 -1.1143  1.3046  0.2108
10743TIP3   OH253719   0.051   1.686   2.838  0.1509 -0.6412 -0.5671
10743TIP3    H153720   0.094   1.771   2.829 -1.3648  0.4394  1.6454
10743TIP3    H253721  -0.021   1.689   2.774 -0.9440  0.4807  0.6807
10744TIP3   OH253722   2.906   2.702   3.680  0.8020 -0.0968 -0.2026
10744TIP3    H153723   2.980   2.656   3.719 -0.2577 -1.8028 -0.1272
10744TIP3    H253724   2.909   2.789   3.720 -0.1233 -1.6671  3.7492
10745TIP3   OH253725   4.863   0.379   5.577 -0.0379 -0.0086  0.6232
10745TIP3    H153726   4.819   0.434   5.641 -0.3689 -1.7162  1.9344
10745TIP3    H253727   4.945   0.354   5.619 -0.7185 -1.9850  0.8733
10746TIP3   OH253728   6.612   3.450  16.823 -0.1097 -0.3784  0.1581
10746TIP3    H153729   6.641   3.483  16.738  0.9223  0.2105  0.7206
10746TIP3    H253730   6.673   3.379  16.843 -0.2044 -0.3616  0.5134
10747TIP3   OH253731   5.116   3.696  16.831 -0.7273 -0.4243  0.2018
10747TIP3    H153732   5.061   3.674  16.756 -0.3899 -0.9317  0.0992
10747TIP3    H253733   5.196   3.646  16.817 -0.8148 -0.8187  1.0983
10748TIP3   OH253734   3.006   4.505  11.714  0.2875  0.0430 -0.4792
10748TIP3    H153735   2.988   4.424  11.762  1.5398  0.1550  0.2235
10748TIP3    H253736   3.026   4.477  11.625  0.2433 -0.3802 -0.3572
10749TIP3   OH253737   1.595   0.154   1.072  0.1684  0.0907  0.0886
10749TIP3    H153738   1.525   0.091   1.055  0.7124 -0.7050  0.7297
10749TIP3    H253739   1.556   0.219   1.131 -0.2624  0.1110 -0.2151
10750TIP3   OH253740   4.490   1.141  12.504  0.4651 -0.3087 -0.1351
10750TIP3    H153741   4.395   1.136  12.516  0.5660 -2.3112  0.3115
10750TIP3    H253742   4.514   1.227  12.539 -1.1102 -0.0130  0.3270
10751TIP3   OH253743   1.706   0.443   2.116 -0.0587  0.6047 -0.8559
10751TIP3    H153744   1.683   0.384   2.045  3.5553 -1.4443 -0.5731
10751TIP3    H253745   1.663   0.406   2.193 -0.3934  0.2260 -1.2209
10752TIP3   OH253746   5.958   1.856   2.524 -0.0561  0.1840  0.3145
10752TIP3    H153747   5.996   1.807   2.451 -0.6283 -0.3643  0.3829
10752TIP3    H253748   5.927   1.789   2.585 -0.9365  0.6222  0.3619
10753TIP3   OH253749   2.467   2.239  13.289  0.2919  0.4562  0.0546
10753TIP3    H153750   2.490   2.297  13.361  0.3618  1.2213 -0.5681
10753TIP3    H253751   2.389   2.278  13.250 -0.7222 -0.8411  0.7041
10754TIP3   OH253752   0.303   2.476   4.363  0.4766 -0.1496 -0.2112
10754TIP3    H153753   0.284   2.566   4.334  1.2690  0.1312  0.1261
10754TIP3    H253754   0.348   2.487   4.446 -0.4547 -0.9103  0.4209
10755TIP3   OH253755   6.262   5.309  13.856  0.0442 -0.0300  0.5885
10755TIP3    H153756   6.230   5.263  13.778 -3.1042 -1.0718  2.3206
10755TIP3    H253757   6.329   5.368  13.822 -1.4130 -0.1381 -2.9835
10756TIP3   OH253758   2.203   0.539  13.511  0.2397 -0.0306  0.5693
10756TIP3    H153759   2.124   0.493  13.542  0.3460 -0.1613  0.6490
10756TIP3    H253760   2.246   0.569  13.591  1.6818 -2.2775  0.7240
10757TIP3   OH253761   1.805   3.342   4.136 -0.0358  0.2366  0.3368
10757TIP3    H153762   1.893   3.355   4.101 -0.7760  0.2850 -1.5885
10757TIP3    H253763   1.802   3.398   4.214  1.4668  0.5866  0.1765
10758TIP3   OH253764   5.404   3.099   2.902 -0.0851 -0.2882 -0.3377
10758TIP3    H153765   5.432   3.008   2.895 -1.9542 -0.9452  0.1693
10758TIP3    H253766   5.355   3.115   2.821  0.9579  0.5685 -0.8263
10759TIP3   OH253767   3.446   0.945  14.843 -0.0231 -0.4369  0.4599
10759TIP3    H153768   3.387   0.879  14.808 -2.0426  1.2060  0.5280
10759TIP3    H253769   3.399   0.981  14.919 -0.1223  2.5827 -0.8989
10760TIP3   OH253770   3.309   5.726  13.688 -0.5586  0.1838 -0.2783
10760TIP3    H153771   3.335   5.818  13.699  0.8596  0.1241 -2.5785
10760TIP3    H253772   3.226   5.731  13.640 -0.9292  0.2354  0.3456
10761TIP3   OH253773   1.775   5.079  14.243  0.1741  0.0530  0.2024
10761TIP3    H153774   1.863   5.044  14.228 -0.2319 -0.4323 -1.1643
10761TIP3    H253775   1.727   5.059  14.163 -1.3368 -0.1354  1.1099
10762TIP3   OH253776   0.497   5.927  13.709  0.0267 -0.2840 -0.1459
10762TIP3    H153777   0.452   5.994  13.656 -1.6727 -0.4024  1.0627
10762TIP3    H253778   0.430   5.896  13.770  1.2492 -1.9196  0.4331
10763TIP3   OH253779   3.726   3.514  13.728  0.5689  0.2176 -0.0650
10763TIP3    H153780   3.700   3.546  13.642  0.3518 -1.2714 -0.5880
10763TIP3    H253781   3.653   3.458  13.756  1.2728 -0.4850  0.4201
10764TIP3   OH253782   2.804   2.438   3.686  0.2050  0.3413 -0.5014
10764TIP3    H153783   2.800   2.413   3.594 -1.2232 -0.8364 -0.1698
10764TIP3    H253784   2.803   2.534   3.685  0.9628  0.3527 -1.7206
10765TIP3   OH253785   2.361   6.248  15.747 -0.0551 -0.4321 -0.2942
10765TIP3    H153786   2.446   6.234  15.705  0.3112  0.5015  0.1138
10765TIP3    H253787   2.381   6.257  15.840 -0.2671  2.1546 -0.4197
10766TIP3   OH253788   4.996   6.496  14.455 -0.0360 -0.1962  0.2712
10766TIP3    H153789   5.060   6.446  14.405 -0.5248 -0.3508 -0.2048
10766TIP3    H253790   4.996   6.583  14.415 -1.6323 -0.7800 -1.1219
10767TIP3   OH253791   0.914   3.953  12.228 -0.1070 -0.5394 -0.0753
10767TIP3    H153792   1.005   3.967  12.253 -0.2799 -2.3186  1.8572
10767TIP3    H253793   0.918   3.902  12.147  0.7561 -2.8637  1.3295
10768TIP3   OH253794   0.816   4.010  14.355  0.3380 -0.2561 -0.2501
10768TIP3    H153795   0.743   4.059  14.317  0.1782  1.0343  1.6098
10768TIP3    H253796   0.889   4.027  14.296  0.7181  3.6247  1.0947
10769TIP3   OH253797   6.364   4.913   1.556 -0.2257 -0.2444 -0.5720
10769TIP3    H153798   6.372   5.008   1.554 -0.4285 -0.2232 -0.3849
10769TIP3    H253799   6.270   4.896   1.557 -0.1889 -0.4208  0.5251
10770TIP3   OH253800   0.606   2.245  16.984 -0.2449 -0.2868  0.1117
10770TIP3    H153801   0.548   2.228  17.057 -1.0611 -1.2625 -0.7425
10770TIP3    H253802   0.604   2.341  16.973 -2.1978 -0.3395 -0.2897
10771TIP3   OH253803   0.351   1.387   2.265  0.0494 -0.6652  0.0594
10771TIP3    H153804   0.263   1.362   2.295  0.9050 -2.5109  1.2115
10771TIP3    H253805   0.370   1.326   2.194  0.5817 -0.6121  0.1508
10772TIP3   OH253806   5.666   6.592   3.805  0.5082  0.4646 -0.1428
10772TIP3    H153807   5.694   6.622   3.719  0.3224  1.6367  0.1843
10772TIP3    H253808   5.654   6.672   3.856 -2.4969  0.0448  0.0331
10773TIP3   OH253809   2.500   3.694  12.488 -0.4013 -0.7145  0.3796
10773TIP3    H153810   2.541   3.695  12.402  0.2120 -0.3629  0.6730
10773TIP3    H253811   2.556   3.749  12.542 -0.5486 -1.2674  1.1113
10774TIP3   OH253812   5.156   4.336   3.011  0.1386  0.2419  0.7166
10774TIP3    H153813   5.080   4.282   2.986  0.3522  0.5611 -0.6433
10774TIP3    H253814   5.120   4.424   3.021  0.1405  0.1991  1.1229
10775TIP3   OH253815   4.054   3.575  15.100  0.2514  1.3462  0.1688
10775TIP3    H153816   3.976   3.522  15.116  0.3561  1.9566  3.2586
10775TIP3    H253817   4.020   3.664  15.088  0.3802  1.3568 -0.1207
10776TIP3   OH253818   1.206   2.814  16.582 -0.0548  0.0679  0.4662
10776TIP3    H153819   1.111   2.816  16.578 -0.0701  0.8046  1.0644
10776TIP3    H253820   1.231   2.899  16.617  0.9180  0.6085 -1.4048
10777TIP3   OH253821   4.920   5.085  16.769  0.3273  0.1303 -0.2133
10777TIP3    H153822   4.883   5.035  16.696 -0.6213  0.7063 -0.1314
10777TIP3    H253823   4.845   5.107  16.824  1.0062 -0.1776  0.8835
10778TIP3   OH253824   4.969   6.503  12.280 -0.5305 -0.2568  0.1661
10778TIP3    H153825   4.892   6.458  12.315 -0.9380  1.2184  1.2948
10778TIP3    H253826   5.035   6.494  12.349 -0.9914  1.7619  0.9523
10779TIP3   OH253827   1.612   6.009   6.028  0.2393 -0.0496  0.1489
10779TIP3    H153828   1.585   6.079   6.087  0.1974  0.0695 -0.0125
10779TIP3    H253829   1.600   5.929   6.080 -2.0785 -0.1848 -0.4544
10780TIP3   OH253830   2.707   5.113   1.858 -0.4084 -0.0252 -0.3591
10780TIP3    H153831   2.767   5.186   1.874 -0.8123 -0.0357  1.4314
10780TIP3    H253832   2.713   5.097   1.764 -0.1556  2.1757 -0.7724
10781TIP3   OH253833   6.681   2.980   2.142 -0.0449 -0.0138 -0.4579
10781TIP3    H153834   6.696   3.070   2.114 -0.9871  0.2554 -0.1567
10781TIP3    H253835   6.616   2.988   2.212  0.3548 -0.8763  0.0213
10782TIP3   OH253836   1.432   0.239  11.841 -0.3172  0.4365 -0.3500
10782TIP3    H153837   1.481   0.264  11.919 -0.1652 -1.9000  0.3663
10782TIP3    H253838   1.342   0.230  11.871 -0.4238  0.4151 -0.6676
10783TIP3   OH253839   0.426   0.557  12.697 -0.4940 -0.2266  0.1509
10783TIP3    H153840   0.501   0.497  12.694 -0.8831 -0.6688 -1.6148
10783TIP3    H253841   0.450   0.629  12.639 -0.9757  0.2253  0.4952
10784TIP3   OH253842   1.320   4.761  16.714 -0.1474  0.4304  0.5176
10784TIP3    H153843   1.328   4.711  16.632 -1.9537  0.6486  0.1625
10784TIP3    H253844   1.250   4.824  16.696  0.1893  1.2147  1.8844
10785TIP3   OH253845   0.716   1.590   4.805  0.3882  0.1764 -0.0892
10785TIP3    H153846   0.751   1.611   4.892  1.0248 -1.1991  0.0135
10785TIP3    H253847   0.638   1.644   4.797  1.9039  2.5100  0.1246
10786TIP3   OH253848   1.041   2.373   5.250  0.1341 -0.0925 -0.0177
10786TIP3    H153849   1.077   2.301   5.302 -0.7759 -2.1447 -2.0832
10786TIP3    H253850   1.117   2.429   5.232  0.4236  1.0124  3.7890
10787TIP3   OH253851   0.697   3.719  15.461  0.5150  0.0354  0.3557
10787TIP3    H153852   0.675   3.782  15.530 -0.8376 -0.6123  0.5346
10787TIP3    H253853   0.660   3.757  15.381  0.4219 -0.1321  0.3194
10788TIP3   OH253854   2.195   0.602   4.011  0.1794  0.4649  0.3586
10788TIP3    H153855   2.267   0.665   4.006  1.7157 -1.0378  2.1314
10788TIP3    H253856   2.170   0.601   4.103  2.2251 -3.5214  1.0801
10789TIP3   OH253857   0.881   0.341   0.863  0.6866 -0.1837 -0.2255
10789TIP3    H153858   0.919   0.415   0.910  1.1143 -0.3621 -0.2932
10789TIP3    H253859   0.921   0.264   0.903  0.1060 -0.3941 -0.0294
10790TIP3   OH253860   6.400   2.173   0.019  0.2414 -0.2148 -0.1173
10790TIP3    H153861   6.356   2.103  -0.030 -1.8951 -1.3894  3.1292
10790TIP3    H253862   6.487   2.138   0.037  0.1126 -0.8844 -0.7349
10791TIP3   OH253863   2.255   5.666   2.481 -0.2619 -0.1576  0.6026
10791TIP3    H153864   2.263   5.754   2.444  0.5365  0.1996  1.5636
10791TIP3    H253865   2.161   5.648   2.481 -0.4071  0.5651  0.1041
10792TIP3   OH253866   6.324   0.850  11.266 -0.0414  0.0958  0.5114
10792TIP3    H153867   6.304   0.823  11.177  0.6969 -0.2051  0.4271
10792TIP3    H253868   6.267   0.796  11.321 -0.0014 -0.2115  0.2536
10793TIP3   OH253869   3.533   0.141  14.366  0.0333  0.1239 -0.4520
10793TIP3    H153870   3.587   0.219  14.382 -0.2514  0.1744  0.2862
10793TIP3    H253871   3.596   0.072  14.349  0.6965 -0.8290  4.4355
10794TIP3   OH253872   5.242   3.708   1.452 -0.0554  0.0784 -0.0065
10794TIP3    H153873   5.301   3.721   1.377 -0.5865 -1.3299 -0.6959
10794TIP3    H253874   5.285   3.642   1.506 -0.8600 -0.7743 -0.3873
10795TIP3   OH253875   1.637   0.639   1.759 -0.4963  0.0778  0.0732
10795TIP3    H153876   1.576   0.636   1.685  0.9672 -0.5050 -1.1759
10795TIP3    H253877   1.677   0.552   1.761  1.1731  0.7924  0.0478
10796TIP3   OH253878   5.305   0.366   0.893 -0.0830  0.0987  0.4207
10796TIP3    H153879   5.249   0.416   0.952 -0.5512 -0.7876  0.7430
10796TIP3    H253880   5.314   0.421   0.815 -1.5985  0.1572  0.2677
10797TIP3   OH253881   1.082   2.042  16.485 -0.2129 -0.0028  0.1383
10797TIP3    H153882   1.162   2.072  16.528  0.6082 -0.5165 -0.9790
10797TIP3    H253883   1.109   1.964  16.436 -0.7524  1.2904 -2.3927
10798TIP3   OH253884   4.517   3.116   5.961  0.4727 -0.6652 -0.8708
10798TIP3    H153885   4.462   3.191   5.934  1.6493  0.1288 -1.1276
10798TIP3    H253886   4.457   3.061   6.012 -0.0994  1.2054  0.6582
10799TIP3   OH253887   1.170   6.622  13.188 -0.2742 -0.2665  0.2661
10799TIP3    H153888   1.077   6.603  13.193 -0.2878 -0.5052 -0.7078
10799TIP3    H253889   1.177   6.715  13.211 -0.6075 -0.5240  1.4792
10800TIP3   OH253890   2.956   1.076  14.137 -0.0605  0.1881 -0.0401
10800TIP3    H153891   3.032   1.128  14.111  0.2448 -0.4567 -0.4499
10800TIP3    H253892   2.992   0.991  14.163 -0.5284  0.2493  0.8602
10801TIP3   OH253893   0.262   0.401   5.714 -0.4629  0.0424 -0.6204
10801TIP3    H153894   0.313   0.479   5.735  1.0472 -1.5424  2.1891
10801TIP3    H253895   0.171   0.431   5.716  0.1147  1.9883 -1.0418
10802TIP3   OH253896   1.861   6.237  10.719 -0.4724 -0.0147 -0.0344
10802TIP3    H153897   1.895   6.149  10.731 -0.7369 -0.1067  0.0624
10802TIP3    H253898   1.865   6.252  10.624 -0.1383 -0.0103 -0.0214
10803TIP3   OH253899   5.631   5.094  12.914 -0.2622  0.5298 -0.0091
10803TIP3    H153900   5.583   5.076  12.834 -0.1514 -0.4019  0.1238
10803TIP3    H253901   5.722   5.076  12.893 -0.4203 -1.5818  0.8016
10804TIP3   OH253902   1.481   3.015  15.434 -0.3943  0.4401 -0.5565
10804TIP3    H153903   1.491   3.100  15.477  2.5526 -0.5718  1.0811
10804TIP3    H253904   1.427   2.963  15.494  1.4961 -0.1359  0.7355
10805TIP3   OH253905   5.187   4.438  15.253 -0.2377 -0.2815  0.3499
10805TIP3    H153906   5.239   4.485  15.188 -0.0660  0.3356  0.9255
10805TIP3    H253907   5.100   4.430  15.214  0.2152 -1.1435 -0.5359
10806TIP3   OH253908   6.806   0.517   3.477  0.1230 -0.6625  0.0110
10806TIP3    H153909   6.836   0.430   3.502 -0.9805 -0.9828  0.2683
10806TIP3    H253910   6.855   0.577   3.533  0.1239 -1.1827  0.5658
10807TIP3   OH253911   4.736   0.573   5.136  0.4676  0.6206  0.1676
10807TIP3    H153912   4.665   0.509   5.132  1.2744 -0.3549  0.8476
10807TIP3    H253913   4.801   0.534   5.195  0.7663  2.3021  1.0441
10808TIP3   OH253914   3.272   5.116   6.121  0.6580 -0.5234  0.5381
10808TIP3    H153915   3.182   5.088   6.107  0.8700 -0.8698 -0.1630
10808TIP3    H253916   3.316   5.040   6.159  0.7500 -0.4916  0.4973
10809TIP3   OH253917   4.724   0.021   3.522  0.4058 -0.4388 -0.9424
10809TIP3    H153918   4.742   0.088   3.456 -0.0904 -0.6183 -1.2657
10809TIP3    H253919   4.638   0.044   3.556  0.9251  0.0187  0.1068
10810TIP3   OH253920   4.625   3.232  11.269 -0.5625  0.1863  0.1083
10810TIP3    H153921   4.623   3.178  11.349 -1.5931  1.1752  0.7784
10810TIP3    H253922   4.718   3.248  11.253 -0.3509  0.3216  1.3630
10811TIP3   OH253923   1.220   6.360   3.842 -0.4379  0.3046  0.3252
10811TIP3    H153924   1.197   6.382   3.752  0.2882 -0.9864 -0.2146
10811TIP3    H253925   1.315   6.348   3.840 -0.4405  0.0524  1.2115
10812TIP3   OH253926   1.373   4.724   5.543  0.3990  0.2201  0.2149
10812TIP3    H153927   1.290   4.765   5.566  0.2397 -0.3428  0.6580
10812TIP3    H253928   1.439   4.788   5.566  0.1017  0.5864  0.0591
10813TIP3   OH253929   6.144   1.013  10.783  0.2176 -0.0209 -0.6322
10813TIP3    H153930   6.239   1.007  10.777  0.3624  0.9947  0.2640
10813TIP3    H253931   6.125   1.106  10.772 -0.5011  0.0598  0.9532
10814TIP3   OH253932   0.421   4.342  13.512  0.3047  0.3317 -0.0203
10814TIP3    H153933   0.489   4.373  13.572  1.7412 -1.1130 -0.8126
10814TIP3    H253934   0.466   4.329  13.429 -0.8331 -1.1191 -0.4523
10815TIP3   OH253935   3.811   6.190  14.213  0.5842 -0.7931  0.6267
10815TIP3    H153936   3.772   6.157  14.294 -1.3639 -1.1388 -0.4082
10815TIP3    H253937   3.837   6.280  14.234 -1.4217 -0.3069  1.1827
10816TIP3   OH253938   5.995   6.691  12.255 -0.0272 -0.1818 -0.1969
10816TIP3    H153939   6.028   6.745  12.327  0.2769 -0.4870 -0.1055
10816TIP3    H253940   6.015   6.601  12.281 -1.2638 -0.4168  0.0347
10817TIP3   OH253941   0.629   4.881  15.967  0.1328 -0.7916 -0.5397
10817TIP3    H153942   0.603   4.885  15.876 -0.7648  0.0234 -0.2582
10817TIP3    H253943   0.560   4.929  16.014  2.3750  1.9796  0.1890
10818TIP3   OH253944   0.207   3.110   4.207  0.3403 -0.1369  0.4552
10818TIP3    H153945   0.146   3.161   4.154 -0.5136 -1.0393  0.5383
10818TIP3    H253946   0.268   3.070   4.144 -0.6775 -1.2164  0.1156
10819TIP3   OH253947   6.532   0.178  14.551 -0.3617 -0.0165 -0.9702
10819TIP3    H153948   6.584   0.241  14.601 -0.0823 -1.1190  0.1916
10819TIP3    H253949   6.558   0.192  14.460  0.2527  1.0146 -0.6550
10820TIP3   OH253950   3.249   2.114   5.613 -0.5369 -0.5159 -0.3898
10820TIP3    H153951   3.198   2.166   5.551 -0.3677 -1.3247 -1.2351
10820TIP3    H253952   3.194   2.109   5.691 -0.6180  0.7924 -0.3313
10821TIP3   OH253953   5.443   0.588   5.825  0.5063  0.3465  0.5461
10821TIP3    H153954   5.531   0.575   5.862  0.1296  0.2732  1.4492
10821TIP3    H253955   5.384   0.563   5.896 -0.2429  1.6007  0.3825
10822TIP3   OH253956   1.418   2.349  12.238 -0.5099 -0.5650 -0.3642
10822TIP3    H153957   1.402   2.437  12.273 -1.6474  0.2558 -2.7279
10822TIP3    H253958   1.404   2.358  12.144  1.0663 -2.9238 -0.9099
10823TIP3   OH253959   3.931   1.134   3.093  0.1216  0.3498 -0.1714
10823TIP3    H153960   3.934   1.112   3.186 -0.5007 -0.3116 -0.3039
10823TIP3    H253961   3.884   1.218   3.090 -0.4690  0.0306  0.0541
10824TIP3   OH253962   5.005   1.508   1.946 -0.3360  0.2637  0.0655
10824TIP3    H153963   5.080   1.484   2.001  0.5610 -0.7427 -1.5057
10824TIP3    H253964   4.941   1.545   2.007  0.7220 -0.5032  1.7179
10825TIP3   OH253965   1.149   1.651  16.164  0.6316  0.1079 -0.0324
10825TIP3    H153966   1.134   1.651  16.069 -0.4733 -0.0958  0.1203
10825TIP3    H253967   1.134   1.560  16.190 -0.5384  0.4322  0.5208
10826TIP3   OH253968   2.762   0.283   1.001 -0.5597 -0.4060  0.2624
10826TIP3    H153969   2.841   0.236   0.975  0.1336 -0.7245  2.6435
10826TIP3    H253970   2.697   0.215   1.015 -1.5111 -0.1092 -2.2030
10827TIP3   OH253971   6.323   5.923   2.741  0.1500 -0.0017 -0.1366
10827TIP3    H153972   6.354   5.862   2.807 -3.0309 -0.7138  0.8758
10827TIP3    H253973   6.277   5.991   2.790 -2.3040 -0.5441 -1.4953
10828TIP3   OH253974   4.274   5.133   0.925  0.1210  0.2498  0.4690
10828TIP3    H153975   4.192   5.184   0.925  0.9776  1.6848  0.7284
10828TIP3    H253976   4.326   5.172   0.855  1.1322  0.2821  1.2245
10829TIP3   OH253977   4.205   4.904   0.772 -0.0886 -0.3348  0.1675
10829TIP3    H153978   4.203   4.992   0.811  1.5534 -0.3979  0.4646
10829TIP3    H253979   4.266   4.912   0.698 -0.1485 -1.1649  0.0158
10830TIP3   OH253980   3.527   5.664   5.811 -0.6212 -0.6141 -0.3521
10830TIP3    H153981   3.602   5.657   5.751 -0.7193  1.5293 -0.7885
10830TIP3    H253982   3.567   5.687   5.896 -0.7625  0.6415 -0.6109
10831TIP3   OH253983   0.458   2.709   3.144  0.6709  0.5111 -0.0856
10831TIP3    H153984   0.401   2.637   3.117  1.1025  0.7611 -1.7810
10831TIP3    H253985   0.398   2.775   3.179  0.2000 -0.3440  0.7755
10832TIP3   OH253986   0.790   1.907  14.773  0.4190 -0.4524 -0.8739
10832TIP3    H153987   0.816   1.982  14.718  1.4124 -0.6826 -0.7232
10832TIP3    H253988   0.863   1.846  14.767  0.3167 -0.7005  0.3190
10833TIP3   OH253989   3.527   1.797  15.243  0.4459 -0.0488 -0.8883
10833TIP3    H153990   3.470   1.732  15.285 -0.3018  1.0517 -0.1215
10833TIP3    H253991   3.614   1.759  15.246 -0.1224 -1.4392 -1.3698
10834TIP3   OH253992   2.151   1.920   5.486  0.1433 -0.0178  0.1015
10834TIP3    H153993   2.131   1.982   5.415  0.4927 -1.4276 -1.2961
10834TIP3    H253994   2.066   1.891   5.518 -0.0919  2.4718  2.0622
10835TIP3   OH253995   6.463   5.136   2.462 -0.1507  0.2240  0.4803
10835TIP3    H153996   6.465   5.228   2.490 -0.1892  0.9545 -1.7522
10835TIP3    H253997   6.554   5.107   2.467  0.7915  1.9346 -3.3119
10836TIP3   OH253998   3.847   1.892   2.472 -0.4043  0.1693 -0.4360
10836TIP3    H153999   3.757   1.900   2.503 -0.2237 -0.3093  0.2383
10836TIP3    H254000   3.898   1.874   2.551 -0.0464 -2.0005 -1.0926
10837TIP3   OH254001   2.069   0.347   1.438  0.7246  0.4394 -0.6876
10837TIP3    H154002   2.152   0.375   1.400  3.3191 -1.9643  2.5481
10837TIP3    H254003   2.032   0.288   1.373  1.8197  1.1300 -1.9952
10838TIP3   OH254004   3.100   4.629  17.064 -0.5545 -1.0616 -0.2339
10838TIP3    H154005   3.161   4.625  17.137  0.7339 -0.7717 -1.2670
10838TIP3    H254006   3.122   4.553  17.010  0.2957  0.1851 -1.6805
10839TIP3   OH254007   5.625   6.455   0.884 -0.4168 -0.2237 -0.1822
10839TIP3    H154008   5.666   6.369   0.899 -1.6694 -1.0443 -1.2270
10839TIP3    H254009   5.609   6.458   0.790  0.6961  1.6991 -0.3586
10840TIP3   OH254010   5.048   4.424   2.659 -0.0226  0.1108 -0.0039
10840TIP3    H154011   5.105   4.499   2.640 -1.5316  1.1384 -0.6366
10840TIP3    H254012   4.986   4.422   2.586  0.6170 -2.4387 -0.5714
10841TIP3   OH254013   5.067   3.451  14.176 -0.0594  0.0000 -0.0436
10841TIP3    H154014   4.997   3.389  14.160 -2.1920  2.1168  0.5323
10841TIP3    H254015   5.110   3.462  14.091 -2.0702  0.5231 -1.0429
10842TIP3   OH254016   6.223   2.154  11.153  0.2941  0.2779 -0.4905
10842TIP3    H154017   6.312   2.122  11.138  0.3240  0.1591 -0.0586
10842TIP3    H254018   6.234   2.234  11.204  0.2446  1.2389 -1.9111
10843TIP3   OH254019   4.501   5.006  12.892  0.0064 -0.0756  0.2232
10843TIP3    H154020   4.504   5.076  12.958  1.1380 -0.7829  0.9547
10843TIP3    H254021   4.408   4.987  12.882 -0.2160  0.3346  1.3231
10844TIP3   OH254022   6.694   2.381   2.917 -0.0781 -0.1356  0.2704
10844TIP3    H154023   6.781   2.347   2.938  0.7217  0.7741 -1.4047
10844TIP3    H254024   6.646   2.376   3.000  1.3607 -1.2291  1.0811
10845TIP3   OH254025   6.785   5.407  12.171 -0.1141 -0.2928  0.5598
10845TIP3    H154026   6.786   5.401  12.267 -1.8034  0.0564  0.6379
10845TIP3    H254027   6.764   5.319  12.142  0.9960 -0.5395  0.4600
10846TIP3   OH254028   0.603   1.997   6.221 -0.8033  0.1611  0.1093
10846TIP3    H154029   0.525   2.013   6.274 -2.5223  0.4156 -2.3158
10846TIP3    H254030   0.605   1.902   6.209 -0.5844  0.1306  0.3826
10847TIP3   OH254031   5.559   1.030  12.586 -0.3160  0.3274  0.4175
10847TIP3    H154032   5.623   0.959  12.579 -0.3980  0.2979 -0.0714
10847TIP3    H254033   5.476   0.991  12.560 -0.0217  1.0804 -1.9057
10848TIP3   OH254034   0.160   4.021   4.776  0.1820  0.1316  0.5466
10848TIP3    H154035   0.210   3.978   4.707  0.6037  0.9646  0.3270
10848TIP3    H254036   0.226   4.061   4.833 -0.2111  1.0166  0.3970
10849TIP3   OH254037   6.510   6.070   0.178 -0.3333 -0.1954 -0.3981
10849TIP3    H154038   6.424   6.035   0.205 -0.3922  1.3911  1.6936
10849TIP3    H254039   6.499   6.089   0.084 -1.6465 -1.7343 -0.6088
10850TIP3   OH254040   6.067   3.059   5.087 -0.6209 -0.2535  0.4128
10850TIP3    H154041   6.116   2.994   5.037 -0.3275  0.2680  0.0020
10850TIP3    H254042   6.130   3.092   5.151 -0.8987 -0.6834  0.9106
10851TIP3   OH254043   4.628   2.193   0.083  0.5248 -0.3809  0.4352
10851TIP3    H154044   4.567   2.266   0.076 -0.0122 -0.7983  0.6369
10851TIP3    H254045   4.669   2.203   0.169 -1.2726 -1.6020  1.4969
10852TIP3   OH254046   6.682   2.090  15.495 -0.2620  0.4675 -0.2432
10852TIP3    H154047   6.623   2.134  15.555  1.0747 -0.5145  1.9432
10852TIP3    H254048   6.765   2.137  15.503 -0.1080  0.4477 -1.5090
10853TIP3   OH254049   6.802   1.914   0.884  0.0706 -0.3854 -0.4073
10853TIP3    H154050   6.714   1.919   0.847  0.0767 -0.5037 -0.4353
10853TIP3    H254051   6.835   1.828   0.858  0.1582 -0.3797 -0.3156
10854TIP3   OH254052   3.945   6.754   0.033  0.2655  0.5919 -0.3670
10854TIP3    H154053   3.924   6.692  -0.038  0.7684 -1.1867  0.9621
10854TIP3    H254054   3.903   6.717   0.110  1.0672  1.6191  0.5932
10855TIP3   OH254055   3.623   2.879   2.299 -0.5271  0.2319 -0.3827
10855TIP3    H154056   3.664   2.944   2.242 -3.1126  0.7858 -1.7421
10855TIP3    H254057   3.587   2.814   2.239 -2.3044  0.2190  0.6363
10856TIP3   OH254058   1.978   6.529   0.840 -0.4364  0.3761 -0.1506
10856TIP3    H154059   1.944   6.519   0.751 -2.3437 -0.4748  0.6233
10856TIP3    H254060   1.990   6.439   0.871  2.1771  0.6274 -0.1909
10857TIP3   OH254061   1.675   1.995   5.359  0.1270  0.3537  0.6390
10857TIP3    H154062   1.654   1.941   5.282  1.1333  1.5785 -0.5577
10857TIP3    H254063   1.720   2.072   5.322  0.4481  1.0790  2.4524
10858TIP3   OH254064   2.320   0.012   5.754  0.0633 -0.5156  0.2139
10858TIP3    H154065   2.372  -0.068   5.754  0.7521 -0.0824 -0.1174
10858TIP3    H254066   2.334   0.050   5.667  0.5518  0.4663  0.7002
10859TIP3   OH254067   1.684   1.469   4.494  0.0768  0.0460 -0.6123
10859TIP3    H154068   1.644   1.434   4.414 -0.6297  2.2681 -1.2808
10859TIP3    H254069   1.732   1.546   4.466  0.3711  0.5098  1.0363
10860TIP3   OH254070   3.327   6.704  15.624  0.4759  0.3691  0.6203
10860TIP3    H154071   3.294   6.772  15.682  0.0138  0.9847 -0.3308
10860TIP3    H254072   3.335   6.626  15.679  2.1482  1.4661  2.0328
10861TIP3   OH254073   6.623   0.585  15.424 -0.0861  0.1275 -0.3646
10861TIP3    H154074   6.652   0.599  15.334  0.4572  0.5799 -0.1262
10861TIP3    H254075   6.659   0.500  15.448  0.4743  0.3721 -0.3081
10862TIP3   OH254076   0.472   1.928  12.441 -0.3159 -0.4285 -0.1134
10862TIP3    H154077   0.469   1.923  12.536 -0.9474 -0.0291 -0.1015
10862TIP3    H254078   0.417   1.856  12.411 -1.6367  0.5351 -0.1235
10863TIP3   OH254079   2.711   2.157  13.011  0.5415 -0.2330  0.4802
10863TIP3    H154080   2.617   2.168  12.998  0.3844 -2.3033 -0.7209
10863TIP3    H254081   2.751   2.229  12.962 -0.3966 -0.4848 -0.7066
10864TIP3   OH254082   4.779   4.371  12.763  0.0310 -0.2557  0.4574
10864TIP3    H154083   4.771   4.340  12.673 -1.7230  1.4914 -0.0657
10864TIP3    H254084   4.781   4.292  12.816  2.1097 -1.3697 -1.1379
10865TIP3   OH254085   3.968   5.362   3.230  0.0237  0.4217  0.9150
10865TIP3    H154086   3.983   5.280   3.276  0.5170  1.0377  1.8805
10865TIP3    H254087   4.010   5.429   3.285 -1.0428  1.4179  0.5602
10866TIP3   OH254088   6.728   2.671  13.743 -0.2016  0.3257 -0.9064
10866TIP3    H154089   6.682   2.649  13.824  0.7545 -1.5450 -0.8236
10866TIP3    H254090   6.808   2.713  13.772 -0.3707  0.6714 -0.9346
10867TIP3   OH254091   5.850   4.847   1.273  0.0555  0.0500  0.5501
10867TIP3    H154092   5.790   4.909   1.233 -1.3196 -2.2910 -1.2211
10867TIP3    H254093   5.921   4.838   1.210 -1.1000 -2.1044 -0.5523
10868TIP3   OH254094   1.399   6.110   3.200  0.5727 -0.0666  0.1676
10868TIP3    H154095   1.450   6.053   3.257  1.5803 -0.9982 -1.5625
10868TIP3    H254096   1.348   6.165   3.260  0.0237 -2.3290  1.9127
10869TIP3   OH254097   6.655   5.481   4.016  0.4084  0.0918 -0.6048
10869TIP3    H154098   6.716   5.447   3.950 -1.4513 -0.4033 -2.1826
10869TIP3    H254099   6.696   5.561   4.048  1.5274  0.2060 -2.1931
10870TIP3   OH254100   5.708   6.747  15.414  0.1664 -0.3353  0.4700
10870TIP3    H154101   5.735   6.793  15.335  0.3864 -0.8409  0.2496
10870TIP3    H254102   5.787   6.741  15.467  0.7708 -2.5866 -0.5521
10871TIP3   OH254103   0.066   0.474  15.479  0.5047  0.2994 -0.0755
10871TIP3    H154104   0.040   0.542  15.542  0.9548  0.6576 -0.2688
10871TIP3    H254105   0.134   0.424  15.525  0.8605  0.5851 -0.2898
10872TIP3   OH254106   2.001   0.953  15.545  0.2145 -0.6391 -0.5551
10872TIP3    H154107   2.004   1.014  15.619  0.4942 -0.1084 -1.0048
10872TIP3    H254108   1.983   0.868  15.586 -0.8178 -0.1691  0.0193
10873TIP3   OH254109   0.619   0.171   5.295 -0.2787 -0.8276 -0.0945
10873TIP3    H154110   0.548   0.122   5.336 -0.2700 -0.7633 -0.0049
10873TIP3    H254111   0.575   0.228   5.232 -0.3099 -0.7499 -0.0016
10874TIP3   OH254112   4.425   5.279   1.508  0.1720  0.1982 -0.5444
10874TIP3    H154113   4.356   5.240   1.455  1.5606 -1.4669 -1.2554
10874TIP3    H254114   4.387   5.359   1.543 -2.6994 -1.4563  0.5039
10875TIP3   OH254115   5.600   1.683   0.356  0.5103  0.3932 -0.4491
10875TIP3    H154116   5.595   1.636   0.439 -1.1339  0.2634 -0.5902
10875TIP3    H254117   5.584   1.615   0.289  0.2491  0.7625 -0.7674
10876TIP3   OH254118   0.733   0.420   5.381 -0.2815  0.8557  0.0686
10876TIP3    H154119   0.727   0.380   5.467  1.0438  0.5322  0.0313
10876TIP3    H254120   0.682   0.363   5.324  1.9752 -1.1764 -0.0964
10877TIP3   OH254121   6.331   0.789  13.895  0.1042 -0.6831 -0.0554
10877TIP3    H154122   6.279   0.821  13.821 -2.6210 -1.7949  1.2381
10877TIP3    H254123   6.362   0.869  13.938 -1.9103  0.1429 -0.0179
10878TIP3   OH254124   4.585   3.219  16.459  0.3687  0.6239 -0.3602
10878TIP3    H154125   4.553   3.233  16.549  1.1812  0.0879  0.0280
10878TIP3    H254126   4.516   3.168  16.417 -0.7853  2.2732 -0.5659
10879TIP3   OH254127   1.451   0.972  11.136  0.0452  0.0836 -0.4588
10879TIP3    H154128   1.477   0.911  11.066  0.4687  1.3669 -1.4647
10879TIP3    H254129   1.397   0.919  11.195  1.2663 -1.5288 -0.7174
10880TIP3   OH254130   0.330   3.586   5.291 -0.0426 -0.4241  0.0516
10880TIP3    H154131   0.348   3.579   5.384  1.3970 -0.1862 -0.1886
10880TIP3    H254132   0.255   3.528   5.276  2.0454 -3.5038  0.7018
10881TIP3   OH254133   0.982   2.652   3.394  0.0584  0.0958  0.0210
10881TIP3    H154134   0.919   2.579   3.391 -1.0530  0.9190  1.7091
10881TIP3    H254135   1.010   2.655   3.485  0.2588  1.6268 -0.0755
10882TIP3   OH254136   2.030   2.611   0.695 -0.2368  0.2318  0.2813
10882TIP3    H154137   1.996   2.598   0.607 -1.8247  1.5503  0.6702
10882TIP3    H254138   2.106   2.669   0.683 -0.1214 -0.0244 -0.2583
10883TIP3   OH254139   4.894   5.519   5.501 -0.6624 -0.0550 -0.3106
10883TIP3    H154140   4.886   5.474   5.585  1.2356 -2.0448 -1.0819
10883TIP3    H254141   4.804   5.544   5.479 -1.5037 -1.3993  1.3094
10884TIP3   OH254142   3.290   6.527   0.578  0.1169 -0.0598  0.2123
10884TIP3    H154143   3.302   6.438   0.612  1.3708 -0.0494 -0.1549
10884TIP3    H254144   3.347   6.581   0.633  0.7269  0.2332 -0.6927
10885TIP3   OH254145   1.289   5.037   5.361 -0.4197 -0.5576  0.4257
10885TIP3    H154146   1.266   4.991   5.442  0.9654  0.2331  1.2960
10885TIP3    H254147   1.209   5.034   5.309 -1.1737 -1.5757  1.5816
10886TIP3   OH254148   2.468   6.506   3.509  0.0917 -0.3218 -0.0086
10886TIP3    H154149   2.429   6.498   3.422 -0.4688  0.5027  0.1620
10886TIP3    H254150   2.562   6.515   3.492 -0.0441  0.1371 -0.5461
10887TIP3   OH254151   1.097   4.404  11.288 -0.2453  0.1652 -0.8499
10887TIP3    H154152   1.134   4.359  11.212 -1.8825 -1.3440 -0.8195
10887TIP3    H254153   1.007   4.371  11.294 -0.2124  0.3573  1.6353
10888TIP3   OH254154   2.425   4.878  16.129  0.0472 -0.0794 -0.2076
10888TIP3    H154155   2.463   4.791  16.143 -0.7565 -0.1389  1.9427
10888TIP3    H254156   2.378   4.897  16.210  0.9367  2.7561 -0.2520
10889TIP3   OH254157   0.001   4.093  16.715 -0.1462 -0.1458 -0.3087
10889TIP3    H154158   0.071   4.147  16.679 -0.3584  0.3512  0.0123
10889TIP3    H254159  -0.027   4.140  16.794  0.7512 -1.5271  0.8878
10890TIP3   OH254160   0.965   5.305  12.907  0.0580 -0.0806  0.6634
10890TIP3    H154161   1.043   5.250  12.912  0.1469  0.1114  1.5863
10890TIP3    H254162   0.922   5.293  12.991 -0.0437  1.0806  0.7929
10891TIP3   OH254163   2.623   0.348  14.741  0.4555  0.3079  0.0833
10891TIP3    H154164   2.594   0.373  14.829 -0.6835  0.0856 -0.2189
10891TIP3    H254165   2.715   0.374  14.739 -0.2858  3.3747  0.2271
10892TIP3   OH254166   1.790   3.394   4.954 -0.4504 -0.1798  0.4292
10892TIP3    H154167   1.698   3.367   4.956 -1.3156  2.0415 -2.7009
10892TIP3    H254168   1.838   3.311   4.951 -2.4204 -1.4052  0.2725
10893TIP3   OH254169   3.597   1.006   4.936 -0.6172 -0.0419 -0.6402
10893TIP3    H154170   3.553   0.930   4.898  2.4234 -3.0161  1.2297
10893TIP3    H254171   3.690   0.988   4.925  0.2751  2.6508  1.4094
10894TIP3   OH254172   3.373   1.075  14.370 -0.1987  0.6528  0.5346
10894TIP3    H154173   3.330   1.154  14.339 -0.5732  0.1714 -0.2015
10894TIP3    H254174   3.342   1.006  14.311  1.0720  0.1727  0.3988
10895TIP3   OH254175   3.882   3.632   5.069 -0.5651  0.1781  0.8317
10895TIP3    H154176   3.815   3.615   5.003 -1.0358 -0.8515  1.5328
10895TIP3    H254177   3.911   3.545   5.097  2.3398  0.5514 -0.6458
10896TIP3   OH254178   1.892   3.756   5.631  0.6131  0.0126  0.1721
10896TIP3    H154179   1.944   3.835   5.617 -0.8461  0.5902 -2.6943
10896TIP3    H254180   1.808   3.789   5.666  0.0386 -0.2209 -0.9401
10897TIP3   OH254181   1.379   3.067   3.947  0.4999  0.2674  0.3413
10897TIP3    H154182   1.319   2.993   3.940 -0.3772  1.0544 -0.8647
10897TIP3    H254183   1.466   3.027   3.954 -0.1387 -0.8756  2.0541
10898TIP3   OH254184   1.773   3.821  12.139 -0.7644  0.0965  0.2756
10898TIP3    H154185   1.779   3.728  12.159 -1.4898  0.0237  0.1821
10898TIP3    H254186   1.700   3.828  12.078 -2.0471  0.9563  1.8197
10899TIP3   OH254187   5.843   0.824   4.217 -0.1385  0.5884 -0.5032
10899TIP3    H154188   5.770   0.866   4.261  0.1805  1.3564 -0.6894
10899TIP3    H254189   5.919   0.843   4.273 -0.1256 -0.4420 -0.1614
10900TIP3   OH254190   5.904   6.589   0.572  0.3367 -0.4806 -0.1711
10900TIP3    H154191   5.978   6.531   0.590  0.5976 -0.5993 -1.5546
10900TIP3    H254192   5.848   6.539   0.513 -0.6006 -0.1955  0.4630
10901TIP3   OH254193   5.288   6.722  16.261  0.3726 -0.1514 -0.6451
10901TIP3    H154194   5.267   6.812  16.236  0.2086  0.1038  0.4020
10901TIP3    H254195   5.313   6.680  16.178 -0.1002  0.6941 -1.2314
10902TIP3   OH254196   3.387   4.922  12.706 -0.3127 -0.7245  0.0273
10902TIP3    H154197   3.302   4.954  12.675 -0.1248  0.3960  0.6335
10902TIP3    H254198   3.416   4.987  12.769  0.5716 -1.5873  0.5390
10903TIP3   OH254199   3.303   4.107   4.972 -0.3962 -0.5937 -0.2816
10903TIP3    H154200   3.262   4.162   4.905  0.6684 -0.9483 -1.2524
10903TIP3    H254201   3.333   4.029   4.925  3.0771  0.4564 -0.0737
10904TIP3   OH254202   5.719   1.991   3.770  0.6401 -1.0716 -0.2834
10904TIP3    H154203   5.790   2.026   3.823 -2.1407  4.0348  0.7599
10904TIP3    H254204   5.754   1.991   3.681  2.1752  0.7596  0.2465
10905TIP3   OH254205   3.181   2.082   1.973  0.0588  0.0820  0.0885
10905TIP3    H154206   3.237   2.125   2.039 -1.9871  2.1330  0.6163
10905TIP3    H254207   3.117   2.033   2.025 -0.8746  0.7933 -0.3568
10906TIP3   OH254208   2.586   2.707   2.243  0.3721 -0.3892  0.0845
10906TIP3    H154209   2.657   2.669   2.295 -0.8281 -0.3726  1.8087
10906TIP3    H254210   2.605   2.800   2.240  0.2884 -0.3431  0.7952
10907TIP3   OH254211   0.747   0.553   3.081 -0.3230 -0.1713  0.4207
10907TIP3    H154212   0.784   0.554   2.993  0.1559 -1.1113  0.5937
10907TIP3    H254213   0.816   0.513   3.135 -0.3631  0.9479  1.3379
10908TIP3   OH254214   4.018   5.550  15.102  0.2865  0.0136 -0.4665
10908TIP3    H154215   3.979   5.598  15.029  0.8427 -0.9048 -1.3969
10908TIP3    H254216   3.944   5.524  15.156 -0.1590  0.4838 -0.8384
10909TIP3   OH254217   6.209   4.759   3.325 -0.3118 -0.6816  0.3178
10909TIP3    H154218   6.262   4.834   3.299 -0.9740  0.6706  2.6044
10909TIP3    H254219   6.196   4.709   3.244  1.4861  0.7896 -0.9472
10910TIP3   OH254220   0.102   4.453  13.211 -0.5297 -0.2089  0.8126
10910TIP3    H154221   0.061   4.466  13.297  0.1486 -0.9973  1.2679
10910TIP3    H254222   0.190   4.489  13.221 -0.6066  0.1277  0.2956
10911TIP3   OH254223   3.838   0.243  15.969 -0.3054 -0.5811  0.4848
10911TIP3    H154224   3.815   0.252  16.061  1.0000  0.8790  0.7034
10911TIP3    H254225   3.839   0.333  15.935 -0.7155 -1.0779 -0.9510
10912TIP3   OH254226   5.341   2.220   0.224 -0.1483 -0.1442 -0.3725
10912TIP3    H154227   5.373   2.296   0.176 -2.0324 -0.1073 -1.6744
10912TIP3    H254228   5.276   2.180   0.165 -0.3178 -1.8728  0.9069
10913TIP3   OH254229   0.714   0.379   6.027  0.4431 -0.2496  0.2427
10913TIP3    H154230   0.808   0.395   6.037  0.6310 -1.2428  0.1137
10913TIP3    H254231   0.702   0.287   6.049 -0.4800 -0.1785  0.0899
10914TIP3   OH254232   3.245   2.789  12.135  0.4380 -0.2511 -0.3387
10914TIP3    H154233   3.230   2.883  12.131  0.7853 -0.0070  2.3384
10914TIP3    H254234   3.330   2.779  12.177 -0.9136 -1.6777  2.3877
10915TIP3   OH254235   0.506   2.774  14.858 -0.2880 -0.2397  0.3637
10915TIP3    H154236   0.477   2.711  14.793 -0.7357  1.3406 -1.0498
10915TIP3    H254237   0.463   2.747  14.939 -0.3088 -1.8215 -0.1385
10916TIP3   OH254238   4.472   5.106  11.895 -0.0734  0.4249  0.1209
10916TIP3    H154239   4.455   5.033  11.837 -1.2628  1.4728 -0.8877
10916TIP3    H254240   4.551   5.148  11.860 -0.6382  0.8982 -0.5992
10917TIP3   OH254241   2.888   4.689   5.277  0.5573  0.1543  0.3928
10917TIP3    H154242   2.795   4.685   5.252  0.5909  0.0106  0.2894
10917TIP3    H254243   2.899   4.776   5.315  0.4360  0.2648  0.1784
10918TIP3   OH254244   1.928   0.284  14.093  0.2608  0.0228 -0.2262
10918TIP3    H154245   1.993   0.336  14.047  0.4345 -0.4606 -0.5440
10918TIP3    H254246   1.943   0.194  14.061 -0.0723 -0.2061  0.2533
10919TIP3   OH254247   6.072   1.953   2.755 -0.4855 -0.1073 -0.0893
10919TIP3    H154248   6.022   1.943   2.674 -0.9870  0.7543  0.0958
10919TIP3    H254249   6.008   1.939   2.824 -0.2485 -0.0060  0.1536
10920TIP3   OH254250   5.506   5.966   1.234 -0.1823  0.4480 -0.0017
10920TIP3    H154251   5.540   6.035   1.291  0.8066 -1.5209  1.9640
10920TIP3    H254252   5.583   5.929   1.191 -0.6972  0.5388 -1.0329
10921TIP3   OH254253   3.929   1.004  14.217  0.0338  0.0908  0.2784
10921TIP3    H154254   3.981   0.924  14.211 -1.2208 -0.7282  0.0593
10921TIP3    H254255   3.857   0.991  14.156  0.5053  1.9466 -0.7434
10922TIP3   OH254256   0.859   6.113  11.293  0.0785 -0.1942 -1.0149
10922TIP3    H154257   0.839   6.019  11.302 -2.6044  0.0911 -2.7487
10922TIP3    H254258   0.814   6.154  11.366  2.1401 -0.2665  0.3725
10923TIP3   OH254259   3.642   5.328  12.510 -0.5277  0.0082 -0.2588
10923TIP3    H154260   3.550   5.337  12.485 -1.3825 -0.4106  2.4058
10923TIP3    H254261   3.659   5.234  12.504 -0.5051  0.0010 -0.1040
10924TIP3   OH254262   4.894   5.758  11.974  0.1213 -0.1909 -0.6065
10924TIP3    H154263   4.814   5.804  11.997 -0.0827  0.2410 -2.0832
10924TIP3    H254264   4.888   5.745  11.879  0.7654 -2.1307 -0.4330
10925TIP3   OH254265   4.994   6.552  15.589  0.0275  0.0714 -0.3169
10925TIP3    H154266   5.071   6.510  15.552  0.3698 -0.1701  0.6603
10925TIP3    H254267   5.022   6.641  15.608  0.2041 -0.1498  0.4694
10926TIP3   OH254268   5.500   4.374   2.035 -0.5804  0.3999 -0.3480
10926TIP3    H154269   5.419   4.417   2.009 -0.8683 -0.1400 -0.3618
10926TIP3    H254270   5.523   4.414   2.119 -0.0114  1.6685 -1.0829
10927TIP3   OH254271   0.636   5.854  13.018  0.2207  0.3674 -0.5018
10927TIP3    H154272   0.667   5.842  13.108 -0.3463  2.6979  0.0809
10927TIP3    H254273   0.706   5.819  12.963  1.5808  0.9219  0.8281
10928TIP3   OH254274   4.911   5.832  13.684  0.1091  0.0675 -0.4281
10928TIP3    H154275   4.847   5.823  13.755  0.0942 -1.0718 -0.5742
10928TIP3    H254276   4.880   5.907  13.633 -0.1961  0.5424  0.4291
10929TIP3   OH254277   2.365   2.743   2.016  0.5094  0.2207 -0.0644
10929TIP3    H154278   2.382   2.669   1.958  0.7984  0.1620  0.0939
10929TIP3    H254279   2.332   2.704   2.097  0.6400  0.2659  0.0114
10930TIP3   OH254280   1.106   5.825   3.712  0.1017  0.2003 -0.0509
10930TIP3    H154281   1.138   5.783   3.792 -0.2465  0.0097 -0.0111
10930TIP3    H254282   1.124   5.918   3.725 -1.1115  0.3296  0.8070
10931TIP3   OH254283   0.488   2.200  13.490 -0.2337 -0.3757  0.6507
10931TIP3    H154284   0.437   2.131  13.448  0.7660 -1.5894  1.3827
10931TIP3    H254285   0.574   2.161  13.506  0.2293  0.9051  1.4657
10932TIP3   OH254286   0.192   3.837  13.159 -0.0137 -0.1046 -0.9222
10932TIP3    H154287   0.145   3.800  13.085 -1.0434 -1.8097  0.4919
10932TIP3    H254288   0.127   3.841  13.229  1.4921 -0.9119  0.6071
10933TIP3   OH254289   6.481   2.824   2.886 -0.2399 -0.1576  0.7647
10933TIP3    H154290   6.493   2.914   2.915  0.5304 -0.4071  1.2672
10933TIP3    H254291   6.461   2.830   2.793  2.0204  0.4197  0.2774
10934TIP3   OH254292   5.272   3.208  13.989  0.2402 -0.1802  0.0268
10934TIP3    H154293   5.272   3.154  13.910  1.7051 -1.1959  0.6917
10934TIP3    H254294   5.320   3.157  14.054 -0.4530  0.8734  1.4290
10935TIP3   OH254295   5.264   4.650  16.740 -0.1668 -0.1984 -0.1275
10935TIP3    H154296   5.272   4.738  16.703  2.5801 -1.2170 -2.3111
10935TIP3    H254297   5.250   4.594  16.664 -1.7542 -1.7237  1.2130
10936TIP3   OH254298   3.992   0.636  15.574  0.9133  0.3116 -0.8341
10936TIP3    H154299   4.066   0.578  15.595 -0.7346 -1.4378  0.5519
10936TIP3    H254300   3.991   0.639  15.478  1.7743 -0.9860 -0.9133
10937TIP3   OH254301   4.078   2.670  16.685  0.3828  0.0023 -0.5066
10937TIP3    H154302   4.062   2.597  16.745  1.3056 -0.5087 -0.8585
10937TIP3    H254303   4.146   2.638  16.626 -0.7268  0.3697 -2.0521
10938TIP3   OH254304   1.780   3.956   4.999 -0.3597  0.6901 -0.3039
10938TIP3    H154305   1.824   3.984   5.079 -2.6543  1.0473  0.9311
10938TIP3    H254306   1.760   3.863   5.014 -1.0720  0.8373 -0.2974
10939TIP3   OH254307   6.368   3.737   0.587  0.6238 -0.5323  0.2147
10939TIP3    H154308   6.414   3.818   0.608 -0.1097  0.3735 -1.4652
10939TIP3    H254309   6.297   3.732   0.652 -0.4135  1.1413 -0.7478
10940TIP3   OH254310   5.833   2.445  16.149  0.5742  0.2546 -0.3565
10940TIP3    H154311   5.898   2.409  16.089  0.3957  0.1295 -0.4800
10940TIP3    H254312   5.751   2.440  16.099  0.3577 -0.2113  0.0355
10941TIP3   OH254313   5.105   1.119  15.718  0.2259  1.1258 -0.2154
10941TIP3    H154314   5.117   1.152  15.807  0.1173 -0.5788  0.4639
10941TIP3    H254315   5.014   1.138  15.697 -0.3333 -0.2045  0.8353
10942TIP3   OH254316   0.222   4.884   0.560 -0.2313 -0.1351  0.1629
10942TIP3    H154317   0.169   4.889   0.480 -1.1952  0.0910  0.7970
10942TIP3    H254318   0.312   4.890   0.529 -0.6064  0.6855 -0.8565
10943TIP3   OH254319   1.321   1.177   1.604 -0.0784  0.5792 -0.5233
10943TIP3    H154320   1.326   1.272   1.597  1.0543  0.7560  1.7735
10943TIP3    H254321   1.340   1.159   1.696  1.0352 -1.9459 -1.1747
10944TIP3   OH254322   1.162   2.340   4.942  0.2949  0.1117 -0.3220
10944TIP3    H154323   1.256   2.358   4.942  0.4304 -0.3686  1.1664
10944TIP3    H254324   1.155   2.251   4.978 -0.7361  0.2095 -0.2432
10945TIP3   OH254325   1.100   0.872  14.958  0.0889 -0.2628  0.3451
10945TIP3    H154326   1.179   0.858  15.009  2.0988 -0.3205 -2.5198
10945TIP3    H254327   1.071   0.960  14.982  1.6089  0.1482  0.7620
10946TIP3   OH254328   0.242   0.276  14.691 -0.5689  0.1142 -0.4852
10946TIP3    H154329   0.198   0.192  14.679 -3.0989  1.0440  1.3260
10946TIP3    H254330   0.254   0.284  14.786  2.3569  0.5788 -0.7987
10947TIP3   OH254331   1.514   5.781   4.851  0.7324 -0.0440 -0.2690
10947TIP3    H154332   1.534   5.770   4.943  1.7406 -0.9523 -0.5735
10947TIP3    H254333   1.582   5.841   4.818 -0.0992  0.9337 -0.2742
10948TIP3   OH254334   5.964   4.856   2.683  0.3889 -0.0284 -0.1378
10948TIP3    H154335   5.970   4.787   2.750  0.7677 -0.6573 -0.8062
10948TIP3    H254336   5.994   4.814   2.602 -0.5583  0.5723 -0.8223
10949TIP3   OH254337   3.184   0.268  13.505 -0.2743  0.9168 -0.8049
10949TIP3    H154338   3.175   0.204  13.434  1.8318 -0.3144 -0.0420
10949TIP3    H254339   3.247   0.332  13.473  0.2500  0.6741 -0.2813
10950TIP3   OH254340   1.576   5.298  15.761 -0.2945  0.5968 -0.1999
10950TIP3    H154341   1.648   5.341  15.806  0.5374 -1.0558  0.1381
10950TIP3    H254342   1.568   5.213  15.804 -0.9160 -0.1640 -1.7306
10951TIP3   OH254343   1.197   0.824  16.398 -0.0913  0.4989  0.0269
10951TIP3    H154344   1.278   0.803  16.350  0.1201  0.2895  0.4761
10951TIP3    H254345   1.196   0.920  16.401 -0.0575  0.5139 -0.3085
10952TIP3   OH254346   6.503   5.671  11.345  0.6023 -0.3091  0.0806
10952TIP3    H154347   6.521   5.667  11.439  0.1747  0.1254  0.1837
10952TIP3    H254348   6.506   5.764  11.323  0.3426 -0.3788 -0.2633
10953TIP3   OH254349   1.998   3.061  14.644  0.2953  0.3278 -0.6385
10953TIP3    H154350   2.008   3.069  14.739 -3.2016  0.3181 -0.1525
10953TIP3    H254351   2.056   2.989  14.620  2.2227  1.1470  1.2320
10954TIP3   OH254352   6.464   4.916   2.842  0.0315 -0.0821  0.1538
10954TIP3    H154353   6.415   4.931   2.761 -0.5775  0.9453  0.6914
10954TIP3    H254354   6.482   4.822   2.842 -2.0656 -0.5383 -0.0170
10955TIP3   OH254355   6.779   4.310  16.101 -0.2203  0.0745  0.1346
10955TIP3    H154356   6.806   4.359  16.023  0.0051  0.8515  0.6988
10955TIP3    H254357   6.860   4.276  16.138 -0.3973 -1.0660 -0.4497
10956TIP3   OH254358   4.109   1.130  13.294 -0.8303  0.1553 -0.7410
10956TIP3    H154359   4.172   1.079  13.345  1.1905  3.3825  0.3089
10956TIP3    H254360   4.074   1.194  13.356 -2.9015  0.4072 -2.0616
10957TIP3   OH254361   2.593   3.054   0.441  1.0536  0.4247 -0.4775
10957TIP3    H154362   2.645   3.087   0.514 -1.8241  0.8042  1.5240
10957TIP3    H254363   2.510   3.100   0.447 -1.3082 -3.4247 -0.6255
10958TIP3   OH254364   6.425   6.059  13.432  0.0859  0.3813  0.0244
10958TIP3    H154365   6.360   6.125  13.456 -1.6456 -1.2735  0.1561
10958TIP3    H254366   6.475   6.099  13.361  0.2834  2.4697  1.2590
10959TIP3   OH254367   0.620   5.566  12.773 -0.8079 -0.3712  0.1103
10959TIP3    H154368   0.681   5.495  12.753 -1.8141 -1.2584  0.1212
10959TIP3    H254369   0.677   5.641  12.793  0.2663 -0.6564 -1.6670
10960TIP3   OH254370   5.102   1.755  15.133 -0.2393  0.7231 -0.3339
10960TIP3    H154371   5.153   1.724  15.208 -0.2364  1.2391 -0.1166
10960TIP3    H254372   5.089   1.678  15.078 -0.0545  0.3888  0.0934
10961TIP3   OH254373   0.405   2.303  15.521  0.5364  0.0001 -0.4783
10961TIP3    H154374   0.444   2.388  15.504  0.8420 -0.2442 -1.0203
10961TIP3    H254375   0.447   2.244  15.458  0.4161 -0.5743 -0.0282
10962TIP3   OH254376   6.188   2.560  17.056  0.0428 -0.5774 -0.1226
10962TIP3    H154377   6.194   2.602  17.142  1.1501 -2.9807  1.0843
10962TIP3    H254378   6.109   2.506  17.061  0.7840 -1.7078 -0.0654
10963TIP3   OH254379   1.762   6.163  12.094 -0.1626 -0.0580  0.3647
10963TIP3    H154380   1.783   6.204  12.178 -0.9817 -0.7568  0.9290
10963TIP3    H254381   1.694   6.099  12.115  1.5915 -2.2900 -0.3590
10964TIP3   OH254382   2.314   3.898   5.805  0.5732 -0.6498 -0.1047
10964TIP3    H154383   2.409   3.911   5.806  0.6210 -0.9599  0.6547
10964TIP3    H254384   2.281   3.962   5.868  0.4726 -1.7620  1.0222
10965TIP3   OH254385   6.224   2.952  16.122 -0.0508 -0.0115  0.3256
10965TIP3    H154386   6.308   2.988  16.151  0.0301  1.1141 -1.1563
10965TIP3    H254387   6.216   2.869  16.167  2.4417 -0.7225 -0.3852
10966TIP3   OH254388   0.441   4.735  13.754 -0.0224 -0.6406 -0.6582
10966TIP3    H154389   0.358   4.757  13.796  0.1294  0.8706 -1.0705
10966TIP3    H254390   0.504   4.795  13.793  0.6404 -0.9972 -1.1634
10967TIP3   OH254391   0.938   2.196   2.946  0.3560 -0.0465 -0.1644
10967TIP3    H154392   0.874   2.256   2.984  0.7061 -0.5957  1.3721
10967TIP3    H254393   0.994   2.171   3.020  0.8616 -1.4354 -0.9779
10968TIP3   OH254394   6.467   3.957  15.169 -0.0545 -0.5668 -0.0479
10968TIP3    H154395   6.403   3.888  15.152  1.0261 -1.7321  0.4588
10968TIP3    H254396   6.428   4.036  15.132 -2.1931 -1.0521  1.0493
10969TIP3   OH254397   0.531   4.127   0.960  0.4971 -0.4374 -0.2790
10969TIP3    H154398   0.556   4.045   0.916 -1.1076 -1.4384  0.5834
10969TIP3    H254399   0.593   4.134   1.033  0.2616 -1.2356  0.0147
10970TIP3   OH254400   1.288   6.633  11.605 -0.2849  0.1890  0.4083
10970TIP3    H154401   1.256   6.592  11.685 -0.7326 -0.0808  0.0925
10970TIP3    H254402   1.373   6.670  11.630  0.6091 -1.7694  0.4612
10971TIP3   OH254403   0.863   4.236  13.379  0.1726  0.3439  0.0079
10971TIP3    H154404   0.792   4.180  13.411 -0.8212  2.0310  0.9204
10971TIP3    H254405   0.942   4.184  13.391 -0.6827 -0.7957  0.9432
10972TIP3   OH254406   4.811   3.426  12.999  0.3982 -0.1004 -0.3375
10972TIP3    H154407   4.803   3.334  13.024 -1.1061 -0.0519 -0.5208
10972TIP3    H254408   4.779   3.429  12.908 -0.8692  0.7808  0.0977
10973TIP3   OH254409   2.654   6.416   5.417  0.1331 -0.4459  0.5745
10973TIP3    H154410   2.744   6.405   5.385 -0.2163 -3.6033  0.3608
10973TIP3    H254411   2.664   6.426   5.512  0.7505  1.0230  0.3858
10974TIP3   OH254412   0.658   2.695  11.847 -0.0489  0.1830  0.0581
10974TIP3    H154413   0.708   2.702  11.929  1.2187  1.0099 -0.7442
10974TIP3    H254414   0.708   2.634  11.793 -0.9682 -0.4907 -0.0592
10975TIP3   OH254415   1.193   3.222  13.830  0.1681  0.0894 -0.3148
10975TIP3    H154416   1.139   3.201  13.906  1.5460  1.4700  1.1387
10975TIP3    H254417   1.223   3.137  13.797 -0.4511 -0.5410  0.7082
10976TIP3   OH254418   0.776   3.138  12.838  0.0506  0.5718 -0.6396
10976TIP3    H154419   0.865   3.174  12.844 -0.0568  0.7177  0.1529
10976TIP3    H254420   0.753   3.115  12.928 -0.8871  0.9385 -0.7777
10977TIP3   OH254421   5.459   2.248   4.279  0.0969 -0.6426 -0.2232
10977TIP3    H154422   5.405   2.323   4.255  1.9924  0.4080 -1.4156
10977TIP3    H254423   5.471   2.256   4.374 -1.1245 -0.4426 -0.0705
10978TIP3   OH254424   6.660   1.984   2.767 -0.1036 -0.3851 -0.0648
10978TIP3    H154425   6.742   2.033   2.778 -0.3762  0.0714 -0.0653
10978TIP3    H254426   6.632   2.002   2.678  0.5957 -1.7879 -0.6026
10979TIP3   OH254427   4.849   4.757   5.795 -0.4450 -0.3764  0.0645
10979TIP3    H154428   4.811   4.844   5.811  0.3439 -0.3594  2.2960
10979TIP3    H254429   4.833   4.709   5.877  2.3595 -1.0636  0.3132
10980TIP3   OH254430   3.178   4.972  10.806  0.6904 -0.4189 -0.5731
10980TIP3    H154431   3.217   5.020  10.879 -1.0787 -1.7161  1.3627
10980TIP3    H254432   3.133   5.039  10.755  0.0184  0.3185  0.8920
10981TIP3   OH254433   6.438   3.677   3.179 -0.1468 -0.1965  0.2654
10981TIP3    H154434   6.489   3.684   3.260  2.4581 -1.0333 -1.1616
10981TIP3    H254435   6.444   3.764   3.139  1.1199 -0.5451 -0.3674
10982TIP3   OH254436   4.488   3.493   4.554  0.5139  0.0699 -0.1499
10982TIP3    H154437   4.417   3.558   4.548 -0.3715 -0.9797 -2.0583
10982TIP3    H254438   4.547   3.528   4.621 -1.4859  1.2924  1.1025
10983TIP3   OH254439   3.054   2.516  15.644 -0.1267 -0.8591 -0.2191
10983TIP3    H154440   3.087   2.594  15.600 -0.9002 -0.6911 -0.5184
10983TIP3    H254441   2.963   2.508  15.615 -0.1755 -1.6533  0.1083
10984TIP3   OH254442   2.795   5.569   0.610  0.2668 -0.1107  0.0267
10984TIP3    H154443   2.703   5.544   0.604  0.1929  0.1725 -0.0430
10984TIP3    H254444   2.843   5.486   0.605  0.0443 -0.2042 -0.5537
10985TIP3   OH254445   1.406   5.018  14.126  0.1410 -0.2705 -0.2741
10985TIP3    H154446   1.483   4.982  14.082  0.3993 -0.6581  0.4797
10985TIP3    H254447   1.383   4.952  14.191  0.5853  0.8714  1.0942
10986TIP3   OH254448   2.186   2.380   5.380  0.6877  0.3284 -0.5341
10986TIP3    H154449   2.229   2.394   5.295 -0.7187  0.3947 -1.2692
10986TIP3    H254450   2.235   2.435   5.441  0.9058  1.3216 -1.5705
10987TIP3   OH254451   1.232   4.850   2.210 -0.2612  0.5977 -0.4567
10987TIP3    H154452   1.204   4.793   2.138  0.2947  0.0145 -0.2181
10987TIP3    H254453   1.214   4.799   2.289 -0.7732  1.1939 -0.1804
10988TIP3   OH254454   6.653   2.371  13.120 -0.1156  0.5401 -0.6061
10988TIP3    H154455   6.735   2.324  13.104 -1.0077 -1.0129 -0.9199
10988TIP3    H254456   6.622   2.396  13.032  0.7594  2.5319 -0.3926
10989TIP3   OH254457   4.336   2.121  11.134 -0.1434  0.3852 -0.3398
10989TIP3    H154458   4.360   2.194  11.192  1.0867  0.4714 -0.9088
10989TIP3    H254459   4.247   2.142  11.105 -0.3712  0.8908  0.6588
10990TIP3   OH254460   2.573   2.619   4.912  0.2775  0.5906 -0.1495
10990TIP3    H154461   2.545   2.563   4.984 -0.7899 -1.2969 -1.9223
10990TIP3    H254462   2.506   2.607   4.845  1.7391  1.4705 -1.8529
10991TIP3   OH254463   1.856   1.980   1.874 -0.0823  0.2735  0.3480
10991TIP3    H154464   1.880   1.984   1.781 -2.0205  1.6062 -0.1644
10991TIP3    H254465   1.806   1.898   1.882  0.8189 -0.2829  0.4430
10992TIP3   OH254466   1.713   6.854   4.496  0.4136  0.2603 -0.3127
10992TIP3    H154467   1.649   6.895   4.554  0.5164  1.0330 -0.7178
10992TIP3    H254468   1.682   6.874   4.408  1.0520  0.4012 -0.5153
10993TIP3   OH254469   2.451   0.583  13.359 -0.0495  0.0554 -0.0770
10993TIP3    H154470   2.359   0.564  13.381 -0.4330  1.0572 -0.7358
10993TIP3    H254471   2.500   0.551  13.434 -0.8678 -1.1501 -0.0233
10994TIP3   OH254472   2.250   4.059   1.140  0.2046  0.3096 -0.4081
10994TIP3    H154473   2.233   3.972   1.104 -2.9731  0.8984 -0.6559
10994TIP3    H254474   2.204   4.060   1.224 -1.9765  2.4231 -1.5049
10995TIP3   OH254475   2.811   4.242  16.659 -0.3162  0.3619 -0.0348
10995TIP3    H154476   2.820   4.214  16.750 -2.1136 -0.4198 -0.0559
10995TIP3    H254477   2.774   4.330  16.664 -0.1591  0.4241  0.0057
10996TIP3   OH254478   1.320   4.976   4.141  0.1954 -0.0750 -0.2587
10996TIP3    H154479   1.307   5.068   4.160 -1.3362 -0.6982  2.1577
10996TIP3    H254480   1.374   4.943   4.213 -1.4932 -1.5337  0.4373
10997TIP3   OH254481   1.549   3.926  14.138 -0.3191  0.0969  0.2909
10997TIP3    H154482   1.487   3.893  14.204 -2.5359  1.4235 -0.9819
10997TIP3    H254483   1.505   3.911  14.055 -0.5387  4.0396 -0.5188
10998TIP3   OH254484   3.924   4.596   2.854 -0.3704  0.0911 -0.3528
10998TIP3    H154485   3.986   4.543   2.805  0.1950 -0.1226  0.5644
10998TIP3    H254486   3.949   4.687   2.835  0.2975  0.0050  0.0886
10999TIP3   OH254487   4.654   5.203  16.883  0.0711 -0.0634  0.2933
10999TIP3    H154488   4.635   5.229  16.974 -1.3482  1.4929 -0.3987
10999TIP3    H254489   4.652   5.285  16.834  0.5543 -0.9203 -1.2035
11000TIP3   OH254490   2.734   0.332   4.755 -1.1177 -0.4344 -0.3699
11000TIP3    H154491   2.684   0.330   4.674  1.5977  2.4394 -2.3484
11000TIP3    H254492   2.729   0.423   4.784  0.1281 -0.8381  1.2538
11001TIP3   OH254493   1.264   2.427  16.255  0.0042 -0.5703  1.2095
11001TIP3    H154494   1.230   2.476  16.180 -1.7571 -0.8057  1.8228
11001TIP3    H254495   1.297   2.494  16.315  1.8455 -0.3950  0.0745
11002TIP3   OH254496   3.868   0.448  11.347  0.2411 -0.4151  0.1358
11002TIP3    H154497   3.826   0.429  11.263  0.9565 -3.5485  0.3878
11002TIP3    H254498   3.853   0.370  11.400  1.2159  0.8320  2.3797
11003TIP3   OH254499   4.275   3.567  11.011  0.0860  0.4566  0.2779
11003TIP3    H154500   4.279   3.473  11.030  0.9118  0.4605  0.1431
11003TIP3    H254501   4.339   3.580  10.941  0.2295  1.1761  0.5422
11004TIP3   OH254502   5.109   2.723  14.457  0.1986 -0.1150 -0.0153
11004TIP3    H154503   5.036   2.770  14.417 -0.9616 -0.9094  1.0890
11004TIP3    H254504   5.097   2.736  14.552  0.6404 -1.4572  0.2452
11005TIP3   OH254505   2.403   1.203  13.712 -0.3537  0.2054  1.0197
11005TIP3    H154506   2.386   1.118  13.671 -0.2552  0.5240  0.2958
11005TIP3    H254507   2.490   1.228  13.680 -0.7586  0.9878  0.4937
11006TIP3   OH254508   2.517   0.230  15.866  0.7118 -0.3294  0.1386
11006TIP3    H154509   2.588   0.184  15.911  0.7761  0.3023  0.6895
11006TIP3    H254510   2.446   0.234  15.930  0.3085 -0.6238 -0.2818
11007TIP3   OH254511   0.781   3.589  11.341  0.2202 -0.2492 -0.1738
11007TIP3    H154512   0.851   3.546  11.292 -0.7142  0.3157 -2.1171
11007TIP3    H254513   0.703   3.575  11.287 -0.7178  1.1061  0.7766
11008TIP3   OH254514   3.918   5.652   3.112 -0.1561  0.5481  0.5515
11008TIP3    H154515   3.940   5.580   3.052 -1.2981  0.4938  0.1702
11008TIP3    H254516   3.939   5.731   3.063 -0.9148  0.4997  0.1229
11009TIP3   OH254517   5.284   1.943   0.690  0.2961  0.1741 -0.0633
11009TIP3    H154518   5.261   1.905   0.606 -1.2816 -1.8880  1.2022
11009TIP3    H254519   5.379   1.928   0.697  0.2561 -0.6409 -1.0002
11010TIP3   OH254520   3.220   2.491  11.683  0.3306  0.3855 -0.2266
11010TIP3    H154521   3.298   2.545  11.696  0.4738 -0.1192  1.1864
11010TIP3    H254522   3.237   2.445  11.601  1.4937  0.3393  0.0155
11011TIP3   OH254523   0.660   5.514   2.431  0.3375  0.1730 -0.3653
11011TIP3    H154524   0.588   5.560   2.474  0.0049 -0.3589 -0.3477
11011TIP3    H254525   0.739   5.544   2.476  0.0109 -0.2755  0.5287
11012TIP3   OH254526   6.713   6.312   5.426 -0.3594  0.6104 -0.2393
11012TIP3    H154527   6.777   6.294   5.357  0.4814  1.5211  0.2692
11012TIP3    H254528   6.681   6.400   5.407 -0.4090  0.7164  0.3017
11013TIP3   OH254529   6.722   1.676  16.628 -0.5068 -0.0741 -0.3035
11013TIP3    H154530   6.801   1.626  16.650 -0.4231 -0.5661 -1.6306
11013TIP3    H254531   6.754   1.762  16.603 -0.6621  0.7786  2.1322
11014TIP3   OH254532   6.454   3.319   4.425 -0.7424  0.2036 -0.6120
11014TIP3    H154533   6.503   3.237   4.425 -1.0695 -0.0076  0.4381
11014TIP3    H254534   6.489   3.368   4.352  3.5245  1.5480  2.0017
11015TIP3   OH254535   3.650   6.659   1.268  0.3499 -0.0557  0.1738
11015TIP3    H154536   3.630   6.668   1.175  0.6688 -0.6907  0.0355
11015TIP3    H254537   3.733   6.705   1.280 -0.3260  1.1356  0.4112
11016TIP3   OH254538   4.790   2.044  10.720  0.2060 -0.0841  0.1498
11016TIP3    H154539   4.766   2.136  10.713  0.3378 -0.1917 -2.3892
11016TIP3    H254540   4.809   2.016  10.631 -0.3370 -2.7194  0.7560
11017TIP3   OH254541   4.506   0.291   1.142 -0.6597  0.2282 -0.3368
11017TIP3    H154542   4.440   0.226   1.117  0.9564 -1.8967  0.6287
11017TIP3    H254543   4.528   0.269   1.233  3.2045 -0.9462 -1.3434
11018TIP3   OH254544   2.159   2.644   5.613  0.2519 -0.2476 -0.2193
11018TIP3    H154545   2.169   2.740   5.606 -0.5484 -0.1541 -0.1334
11018TIP3    H254546   2.219   2.619   5.684  2.1361 -0.1114 -1.6694
11019TIP3   OH254547   3.180   5.377   0.980  0.0349  0.2273 -0.1967
11019TIP3    H154548   3.204   5.420   1.062 -1.0333 -0.0852  0.2940
11019TIP3    H254549   3.252   5.399   0.920  0.3086  1.3423  0.5058
11020TIP3   OH254550   0.202   6.789   3.849 -0.1763  0.3069  0.2876
11020TIP3    H154551   0.156   6.872   3.842 -0.9714 -0.1107  0.3955
11020TIP3    H254552   0.140   6.731   3.894  0.8705  0.0374  1.4657
11021TIP3   OH254553   5.137   2.741  16.361 -0.0297  0.2099  1.0803
11021TIP3    H154554   5.134   2.836  16.348 -1.1419  0.1297  0.6479
11021TIP3    H254555   5.101   2.727  16.448 -4.2662 -0.0737 -0.5084
11022TIP3   OH254556   4.126   0.830  12.851  0.0964  0.0150 -0.8675
11022TIP3    H154557   4.059   0.770  12.818 -1.1577  0.5124  0.6378
11022TIP3    H254558   4.143   0.890  12.778 -1.1793 -0.0634 -1.2528
11023TIP3   OH254559   2.271   5.243   3.591  0.3136 -0.0290  0.0382
11023TIP3    H154560   2.187   5.277   3.623  0.9330 -0.5942  2.4457
11023TIP3    H254561   2.249   5.199   3.509 -2.0040 -1.2774  1.2176
11024TIP3   OH254562   4.524   6.595   4.662  0.1464 -0.5409 -0.0193
11024TIP3    H154563   4.559   6.684   4.672  0.7827 -0.8100  0.1896
11024TIP3    H254564   4.601   6.540   4.649 -0.2566 -1.0414 -0.3440
11025TIP3   OH254565   5.633   4.335  12.255  0.9952  0.0692 -0.7567
11025TIP3    H154566   5.556   4.295  12.296  2.3640 -3.7052 -1.5178
11025TIP3    H254567   5.671   4.390  12.324  0.7447 -2.5323  1.6026
11026TIP3   OH254568   6.825   4.433  16.410 -0.2062  0.0077 -0.0840
11026TIP3    H154569   6.777   4.439  16.493  1.5838  1.5265  0.9185
11026TIP3    H254570   6.876   4.352  16.417 -0.1895  0.0446  0.2193
11027TIP3   OH254571   4.486   3.972  16.725  0.2453  0.5543  0.6679
11027TIP3    H154572   4.482   3.940  16.815  1.8303 -1.8866 -0.0286
11027TIP3    H254573   4.550   4.044  16.728  2.1845 -1.0964  1.1579
11028TIP3   OH254574   4.280   1.748  12.255 -0.3357 -0.0915 -0.4340
11028TIP3    H154575   4.302   1.704  12.338  0.1965 -0.5172 -0.7952
11028TIP3    H254576   4.240   1.679  12.202  0.0033 -0.0047 -0.8033
11029TIP3   OH254577   3.163   3.048  12.684 -0.7659 -0.1152  0.3312
11029TIP3    H154578   3.227   2.989  12.723 -0.0290 -0.8561 -1.8570
11029TIP3    H254579   3.085   3.038  12.739  0.3482 -0.6543  1.9061
11030TIP3   OH254580   5.002   0.482   0.835  0.0460  0.4545  0.0979
11030TIP3    H154581   5.078   0.514   0.787 -1.0232  3.0137 -0.0528
11030TIP3    H254582   4.996   0.539   0.911 -1.3705 -0.0945  0.4252
11031TIP3   OH254583   1.646   3.233  16.400 -0.2454 -0.0826  0.1770
11031TIP3    H154584   1.558   3.219  16.367  0.2731 -1.1020 -0.8217
11031TIP3    H254585   1.693   3.274  16.327 -0.0510  1.1034  0.9315
11032TIP3   OH254586   1.740   2.944  15.345 -0.4722 -0.5354 -0.1481
11032TIP3    H154587   1.733   2.879  15.414  0.0835  1.0163  1.4358
11032TIP3    H254588   1.658   2.993  15.350 -1.6322 -2.0378 -2.4201
11033TIP3   OH254589   0.182   2.281   1.443 -0.0625 -0.9448  0.2101
11033TIP3    H154590   0.186   2.341   1.517  3.2155 -1.4463  0.5759
11033TIP3    H254591   0.159   2.336   1.368 -1.0791 -0.0227  1.1610
11034TIP3   OH254592   0.270   2.418  12.930  1.4862  0.4392 -0.0864
11034TIP3    H154593   0.295   2.507  12.952 -1.2134  2.0125 -2.6700
11034TIP3    H254594   0.309   2.402  12.844  3.3076 -1.6133  1.0102
11035TIP3   OH254595   6.659   2.952  10.315  0.1271 -0.0849  0.3700
11035TIP3    H154596   6.620   3.036  10.289  1.1293  0.1276 -0.5164
11035TIP3    H254597   6.745   2.975  10.350 -0.5882 -0.5241  2.5989
11036TIP3   OH254598   2.303   0.448  17.013 -0.5990  0.1656  0.9092
11036TIP3    H154599   2.307   0.420  17.105 -0.9612 -0.8677  0.6223
11036TIP3    H254600   2.378   0.507  17.003 -1.8377  2.1797  2.4624
11037TIP3   OH254601   2.235   2.398  13.175  0.0357  0.0252 -0.2555
11037TIP3    H154602   2.185   2.335  13.227  1.2788 -1.6315 -0.9679
11037TIP3    H254603   2.295   2.439  13.237  0.7158 -1.1076 -0.1236
11038TIP3   OH254604   3.379   6.056  15.151  0.3545 -0.0989  0.1932
11038TIP3    H154605   3.307   6.103  15.194  0.4674  0.4947 -0.2506
11038TIP3    H254606   3.415   6.120  15.089 -0.0917 -1.0817 -1.1008
11039TIP3   OH254607   2.239   3.039   0.258  0.4720 -0.3219 -0.5952
11039TIP3    H154608   2.227   2.945   0.270  1.6865 -0.5351 -0.9265
11039TIP3    H254609   2.177   3.062   0.189  0.1152 -0.8612 -0.4656
11040TIP3   OH254610   6.824   4.121  12.616 -0.3245  0.6935 -0.6045
11040TIP3    H154611   6.756   4.177  12.580 -1.8779 -0.4523  0.4555
11040TIP3    H254612   6.786   4.083  12.695  2.7490  2.7121  2.1039
11041TIP3   OH254613   2.401   2.845  11.359 -0.0205  0.9429 -0.2319
11041TIP3    H154614   2.401   2.941  11.361  0.2600  0.9662 -1.0428
11041TIP3    H254615   2.334   2.820  11.423 -0.7741  1.6897 -0.7086
11042TIP3   OH254616   6.653   0.150  14.217 -0.2263 -0.1794  0.5987
11042TIP3    H154617   6.692   0.067  14.244  0.5209 -0.8680 -2.2561
11042TIP3    H254618   6.725   0.212  14.220  0.5596 -0.8296 -1.9710
11043TIP3   OH254619   3.036   4.007  11.458 -0.4373  0.2040  0.3022
11043TIP3    H154620   3.020   3.933  11.518 -0.6196 -2.1236 -2.4037
11043TIP3    H254621   2.969   3.997  11.391  0.7108  1.7599 -1.1222
11044TIP3   OH254622   5.044   0.717  12.301  0.1037  0.2406  0.9120
11044TIP3    H154623   5.091   0.678  12.374  0.5931 -2.2989 -0.6486
11044TIP3    H254624   5.076   0.671  12.224 -0.9261  2.2965 -0.8616
11045TIP3   OH254625   4.883   5.964   0.958 -0.1842  0.2488  0.3715
11045TIP3    H154626   4.949   6.025   0.991 -0.5233  0.4745  0.6481
11045TIP3    H254627   4.861   5.997   0.871 -0.5553  0.6817  0.6235
11046TIP3   OH254628   6.397   3.396   5.804  0.4856  0.4722  0.3122
11046TIP3    H154629   6.366   3.449   5.878  0.4705  1.2971 -0.2723
11046TIP3    H254630   6.485   3.369   5.830  0.2955  0.3327  0.8407
11047TIP3   OH254631   5.265   4.132   4.494  0.2396 -0.5165 -0.2236
11047TIP3    H154632   5.199   4.109   4.559  0.6824  1.2072  0.8951
11047TIP3    H254633   5.342   4.156   4.545  1.7371 -2.2966 -1.4938
11048TIP3   OH254634   6.405   0.962  11.762 -0.1509  1.0809 -0.4100
11048TIP3    H154635   6.427   0.887  11.818 -0.1778 -0.1136 -1.9551
11048TIP3    H254636   6.487   1.012  11.755 -0.5650  2.3065  2.1348
11049TIP3   OH254637   5.292   6.317  13.253  0.2555 -0.4244 -0.0607
11049TIP3    H154638   5.271   6.410  13.246 -0.8626 -0.6465  0.1914
11049TIP3    H254639   5.208   6.272  13.248  0.6617 -1.3663  0.9815
11050TIP3   OH254640   3.106   0.305   2.736 -0.1883 -0.0710  0.3482
11050TIP3    H154641   3.171   0.282   2.669  1.2780 -2.2679  2.3693
11050TIP3    H254642   3.155   0.301   2.818 -2.3364  0.8132  1.7414
11051TIP3   OH254643   3.500   1.774   4.998  0.0448  0.3333  0.1846
11051TIP3    H154644   3.492   1.679   4.995  0.9589  0.2166  0.7723
11051TIP3    H254645   3.582   1.789   5.045  1.5102  1.3539 -2.4524
11052TIP3   OH254646   3.701   5.421  15.589 -0.3285 -0.7799  0.0091
11052TIP3    H154647   3.769   5.463  15.642 -0.5558  0.6944 -0.8289
11052TIP3    H254648   3.686   5.337  15.632 -0.3582  0.2656  2.1734
11053TIP3   OH254649   6.488   1.758  12.454 -0.2618  0.0634  0.4562
11053TIP3    H154650   6.556   1.730  12.393 -1.0311 -1.0606  0.0803
11053TIP3    H254651   6.447   1.677  12.484 -0.3807  0.6301  1.9352
11054TIP3   OH254652   3.527   1.991  17.125 -0.5268 -0.0886 -0.8736
11054TIP3    H154653   3.569   1.931  17.063  0.4018 -0.3607 -0.0096
11054TIP3    H254654   3.453   2.026  17.077 -1.9760 -2.9817 -0.9914
11055TIP3   OH254655   4.827   5.253  15.540  0.2439  0.6796  1.0416
11055TIP3    H154656   4.923   5.253  15.543  0.4126  0.2847 -1.5788
11055TIP3    H254657   4.802   5.329  15.591  2.2804  3.5246 -1.7614
11056TIP3   OH254658   5.043   6.746   2.848 -0.4435 -0.0388 -0.3183
11056TIP3    H154659   4.992   6.825   2.866 -0.1563  0.0675  0.0344
11056TIP3    H254660   5.006   6.712   2.766 -2.1759 -0.8648  0.7487
11057TIP3   OH254661   0.313   0.143   4.357  0.0476  0.0427 -0.0258
11057TIP3    H154662   0.299   0.071   4.419  1.0741 -2.4340 -2.4589
11057TIP3    H254663   0.406   0.165   4.366  0.0169  0.2169 -0.1269
11058TIP3   OH254664   4.258   0.873   0.249 -0.4569  0.4719  0.1776
11058TIP3    H154665   4.290   0.797   0.201 -1.6915  0.2071 -0.2534
11058TIP3    H254666   4.229   0.838   0.333  2.8817  1.1037  1.7770
11059TIP3   OH254667   2.834   0.064  13.421 -0.3235  0.3057 -0.2150
11059TIP3    H154668   2.843   0.142  13.477  1.7340  1.6047 -2.1903
11059TIP3    H254669   2.920   0.053  13.382 -1.6881 -0.4233 -3.2591
11060TIP3   OH254670   5.326   4.885   1.835  0.3966 -0.1005  0.0800
11060TIP3    H154671   5.320   4.854   1.926 -1.6221 -0.2832 -0.0762
11060TIP3    H254672   5.255   4.839   1.789  0.6156  0.9094 -1.3192
11061TIP3   OH254673   6.168   2.257   6.539  0.1459 -0.5243  0.2817
11061TIP3    H154674   6.142   2.347   6.522 -0.1639 -0.6362  0.1563
11061TIP3    H254675   6.225   2.234   6.465  1.6207  0.1200  1.1761
11062TIP3   OH254676   6.672   4.632   0.264  0.1902  0.0428  0.1726
11062TIP3    H154677   6.613   4.568   0.304 -0.7487 -1.0948 -2.7296
11062TIP3    H254678   6.620   4.712   0.258 -0.5742 -0.4886 -0.8672
11063TIP3   OH254679   4.774   4.985  15.570 -0.3079 -0.3026 -0.3561
11063TIP3    H154680   4.840   4.939  15.621  0.2814  0.4216 -0.4488
11063TIP3    H254681   4.816   5.067  15.545 -1.6658  0.7824  0.7000
11064TIP3   OH254682   4.851   2.161  16.268  0.3679 -0.0891  0.2264
11064TIP3    H154683   4.835   2.243  16.221  0.0349  0.5401  1.3863
11064TIP3    H254684   4.907   2.186  16.342  1.3208 -1.1393 -0.1165
11065TIP3   OH254685   5.882   6.265  16.594 -0.2722 -0.3866 -0.4277
11065TIP3    H154686   5.900   6.353  16.626 -0.8661 -0.7628  0.9752
11065TIP3    H254687   5.936   6.208  16.648 -1.6212 -1.0658  0.2453
11066TIP3   OH254688   4.374   6.597  14.594 -0.0628 -0.1590  0.3452
11066TIP3    H154689   4.319   6.670  14.566 -0.2535 -0.7598 -0.9427
11066TIP3    H254690   4.375   6.603  14.689 -1.2879  0.6441  0.3398
11067TIP3   OH254691   2.752   2.842   3.256 -0.7382  0.4174 -0.5305
11067TIP3    H154692   2.657   2.852   3.261 -0.7101  0.0376  1.1143
11067TIP3    H254693   2.787   2.924   3.292 -0.4532  0.1269 -0.1396
11068TIP3   OH254694   1.089   6.112   4.619 -0.1157  0.2441  0.2191
11068TIP3    H154695   1.109   6.206   4.613  2.4036 -0.2077  0.3715
11068TIP3    H254696   1.055   6.101   4.707  0.6754  0.8753  0.6237
11069TIP3   OH254697   5.653   1.879  16.840  0.1478  0.0965  0.1548
11069TIP3    H154698   5.588   1.948  16.823  0.3371  0.0723 -0.7601
11069TIP3    H254699   5.605   1.813  16.890 -0.3577  0.3846  0.0679
11070TIP3   OH254700   5.896   6.218   4.779 -0.1118  0.0480  0.3255
11070TIP3    H154701   5.976   6.231   4.727 -1.1065 -1.9798 -1.8696
11070TIP3    H254702   5.927   6.217   4.869  2.1024  0.9504 -0.3423
11071TIP3   OH254703   5.567   0.985   1.444 -0.4485 -0.2437  0.5415
11071TIP3    H154704   5.579   1.079   1.427 -0.1590 -0.2815  0.5408
11071TIP3    H254705   5.625   0.942   1.382  0.2574 -0.3931  1.2961
11072TIP3   OH254706   4.394   4.573   2.036  0.3237  0.2777 -0.0159
11072TIP3    H154707   4.303   4.592   2.061  0.4850  1.1440 -0.0517
11072TIP3    H254708   4.403   4.614   1.949  0.3097 -1.1083 -0.6874
11073TIP3   OH254709   6.265   6.788   3.514  0.7234  0.4738  0.7379
11073TIP3    H154710   6.283   6.766   3.422 -2.7447 -0.8915  0.2080
11073TIP3    H254711   6.199   6.857   3.509 -3.5657 -3.0721  1.8079
11074TIP3   OH254712   6.690   4.870   1.339 -0.3402  0.2185 -0.1780
11074TIP3    H154713   6.626   4.941   1.332  1.1651  1.5289 -2.4085
11074TIP3    H254714   6.753   4.902   1.404 -0.4312  0.2532 -0.1063
11075TIP3   OH254715   1.400   5.473  15.134  0.3602  0.5666  0.5251
11075TIP3    H154716   1.334   5.513  15.077 -1.8828 -2.3272  0.8479
11075TIP3    H254717   1.387   5.515  15.219  0.3068  1.3949  0.1209
11076TIP3   OH254718   1.174   1.694   1.439  0.4355 -0.2532  0.1759
11076TIP3    H154719   1.207   1.755   1.372  0.7523 -0.0093  0.5528
11076TIP3    H254720   1.231   1.708   1.514 -0.4846  0.1279  0.8244
11077TIP3   OH254721   4.885   4.417   4.563 -0.4143 -0.4194  0.0169
11077TIP3    H154722   4.956   4.457   4.513  0.5541 -1.3227  0.6161
11077TIP3    H254723   4.823   4.489   4.578  2.5016  1.7371  3.3783
11078TIP3   OH254724   2.054   0.905   3.299 -0.2200  1.2038  0.2605
11078TIP3    H154725   2.048   0.809   3.304 -0.5350  1.1079 -1.2272
11078TIP3    H254726   2.144   0.925   3.323  1.0200  0.1537 -2.9637
11079TIP3   OH254727   4.513   2.536  16.437  0.4756  0.4759  0.9433
11079TIP3    H154728   4.584   2.585  16.476  1.0320 -0.6002  1.3289
11079TIP3    H254729   4.515   2.559  16.344  0.9053  0.9453  1.0719
11080TIP3   OH254730   6.700   0.435  14.801 -0.0811  0.8651  0.0663
11080TIP3    H154731   6.649   0.492  14.744 -0.2831  1.2363  0.6036
11080TIP3    H254732   6.779   0.485  14.820  0.7899  0.0419 -1.2571
11081TIP3   OH254733   3.304   4.131  11.026 -0.0725  0.1648  0.2125
11081TIP3    H154734   3.331   4.210  11.074  2.7790  0.7098 -1.9670
11081TIP3    H254735   3.271   4.165  10.942 -0.7362 -0.8964  0.0336
11082TIP3   OH254736   6.743   1.506   1.986  0.1154  0.5295 -0.4418
11082TIP3    H154737   6.770   1.548   2.068 -0.2021  0.0025 -0.0587
11082TIP3    H254738   6.648   1.517   1.984 -0.2864 -1.9788  0.7395
11083TIP3   OH254739   6.064   4.871   0.871  0.1910 -1.0795  0.3771
11083TIP3    H154740   6.124   4.917   0.812 -0.2153  0.3588  1.0316
11083TIP3    H254741   6.113   4.794   0.901  0.0597 -2.4505 -2.5593
11084TIP3   OH254742   0.910   5.368   0.219  0.7427  1.0281 -0.2425
11084TIP3    H154743   0.830   5.412   0.190  1.3523  1.8932 -0.6382
11084TIP3    H254744   0.888   5.334   0.306 -0.3454  0.4506 -0.7267
11085TIP3   OH254745   1.887   0.224   0.740  0.9528  0.4380 -0.1808
11085TIP3    H154746   1.831   0.151   0.714  1.1244  0.9005 -1.9612
11085TIP3    H254747   1.832   0.275   0.800 -0.2554  0.4251 -1.2230
11086TIP3   OH254748   4.749   3.436  10.906  1.0940  0.1385 -0.3758
11086TIP3    H154749   4.674   3.377  10.896  2.3107 -1.1598 -2.5940
11086TIP3    H254750   4.723   3.515  10.859  0.4720  0.3766  0.3485
11087TIP3   OH254751   5.439   2.372   4.568 -0.2146  0.1207  0.1506
11087TIP3    H154752   5.522   2.420   4.564 -1.2879  2.0655  0.2884
11087TIP3    H254753   5.418   2.368   4.662 -0.0013 -0.9052  0.1666
11088TIP3   OH254754   5.798   2.907   1.392 -0.2944  0.0948  0.2415
11088TIP3    H154755   5.875   2.939   1.438 -0.2487 -1.2219  1.1418
11088TIP3    H254756   5.803   2.946   1.305  1.3653  0.0604  0.2998
11089TIP3   OH254757   3.316   0.988  13.804 -0.2600 -0.1111  0.7592
11089TIP3    H154758   3.371   0.923  13.848 -0.1401  0.6887  1.8461
11089TIP3    H254759   3.362   1.006  13.722  0.0101 -0.9517  0.7125
11090TIP3   OH254760   3.210   3.436   6.155 -0.2088 -0.3321 -0.2179
11090TIP3    H154761   3.216   3.504   6.222 -1.6656  0.3218 -0.6989
11090TIP3    H254762   3.128   3.390   6.175 -0.0061 -0.9659 -0.8010
11091TIP3   OH254763   2.727   3.650   3.404  0.2205 -0.1917 -0.3467
11091TIP3    H154764   2.631   3.647   3.407  0.2403 -0.0097  0.9581
11091TIP3    H254765   2.755   3.596   3.478  1.1337 -0.2660 -0.7336
11092TIP3   OH254766   1.970   5.640   0.345  0.1383 -0.2920  0.5399
11092TIP3    H154767   2.008   5.642   0.433 -0.3445 -1.2607  0.7865
11092TIP3    H254768   1.904   5.571   0.349 -1.9574  1.5839  0.2205
11093TIP3   OH254769   4.734   1.651  15.776 -0.2903  0.6134  0.6691
11093TIP3    H154770   4.780   1.679  15.697  0.4823 -1.0190  0.5018
11093TIP3    H254771   4.676   1.724  15.797  0.6444  1.7421 -0.4865
11094TIP3   OH254772   2.829   5.115  11.285  0.4037  0.3117  0.0581
11094TIP3    H154773   2.826   5.128  11.190  0.0576 -1.3024 -0.1727
11094TIP3    H254774   2.791   5.195  11.321  0.0398  0.7210 -1.1770
11095TIP3   OH254775   0.756   6.292   1.408  0.4582  0.3954 -0.4404
11095TIP3    H154776   0.694   6.265   1.340  1.3785  0.4516 -1.3225
11095TIP3    H254777   0.752   6.388   1.407 -2.3109  0.4934  2.2315
11096TIP3   OH254778   0.013   2.715   2.500  0.4975 -0.0721  0.4388
11096TIP3    H154779   0.019   2.718   2.595 -0.1676 -0.6440  0.5101
11096TIP3    H254780   0.036   2.803   2.472  1.1059 -0.0127  1.0999
11097TIP3   OH254781   2.531   3.120   5.604  0.3179 -0.3301  0.1996
11097TIP3    H154782   2.507   3.067   5.527 -1.9539  0.4762  0.2721
11097TIP3    H254783   2.461   3.103   5.667  1.1473  0.4847  1.3683
11098TIP3   OH254784   4.580   6.693  13.201  0.0405 -0.2303  0.4438
11098TIP3    H154785   4.579   6.775  13.152 -1.2068  0.6688  1.9118
11098TIP3    H254786   4.536   6.713  13.283  0.0643 -2.2759  1.0089
11099TIP3   OH254787   4.143   2.557   6.242 -0.3237  0.2940  0.1001
11099TIP3    H154788   4.211   2.568   6.308  0.8415 -1.0190 -0.8300
11099TIP3    H254789   4.078   2.500   6.284  0.2362 -0.2496  0.2399
11100TIP3   OH254790   6.444   3.991  15.587 -0.2675 -0.1049  0.4605
11100TIP3    H154791   6.452   4.036  15.671  0.2814  0.7656 -0.0464
11100TIP3    H254792   6.404   3.907  15.609  0.8372 -0.3302  1.7288
11101TIP3   OH254793   4.639   4.406   5.635  0.0158 -0.1194 -0.1279
11101TIP3    H154794   4.705   4.471   5.610 -0.2244 -0.3423 -1.4663
11101TIP3    H254795   4.686   4.342   5.687  1.2182 -0.9777 -2.1418
11102TIP3   OH254796   6.379   3.412   0.052 -0.9182  0.0997  0.6373
11102TIP3    H154797   6.391   3.478   0.120 -3.9861  1.6720 -0.1701
11102TIP3    H254798   6.287   3.387   0.058 -1.1682 -0.1980 -2.4455
11103TIP3   OH254799   5.578   1.662  10.823  0.0119  0.3042  0.3482
11103TIP3    H154800   5.555   1.682  10.732 -2.5147 -0.9585  0.6393
11103TIP3    H254801   5.570   1.746  10.868  0.8608  0.8534 -0.4795
11104TIP3   OH254802   2.451   6.787  12.915  0.2569 -0.0078 -0.1868
11104TIP3    H154803   2.435   6.878  12.890 -0.3149  0.0049  0.2147
11104TIP3    H254804   2.475   6.792  13.008 -2.3532 -0.4814  0.5990
11105TIP3   OH254805   4.296   1.918   2.043  0.4817  0.1474  0.3030
11105TIP3    H154806   4.283   2.011   2.059  1.6018  0.6220 -1.3083
11105TIP3    H254807   4.213   1.887   2.008  1.6640  2.0194 -5.1446
11106TIP3   OH254808   1.308   3.732  14.913  0.0162  0.8234  0.1248
11106TIP3    H154809   1.351   3.680  14.981  0.6028 -0.2556 -1.0377
11106TIP3    H254810   1.217   3.740  14.942  0.3364  0.7158  1.2137
11107TIP3   OH254811   5.587   4.018   0.643 -0.4944 -0.0397  0.6824
11107TIP3    H154812   5.494   3.999   0.635 -0.3352 -1.3616  1.5138
11107TIP3    H254813   5.618   4.026   0.553 -1.0128 -1.8833  0.2801
11108TIP3   OH254814   2.254   2.985   4.005 -0.0033 -0.3371  0.0915
11108TIP3    H154815   2.254   2.975   3.910  1.8567  1.5200 -0.1686
11108TIP3    H254816   2.165   3.013   4.026 -0.3267 -0.3833 -1.1349
11109TIP3   OH254817   5.610   0.180  16.518  0.2936 -0.1700 -0.0313
11109TIP3    H154818   5.681   0.206  16.578  0.2837  0.9711 -0.5027
11109TIP3    H254819   5.537   0.158  16.576  1.0771 -1.6244  0.4816
11110TIP3   OH254820   6.194   1.399   0.602 -0.2624  0.1919 -0.1013
11110TIP3    H154821   6.129   1.422   0.535  0.6553  1.7250 -0.5335
11110TIP3    H254822   6.274   1.380   0.552  0.1582  0.3291  0.4998
11111TIP3   OH254823   3.376   2.547  13.405 -0.0760  0.4338 -0.0203
11111TIP3    H154824   3.298   2.492  13.412  0.8282 -1.0149 -0.7518
11111TIP3    H254825   3.343   2.632  13.376 -1.4396  0.0498  0.3431
11112TIP3   OH254826   6.086   4.915   1.155  0.0727 -0.2720  0.1373
11112TIP3    H154827   6.103   4.931   1.062  2.9059  0.2757  0.6603
11112TIP3    H254828   6.053   4.999   1.187  1.6581  0.4114  0.0986
11113TIP3   OH254829   0.947   2.028   0.139  0.4536 -0.0696 -0.1685
11113TIP3    H154830   0.992   2.090   0.080  0.3495 -1.2138 -1.5021
11113TIP3    H254831   1.014   2.003   0.202  0.9419  0.2370 -0.5519
11114TIP3   OH254832   1.742   3.586  11.847  0.5169  0.1524  0.0872
11114TIP3    H154833   1.826   3.589  11.892  1.2767 -0.1878 -1.2349
11114TIP3    H254834   1.764   3.598  11.754 -0.9395  0.5498 -0.2458
11115TIP3   OH254835   6.288   6.156  12.743 -0.2744  0.5813  0.2788
11115TIP3    H154836   6.279   6.250  12.734  0.5977  0.5227 -1.7119
11115TIP3    H254837   6.313   6.125  12.656 -0.5813 -1.5004  0.8605
11116TIP3   OH254838   5.536   4.561   5.820  1.0165 -0.2350 -0.1009
11116TIP3    H154839   5.530   4.602   5.906 -2.8516 -0.3436 -0.1386
11116TIP3    H254840   5.519   4.468   5.837  0.0181 -0.2265 -0.9650
11117TIP3   OH254841   3.444   6.698  12.559 -0.4115 -0.4230 -0.1613
11117TIP3    H154842   3.496   6.650  12.623 -1.1039 -1.2052 -0.1627
11117TIP3    H254843   3.355   6.664  12.570 -0.3781 -1.3826 -2.2314
11118TIP3   OH254844   2.611   2.389   2.005 -0.5191 -0.2913  0.1314
11118TIP3    H154845   2.577   2.386   1.916 -0.6079 -0.7930  0.1826
11118TIP3    H254846   2.540   2.356   2.060  0.1000 -1.4965  0.2219
11119TIP3   OH254847   5.256   3.096  13.496  0.5005 -0.5397  0.1079
11119TIP3    H154848   5.250   3.031  13.567 -3.7036 -0.3875  0.1390
11119TIP3    H254849   5.251   3.044  13.416 -0.4850 -0.4066  0.0784
11120TIP3   OH254850   6.328   4.914   2.222 -0.1076 -0.2867  0.0931
11120TIP3    H154851   6.370   4.983   2.274 -0.8173 -0.2814  0.6684
11120TIP3    H254852   6.236   4.939   2.219 -0.6651 -1.9486  1.5530
11121TIP3   OH254853   0.991   3.329  15.416  0.0730  0.2604  0.3166
11121TIP3    H154854   0.902   3.301  15.392  0.0145  2.5390 -2.7234
11121TIP3    H254855   1.000   3.303  15.507 -2.6815 -2.4897 -0.0144
11122TIP3   OH254856   3.669   5.096  15.293  0.4883 -0.2989  0.2705
11122TIP3    H154857   3.682   5.138  15.378  0.1082 -1.6223  1.0198
11122TIP3    H254858   3.574   5.083  15.287  0.3882  0.7771 -0.8794
11123TIP3   OH254859   5.195   6.061   1.985  0.5170 -0.5596  0.1621
11123TIP3    H154860   5.143   6.135   1.956  1.1133 -1.2096 -2.9464
11123TIP3    H254861   5.285   6.094   1.987  0.4898 -0.4838  1.6751
11124TIP3   OH254862   3.109   0.392  11.659 -0.3614  0.4459  0.0267
11124TIP3    H154863   3.071   0.476  11.684 -1.3079 -0.0992  0.4430
11124TIP3    H254864   3.035   0.340  11.627  0.5557  0.6265 -2.6808
11125TIP3   OH254865   2.399   4.955   0.877  0.6781 -0.0152 -0.1838
11125TIP3    H154866   2.397   4.865   0.846  1.0928 -0.4873  1.1420
11125TIP3    H254867   2.492   4.973   0.893  0.4691  0.1948  0.8358
11126TIP3   OH254868   5.269   4.634   4.031  0.5738  0.0605  0.5015
11126TIP3    H154869   5.205   4.641   3.960 -0.9692 -1.3086  1.6656
11126TIP3    H254870   5.314   4.552   4.015 -1.4664 -1.5389  2.2886
11127TIP3   OH254871   0.132   3.038  14.525 -0.2401 -0.2770 -0.1179
11127TIP3    H154872   0.054   2.996  14.562  0.9236 -2.0390  0.4619
11127TIP3    H254873   0.113   3.132  14.531 -0.6382 -0.4314  4.0226
11128TIP3   OH254874   3.763   3.695  11.007 -0.1404  0.5337  0.6633
11128TIP3    H154875   3.677   3.657  10.988  0.5366 -1.4129  1.2576
11128TIP3    H254876   3.807   3.700  10.922 -0.5476  0.7989  0.4661
11129TIP3   OH254877   5.459   1.328   6.167 -0.5824 -0.5542  0.0035
11129TIP3    H154878   5.406   1.397   6.206  1.0071  0.3913  0.5811
11129TIP3    H254879   5.435   1.329   6.074 -0.5532  0.8407 -0.0113
11130TIP3   OH254880   3.959   5.056  14.337 -1.0818 -0.2422  0.3604
11130TIP3    H154881   3.915   4.972  14.326  0.4455 -1.1258  0.7268
11130TIP3    H254882   4.005   5.049  14.420 -2.4984  1.7225  1.4127
11131TIP3   OH254883   5.581   0.778   0.302 -0.3185 -0.4136  0.3318
11131TIP3    H154884   5.607   0.841   0.236  0.0881 -2.4712 -1.5899
11131TIP3    H254885   5.662   0.732   0.325 -1.0073 -2.1492 -0.5081
11132TIP3   OH254886   2.694   0.045  11.411  0.0017  0.3340  0.2521
11132TIP3    H154887   2.659   0.007  11.492  3.1579 -2.3786  0.5281
11132TIP3    H254888   2.788   0.054  11.427  0.5235  0.9363 -2.6734
11133TIP3   OH254889   5.891   2.878  16.714  0.2709  0.0219 -0.4242
11133TIP3    H154890   5.907   2.886  16.620  0.7181  2.2031 -0.2189
11133TIP3    H254891   5.797   2.861  16.721  0.4893 -1.7178 -1.2821
11134TIP3   OH254892   3.653   5.605   0.332 -0.3886  0.4381 -0.0718
11134TIP3    H154893   3.615   5.690   0.307 -0.9343  0.4929  0.9091
11134TIP3    H254894   3.747   5.621   0.334 -0.5152  1.1411  0.5362
11135TIP3   OH254895   2.859   5.011  13.762 -0.3391  0.6240  0.0524
11135TIP3    H154896   2.920   5.084  13.748 -0.7459  1.1409  0.8970
11135TIP3    H254897   2.776   5.054  13.783 -1.1160 -0.0571 -1.4318
11136TIP3   OH254898   5.565   5.964  11.458  0.4228  0.5418  0.0970
11136TIP3    H154899   5.593   5.966  11.549 -0.5076  0.1144  0.4057
11136TIP3    H254900   5.473   5.936  11.462  0.9265 -1.4437 -1.0834
11137TIP3   OH254901   2.090   6.006  16.454 -0.0406 -0.5453  0.5742
11137TIP3    H154902   2.078   6.068  16.382  1.9299 -0.8195 -0.0553
11137TIP3    H254903   2.185   6.003  16.468 -0.1339 -2.7305  1.1827
11138TIP3   OH254904   6.047   5.551   3.214 -0.0936  0.3285 -0.0990
11138TIP3    H154905   6.057   5.603   3.294 -0.3217 -1.9777  1.5529
11138TIP3    H254906   6.130   5.561   3.168  0.7977  0.2453  1.4079
11139TIP3   OH254907   5.517   1.783   1.277 -0.1133 -0.3618  0.0744
11139TIP3    H154908   5.522   1.878   1.265  0.9305 -0.4102  0.0481
11139TIP3    H254909   5.510   1.771   1.372  1.0475 -0.2841  0.1882
11140TIP3   OH254910   0.832   0.588  16.440  0.1895  0.3124  0.2818
11140TIP3    H154911   0.820   0.557  16.350 -0.6275 -2.0673  1.1289
11140TIP3    H254912   0.878   0.516  16.483  0.6516  1.4598  1.7537
11141TIP3   OH254913   0.095   1.739  13.132 -0.3251 -0.5329 -0.1498
11141TIP3    H154914   0.001   1.732  13.145 -0.2783  0.4208  0.8102
11141TIP3    H254915   0.106   1.814  13.072 -0.1960 -1.0331 -0.7704
11142TIP3   OH254916   1.769   2.679   0.474  0.6773  0.0122  0.3312
11142TIP3    H154917   1.766   2.734   0.552 -0.3555 -0.7137  0.8252
11142TIP3    H254918   1.677   2.664   0.452  0.9504 -0.9394 -0.1975
11143TIP3   OH254919   0.371   4.471  15.039  0.1466  0.3718 -0.5922
11143TIP3    H154920   0.347   4.413  14.968 -0.1984 -0.0118 -0.1631
11143TIP3    H254921   0.467   4.469  15.040  0.1553  0.4326 -1.0841
11144TIP3   OH254922   3.144   5.236   3.659  0.1037  0.1411 -0.1054
11144TIP3    H154923   3.185   5.229   3.573 -0.4779 -0.3514 -0.3439
11144TIP3    H254924   3.218   5.242   3.720  0.5134  1.2489 -0.6915
11145TIP3   OH254925   5.504   3.437  14.386  0.1679 -0.3060  0.3837
11145TIP3    H154926   5.463   3.424  14.301 -0.7654 -1.6401  1.0013
11145TIP3    H254927   5.431   3.452  14.446  0.7932  0.3657  0.9969
11146TIP3   OH254928   3.547   2.203   1.182  0.2184 -0.5801  0.2912
11146TIP3    H154929   3.618   2.161   1.133  1.5024  0.6013  1.0452
11146TIP3    H254930   3.514   2.271   1.124  0.2700 -0.5974  0.2412
11147TIP3   OH254931   1.175   1.767  12.645  0.0863 -0.3255  0.7297
11147TIP3    H154932   1.142   1.776  12.556  4.0205 -0.6160 -0.9880
11147TIP3    H254933   1.136   1.686  12.678 -2.5890  0.5489 -0.0297
11148TIP3   OH254934   0.784   3.570  12.806  0.4301  0.0755  0.2140
11148TIP3    H154935   0.830   3.614  12.735 -0.3221  1.7451  0.7115
11148TIP3    H254936   0.693   3.598  12.797  0.4201  0.8240  2.1677
11149TIP3   OH254937   4.757   3.671   4.584  0.2800 -0.3561 -0.1832
11149TIP3    H154938   4.835   3.618   4.596 -1.4722 -3.7701 -2.2759
11149TIP3    H254939   4.750   3.684   4.489 -1.3612  0.3680 -0.0066
11150TIP3   OH254940   0.685   1.139  13.102  0.2172  0.3743  0.5379
11150TIP3    H154941   0.595   1.156  13.127 -0.5565 -0.9002 -1.1759
11150TIP3    H254942   0.724   1.226  13.090 -1.0326  0.9335  0.4648
11151TIP3   OH254943   1.601   2.957  12.134  0.4410  0.3674 -0.0961
11151TIP3    H154944   1.611   2.962  12.039  0.8596 -0.5809 -0.1191
11151TIP3    H254945   1.687   2.928  12.165 -0.6883 -3.1033  0.1943
11152TIP3   OH254946   1.545   0.707  15.960  0.7416  0.3223 -0.2797
11152TIP3    H154947   1.607   0.771  15.995 -0.9183  0.5027  2.6831
11152TIP3    H254948   1.587   0.622  15.973  1.1554  0.5498 -0.1427
11153TIP3   OH254949   4.142   5.926  11.065 -0.5709  0.4470 -0.2202
11153TIP3    H154950   4.146   5.972  10.981 -1.5533 -0.0495 -0.5454
11153TIP3    H254951   4.057   5.883  11.065 -0.7791  0.8306  1.2456
11154TIP3   OH254952   6.596   4.956  16.767 -0.1263 -0.1844 -0.0512
11154TIP3    H154953   6.627   5.008  16.841  1.0072 -3.0858  1.7264
11154TIP3    H254954   6.676   4.924  16.725 -0.7429 -0.7264 -0.8362
11155TIP3   OH254955   0.219   4.166  15.908  0.2221 -0.4013 -0.3411
11155TIP3    H154956   0.291   4.216  15.945 -0.2958 -0.3340  0.5970
11155TIP3    H254957   0.166   4.231  15.861  0.2248 -0.2774 -0.1729
11156TIP3   OH254958   6.465   6.112  12.959 -0.6663 -0.1475  0.4672
11156TIP3    H154959   6.520   6.034  12.949 -0.2856  0.2106 -0.2948
11156TIP3    H254960   6.432   6.130  12.871  1.9092  2.4625 -0.1275
11157TIP3   OH254961   6.479   4.957  17.114  0.2831 -0.5095  0.0746
11157TIP3    H154962   6.449   5.042  17.148  2.1872  0.6225 -0.9000
11157TIP3    H254963   6.437   4.893  17.171 -1.4574  1.0551  0.6689
11158TIP3   OH254964   6.485   1.551  15.485  0.5244  0.0141 -0.1783
11158TIP3    H154965   6.479   1.620  15.420  2.5151 -0.9287 -1.4629
11158TIP3    H254966   6.394   1.524  15.500 -0.0032 -0.7513 -3.7630
11159TIP3   OH254967   3.701   0.737   0.300 -0.0217 -0.3191 -0.3120
11159TIP3    H154968   3.736   0.682   0.231 -1.1964 -1.8181  0.2425
11159TIP3    H254969   3.613   0.759   0.271 -0.0498  0.1487  0.1063
11160TIP3   OH254970   1.847   0.393  11.458 -0.1206  0.5826 -0.6186
11160TIP3    H154971   1.877   0.429  11.375  1.5385 -1.7503 -1.1217
11160TIP3    H254972   1.894   0.444  11.524  2.3675 -0.6424 -1.3215
11161TIP3   OH254973   0.815   4.295   4.129 -0.3178 -0.4328  0.4051
11161TIP3    H154974   0.829   4.216   4.078 -1.5509  0.9714 -2.3575
11161TIP3    H254975   0.891   4.350   4.110 -2.1770  1.3361 -2.6735
11162TIP3   OH254976   4.901   1.523   5.702  0.5885 -0.0881  0.5542
11162TIP3    H154977   4.982   1.502   5.748  0.2297 -0.7576  0.8912
11162TIP3    H254978   4.900   1.462   5.628 -0.1065 -0.8068  1.1346
11163TIP3   OH254979   1.647   5.091  12.507 -0.1147  0.6038 -0.5903
11163TIP3    H154980   1.596   5.035  12.564  1.6511  0.7543  1.2366
11163TIP3    H254981   1.591   5.167  12.492 -1.1847 -0.1023 -0.2873
11164TIP3   OH254982   1.471   1.422   4.692 -0.2498 -0.1763  0.1394
11164TIP3    H154983   1.457   1.515   4.712 -0.5887 -0.3460  0.7189
11164TIP3    H254984   1.550   1.421   4.638 -0.2430  0.4497  0.1268
11165TIP3   OH254985   4.488   4.504  12.553  0.4688  0.0090 -0.3232
11165TIP3    H154986   4.484   4.446  12.629  0.2559  0.9592  0.4038
11165TIP3    H254987   4.488   4.592  12.590 -0.6074  0.5112 -1.4471
11166TIP3   OH254988   0.092   4.528   4.183 -0.1658  0.4122 -0.0643
11166TIP3    H154989   0.105   4.440   4.220  0.2357 -0.5605 -2.3937
11166TIP3    H254990  -0.003   4.538   4.179 -0.3968 -1.5636 -3.2053
11167TIP3   OH254991   1.557   3.832   3.435  0.2616 -0.6536 -0.2286
11167TIP3    H154992   1.514   3.907   3.475 -0.8430 -0.8470 -0.9952
11167TIP3    H254993   1.561   3.766   3.504  0.2443 -0.2836  0.1311
11168TIP3   OH254994   4.001   4.849  12.816 -0.2724 -0.0738  0.1140
11168TIP3    H154995   3.991   4.757  12.841  0.0190  0.2954  1.7199
11168TIP3    H254996   3.914   4.878  12.792 -0.0060 -1.3793 -2.8379
11169TIP3   OH254997   6.525   1.982   1.332  0.3050 -0.0975  0.1922
11169TIP3    H154998   6.438   2.021   1.338  0.3411  0.7596 -2.9594
11169TIP3    H254999   6.515   1.911   1.268  1.8996  0.0508 -0.2757
11170TIP3   OH255000   5.821   3.458  13.622  0.7518  0.3008  0.6942
11170TIP3    H155001   5.733   3.496  13.624 -0.5669 -2.3382 -1.1897
11170TIP3    H255002   5.834   3.423  13.710  0.1743  1.1989  1.1529
11171TIP3   OH255003   3.352   5.634   4.385  0.2227 -0.4140 -0.4499
11171TIP3    H155004   3.312   5.701   4.440 -0.7538 -0.3442 -1.2172
11171TIP3    H255005   3.359   5.557   4.441  0.4897  0.0458  0.1575
11172TIP3   OH255006   2.440   0.232  11.139  0.2390  0.4245  0.1842
11172TIP3    H155007   2.357   0.246  11.095 -0.5288  2.3095  2.0650
11172TIP3    H255008   2.489   0.175  11.080 -1.9830  0.0581 -1.4344
11173TIP3   OH255009   2.725   3.752  12.245  0.6214  0.3628 -0.2138
11173TIP3    H155010   2.738   3.828  12.302  0.3000  0.0260  0.3191
11173TIP3    H255011   2.809   3.707  12.246  0.5893  0.3080  0.0728
11174TIP3   OH255012   6.121   6.022  15.252  0.0605 -0.0973 -0.5024
11174TIP3    H155013   6.044   6.024  15.308  0.2719  0.8142 -0.2144
11174TIP3    H255014   6.107   5.949  15.192 -0.8778 -0.1310 -0.2435
11175TIP3   OH255015   6.063   1.125  17.086  0.4918  0.1367 -0.1298
11175TIP3    H155016   6.048   1.035  17.115 -4.4435  0.6650 -0.1628
11175TIP3    H255017   6.060   1.176  17.167 -1.2622  0.5489 -0.4037
11176TIP3   OH255018   1.892   0.979  11.947 -0.0517 -0.1015 -0.1638
11176TIP3    H155019   1.851   1.033  12.014  0.7330  1.4375 -0.8664
11176TIP3    H255020   1.974   0.949  11.988 -1.3783 -2.4884  0.9391
11177TIP3   OH255021   3.690   2.900  13.017 -0.3344  0.9920  0.6531
11177TIP3    H155022   3.742   2.871  13.092 -1.9127 -0.6145  1.1874
11177TIP3    H255023   3.733   2.981  12.988  1.5334  0.5404  1.9771
11178TIP3   OH255024   1.579   2.686   1.623 -0.0223  0.5793 -0.4165
11178TIP3    H155025   1.594   2.745   1.549  2.2160  0.2195 -0.3125
11178TIP3    H255026   1.665   2.673   1.662 -0.6753 -1.6173  0.4642
11179TIP3   OH255027   3.144   3.817   4.218  0.2069  0.2524  0.0325
11179TIP3    H155028   3.109   3.867   4.144 -0.0727  0.2796  0.1844
11179TIP3    H255029   3.067   3.788   4.266  0.3996  1.0676  0.8664
11180TIP3   OH255030   2.717   4.693  12.825  0.6718  0.3468 -0.4625
11180TIP3    H155031   2.727   4.788  12.823  0.0383  0.4518  0.4842
11180TIP3    H255032   2.630   4.677  12.789 -0.1228  0.3194  1.3698
11181TIP3   OH255033   3.560   3.541   3.160 -0.5603  0.4818  0.1603
11181TIP3    H155034   3.612   3.588   3.225 -0.8410  1.9690 -0.6625
11181TIP3    H255035   3.619   3.529   3.086 -0.6949  0.1091  0.1093
11182TIP3   OH255036   2.823   4.096   4.553  0.4233  0.1557  0.0549
11182TIP3    H155037   2.893   4.140   4.505  0.4043  0.2932  0.1547
11182TIP3    H255038   2.743   4.121   4.506  0.4792 -0.3395 -0.3141
11183TIP3   OH255039   3.841   1.595  14.305  0.5410 -0.1232  0.1251
11183TIP3    H155040   3.754   1.597  14.344  0.7279  1.5329  0.5272
11183TIP3    H255041   3.893   1.541  14.364  0.4522  1.1606  1.4490
11184TIP3   OH255042   6.284   0.863   2.328 -0.0187 -0.1797 -0.0213
11184TIP3    H155043   6.199   0.827   2.353  0.0811  0.0229  0.6077
11184TIP3    H255044   6.264   0.931   2.264 -0.3013 -0.3443 -0.1107
11185TIP3   OH255045   4.844   0.465  16.767 -0.3939  0.2209  0.2361
11185TIP3    H155046   4.926   0.514  16.766  0.8270 -1.7023 -1.1501
11185TIP3    H255047   4.828   0.446  16.860  0.6315  0.7758  0.5384
11186TIP3   OH255048   0.241   4.624  16.814  0.4810  0.0551  0.0037
11186TIP3    H155049   0.331   4.639  16.843  0.1264  1.4273  0.5187
11186TIP3    H255050   0.246   4.623  16.719  1.2979 -1.8976  0.0221
11187TIP3   OH255051   3.280   4.389  13.007  0.1075  0.1773  0.1318
11187TIP3    H155052   3.191   4.356  12.992 -0.1062  0.9787 -0.4362
11187TIP3    H255053   3.274   4.483  12.989  1.5661 -0.0823 -2.1978
11188TIP3   OH255054   0.960   2.854   3.195  0.0952  0.0531  0.2340
11188TIP3    H155055   1.011   2.912   3.251 -0.2885  0.5743  0.0530
11188TIP3    H255056   0.941   2.778   3.249  1.3817 -0.3140  0.1883
11189TIP3   OH255057   4.779   5.845  13.934 -0.3912 -0.4951  0.0171
11189TIP3    H155058   4.749   5.803  14.014 -0.4350 -2.6936 -1.0785
11189TIP3    H255059   4.861   5.888  13.959  0.5143 -2.5868  0.9172
11190TIP3   OH255060   6.796   6.431  15.320 -0.8561  0.8085  0.6448
11190TIP3    H155061   6.775   6.369  15.251 -2.4254  1.1380  0.7948
11190TIP3    H255062   6.794   6.517  15.277  1.7661  0.8012  0.3279
11191TIP3   OH255063   4.927   4.444   2.165  0.3785  0.6816  1.2191
11191TIP3    H155064   4.884   4.378   2.219  2.1474 -0.5795  1.1629
11191TIP3    H255065   4.882   4.438   2.081  1.3050 -1.3809  0.8137
11192TIP3   OH255066   3.186   1.936   2.771 -0.1046  0.3186  0.6133
11192TIP3    H155067   3.238   2.010   2.738  1.5284 -1.0963 -0.1212
11192TIP3    H255068   3.249   1.884   2.821 -0.7938 -1.4817 -0.3295
11193TIP3   OH255069   2.093   3.000   0.844 -0.0319  0.2235 -0.2004
11193TIP3    H155070   2.048   3.076   0.807  2.0773  0.5500 -2.2777
11193TIP3    H255071   2.185   3.025   0.846  0.3605 -1.1161  2.1551
11194TIP3   OH255072   2.251   6.646  14.118  0.1666  0.8650 -0.5362
11194TIP3    H155073   2.312   6.605  14.178  0.0506  2.2188  0.5579
11194TIP3    H255074   2.305   6.705  14.065  0.4385 -1.0439 -2.5316
11195TIP3   OH255075   5.785   1.784  16.637  0.7066 -0.6092 -0.1377
11195TIP3    H155076   5.738   1.817  16.714 -0.3439  0.6339 -1.2613
11195TIP3    H255077   5.877   1.804  16.655  0.4567 -0.1386  0.6947
11196TIP3   OH255078   4.143   3.317   4.189 -0.7848  0.1429 -0.2471
11196TIP3    H155079   4.101   3.232   4.201  0.0319 -0.3474 -0.7544
11196TIP3    H255080   4.197   3.306   4.111 -1.2561  1.3694 -0.7722
11197TIP3   OH255081   2.777   4.959   2.196  0.4857  0.2583  0.3228
11197TIP3    H155082   2.806   4.941   2.107  1.6676  0.3125  0.6762
11197TIP3    H255083   2.757   5.052   2.197  2.6245  0.7623  0.6489
11198TIP3   OH255084   3.159   0.020  13.697  0.5466 -0.3412  0.6212
11198TIP3    H155085   3.182   0.039  13.606  1.2755  0.0015  0.8705
11198TIP3    H255086   3.167  -0.075  13.705  0.3936 -0.3813  0.3041
11199TIP3   OH255087   4.857   5.576   3.659  0.3794 -0.4119 -0.0086
11199TIP3    H155088   4.841   5.510   3.728 -0.3590 -0.8915 -0.6166
11199TIP3    H255089   4.950   5.598   3.668  0.4913 -1.0804  0.6040
11200TIP3   OH255090   4.860   2.474  12.674 -0.3876 -0.1793 -0.4779
11200TIP3    H155091   4.886   2.515  12.591 -2.1043  0.6982 -0.6268
11200TIP3    H255092   4.916   2.396  12.680  0.3379  0.1648 -2.0513
11201TIP3   OH255093   3.867   0.753  15.805 -0.5901  0.0866 -0.5439
11201TIP3    H155094   3.945   0.737  15.858 -0.6886 -0.6021 -0.6039
11201TIP3    H255095   3.878   0.697  15.728 -0.7452  0.6178 -0.9663
11202TIP3   OH255096   5.082   2.224  14.175  0.2861  0.0492 -0.3490
11202TIP3    H155097   5.156   2.190  14.225 -0.3390  1.5274  1.7018
11202TIP3    H255098   5.093   2.319  14.177 -1.6446  0.3116  0.0478
11203TIP3   OH255099   3.161   6.818   0.446 -0.1683 -0.4789  0.3958
11203TIP3    H155100   3.246   6.856   0.469 -0.5924  0.8142 -0.0381
11203TIP3    H255101   3.116   6.809   0.530 -0.4856  1.1181  0.4319
11204TIP3   OH255102   1.483   1.403   1.659 -0.3935  0.6572  0.7776
11204TIP3    H155103   1.550   1.336   1.650 -1.6458 -0.3800 -1.6742
11204TIP3    H255104   1.459   1.402   1.751  0.6769 -1.1979  1.0651
11205TIP3   OH255105   2.400   5.391  16.372 -0.0623 -0.5938  0.4312
11205TIP3    H155106   2.371   5.472  16.415 -2.3709 -0.7639 -0.6187
11205TIP3    H255107   2.495   5.399  16.368 -0.1477  1.6838  1.0905
11206TIP3   OH255108   3.704   4.992   0.295 -0.5400  0.2094  0.0250
11206TIP3    H155109   3.703   5.067   0.355 -1.7925 -0.4908  0.9390
11206TIP3    H255110   3.684   5.030   0.209 -0.0395  1.0548  0.2702
11207TIP3   OH255111   3.260   3.253   2.376  0.2171 -0.3738 -0.2318
11207TIP3    H155112   3.297   3.313   2.440  0.0540  0.8432 -1.2318
11207TIP3    H255113   3.174   3.289   2.355  0.8039  0.0609 -2.1146
11208TIP3   OH255114   2.996   0.204   5.109 -0.4060 -0.7927  0.6343
11208TIP3    H155115   3.023   0.176   5.196 -0.7681  1.9964  1.7202
11208TIP3    H255116   2.908   0.166   5.098 -1.7319  1.3548  2.8908
11209TIP3   OH255117   5.934   1.766   2.031 -0.1390  0.5829  0.3168
11209TIP3    H155118   5.955   1.841   1.975 -1.3785  1.2863  0.7553
11209TIP3    H255119   5.910   1.696   1.970 -1.7285  1.4163 -0.0797
11210TIP3   OH255120   1.593   4.112   5.613 -0.1485  0.0431  0.4777
11210TIP3    H155121   1.688   4.118   5.618 -0.0579 -1.6606  1.5744
11210TIP3    H255122   1.564   4.110   5.704 -1.1262 -0.6248  0.1675
11211TIP3   OH255123   4.316   4.081   5.360 -0.1796  0.1875  0.0573
11211TIP3    H155124   4.318   4.143   5.286 -0.3356  1.1390  0.8251
11211TIP3    H255125   4.354   4.131   5.433  0.9171 -1.0736  0.3802
11212TIP3   OH255126   3.321   2.894   0.918  0.0703 -0.3833 -0.3471
11212TIP3    H155127   3.245   2.864   0.968  1.7080 -2.0053  1.3163
11212TIP3    H255128   3.348   2.975   0.961 -0.6995  0.2449 -0.9957
11213TIP3   OH255129   2.887   1.280  16.164 -0.0900  0.3732  0.0531
11213TIP3    H155130   2.852   1.333  16.092  1.2365  0.0495 -0.8739
11213TIP3    H255131   2.872   1.189  16.136 -0.2844  0.2488  0.5583
11214TIP3   OH255132   3.856   3.818   2.869  0.0127 -0.3041  0.0123
11214TIP3    H155133   3.786   3.876   2.897  0.6304 -0.2944  1.6022
11214TIP3    H255134   3.812   3.754   2.812 -0.4988  2.2583 -2.7357
11215TIP3   OH255135   1.004   3.819  14.963  0.1738  0.0271 -0.1550
11215TIP3    H155136   0.954   3.899  14.948  0.3466  0.0188 -0.8167
11215TIP3    H255137   0.977   3.760  14.892 -2.0101 -1.5521  1.8274
11216TIP3   OH255138   3.167   1.821   0.263 -0.3096 -0.2954  0.7891
11216TIP3    H155139   3.155   1.812   0.169 -2.7527  1.1149  0.8921
11216TIP3    H255140   3.126   1.743   0.300 -1.3197  0.2106  0.7561
11217TIP3   OH255141   0.763   6.659   4.253  0.2591 -0.4291  0.6155
11217TIP3    H155142   0.826   6.588   4.242 -0.8159 -1.2705 -0.3924
11217TIP3    H255143   0.797   6.711   4.326  0.5783 -2.5518  2.0619
11218TIP3   OH255144   1.063   6.470   6.170 -0.4640 -0.6289 -0.1472
11218TIP3    H155145   1.109   6.516   6.240 -1.8892 -0.0571  0.4493
11218TIP3    H255146   1.126   6.468   6.098  0.2150  0.8238  0.3576
11219TIP3   OH255147   1.163   0.037  16.303  0.2330 -0.3458  0.0361
11219TIP3    H155148   1.095   0.095  16.270  0.2979  1.0114  2.0950
11219TIP3    H255149   1.120  -0.017  16.368  0.2126 -2.6430 -1.7376
11220TIP3   OH255150   5.040   2.443   5.646  0.2384 -0.1880 -0.2498
11220TIP3    H155151   5.079   2.518   5.692  0.2530 -0.3399 -0.0171
11220TIP3    H255152   4.958   2.477   5.610  0.4994  0.0875 -0.5977
11221TIP3   OH255153   5.194   6.656  15.214  0.2461  0.2246  0.6488
11221TIP3    H155154   5.185   6.737  15.264  1.1678  0.2410  0.8035
11221TIP3    H255155   5.158   6.677  15.127  0.9972  0.9709  0.5100
11222TIP3   OH255156   3.861   0.392   4.496 -0.2400 -0.2106 -0.0511
11222TIP3    H155157   3.805   0.417   4.423  0.0406  1.8147  0.3702
11222TIP3    H255158   3.809   0.414   4.574  0.3740 -0.1683  0.3515
11223TIP3   OH255159   1.783   4.246   3.859  0.1201  0.1928 -0.3356
11223TIP3    H155160   1.743   4.303   3.793 -1.1007 -0.7330 -0.4346
11223TIP3    H255161   1.733   4.164   3.854  0.1928 -0.0163  1.5348
11224TIP3   OH255162   2.830   4.118  13.487 -0.6384 -0.5166 -0.4525
11224TIP3    H155163   2.765   4.060  13.526 -2.0353  2.2761  1.7930
11224TIP3    H255164   2.907   4.107  13.542 -0.9480 -0.1784  0.0607
11225TIP3   OH255165   4.969   1.514   3.961  0.2325 -0.3221  0.0617
11225TIP3    H155166   5.019   1.463   3.898 -1.2813 -1.0966 -0.5703
11225TIP3    H255167   5.027   1.586   3.985  1.1330 -0.4108 -1.6673
11226TIP3   OH255168   6.644   0.663   2.440 -0.4729 -1.1799 -0.1079
11226TIP3    H155169   6.674   0.577   2.409  0.4965 -0.4620 -1.2714
11226TIP3    H255170   6.624   0.711   2.360 -1.8988 -0.6189  0.5676
11227TIP3   OH255171   2.478   3.292  12.403 -0.0997 -0.1219 -0.2736
11227TIP3    H155172   2.474   3.305  12.497  0.6897 -0.2801 -0.2114
11227TIP3    H255173   2.391   3.317  12.371 -0.5679 -0.6708  0.5615
11228TIP3   OH255174   3.761   6.080  15.765 -0.7212  0.2515 -0.1332
11228TIP3    H155175   3.737   5.994  15.730  2.2981 -0.9324  0.4267
11228TIP3    H255176   3.786   6.062  15.856  0.7853  1.5559 -0.2565
11229TIP3   OH255177   2.519   0.714   5.574 -0.0038  0.2560 -0.1677
11229TIP3    H155178   2.586   0.662   5.529 -0.0202 -0.0983  0.2126
11229TIP3    H255179   2.447   0.653   5.589  0.4439  0.0477  1.3500
11230TIP3   OH255180   6.815   5.548  15.222 -0.0473 -0.3174 -0.4579
11230TIP3    H155181   6.833   5.590  15.306 -0.4092  0.1755 -0.6229
11230TIP3    H255182   6.724   5.568  15.203  0.5964  1.4685 -2.0001
11231TIP3   OH255183   1.232   0.494   3.828  0.4627 -0.4006  0.4137
11231TIP3    H155184   1.173   0.569   3.828 -0.6774 -1.2623  0.2577
11231TIP3    H255185   1.317   0.530   3.803 -0.0193  0.8488  0.4906
11232TIP3   OH255186   3.811   5.494  13.071  0.1241 -0.2363  0.2867
11232TIP3    H155187   3.888   5.448  13.037 -1.2941 -1.2234 -1.8619
11232TIP3    H255188   3.827   5.586  13.051 -0.5101 -0.7370 -3.1266
11233TIP3   OH255189   2.879   3.153   4.202  0.0805 -0.3386  0.2482
11233TIP3    H155190   2.855   3.130   4.113  0.0342  0.6043  0.0120
11233TIP3    H255191   2.813   3.111   4.257  0.5578 -1.5966 -0.0840
11234TIP3   OH255192   4.549   3.122   0.567  0.1468  0.1185  0.1801
11234TIP3    H155193   4.558   3.032   0.537 -1.6746 -0.0327 -0.0073
11234TIP3    H255194   4.579   3.120   0.658 -1.8483 -1.1840  0.8773
11235TIP3   OH255195   0.601   0.708   1.388  0.2476  0.0951  0.2377
11235TIP3    H155196   0.679   0.763   1.385 -1.4547  2.7085 -0.0298
11235TIP3    H255197   0.586   0.692   1.481  1.5929 -1.2813  0.2490
11236TIP3   OH255198   3.727   4.022   2.082  0.0922 -0.5089  0.4872
11236TIP3    H155199   3.725   4.015   1.987  1.1445 -2.3695  0.5531
11236TIP3    H255200   3.659   4.085   2.103  0.8525  1.1099 -1.5753
11237TIP3   OH255201   4.588   2.077  10.065  0.3242 -0.3458 -0.2385
11237TIP3    H155202   4.530   2.064  10.141  0.8913  1.6686  0.6010
11237TIP3    H255203   4.602   2.171  10.061  1.0641 -0.4926 -2.3291
11238TIP3   OH255204   1.914   5.050   2.431 -0.1383 -0.2707 -0.6210
11238TIP3    H155205   1.833   5.023   2.389 -1.1854  1.2395  0.3100
11238TIP3    H255206   1.895   5.137   2.466  1.7724 -0.0320 -0.0452
11239TIP3   OH255207   3.490   6.763   5.862 -0.2393  0.0885 -0.4882
11239TIP3    H155208   3.436   6.813   5.801 -1.4653 -1.5709 -0.8629
11239TIP3    H255209   3.553   6.717   5.806  1.0497  1.3634 -0.1263
11240TIP3   OH255210   4.021   5.411  14.839 -0.3955 -0.5170 -0.2686
11240TIP3    H155211   4.055   5.332  14.795  0.5156 -0.6496  0.6397
11240TIP3    H255212   4.043   5.398  14.931  2.0298  1.8815 -0.3865
11241TIP3   OH255213   5.971   1.478   0.838 -0.3744 -0.0655 -0.0948
11241TIP3    H155214   5.964   1.542   0.767  1.8060  0.3405  0.0018
11241TIP3    H255215   5.958   1.393   0.796 -0.6702  0.2651 -0.6843
11242TIP3   OH255216   5.642   6.685  16.633  0.1808 -0.6389  0.3299
11242TIP3    H155217   5.595   6.634  16.566  2.8893 -0.7258 -1.6965
11242TIP3    H255218   5.592   6.670  16.713 -2.4851 -1.6630 -1.3444
11243TIP3   OH255219   4.379   3.635  14.465  0.9190 -0.2299  0.2073
11243TIP3    H155220   4.295   3.678  14.483  0.5078 -0.7663 -0.3642
11243TIP3    H255221   4.431   3.702  14.420  0.5608 -0.0932 -0.0097
11244TIP3   OH255222   1.453   5.791   5.435  0.1324  0.3653  0.3974
11244TIP3    H155223   1.431   5.884   5.442 -0.0965  0.2111  2.3431
11244TIP3    H255224   1.533   5.789   5.384  0.6370  1.7403  1.0806
11245TIP3   OH255225   5.774   2.630   2.222 -0.0414 -0.0447  1.4615
11245TIP3    H155226   5.696   2.649   2.171  0.1552  0.6153  1.3905
11245TIP3    H255227   5.768   2.537   2.243  0.8653 -0.8539 -1.4648
11246TIP3   OH255228   3.610   5.496  12.146  0.1147 -0.4662  0.3724
11246TIP3    H155229   3.664   5.424  12.181  2.5523  0.6604 -0.8362
11246TIP3    H255230   3.617   5.565  12.211 -1.6666 -1.0190  1.2049
11247TIP3   OH255231   4.232   3.077   0.327 -0.0633 -0.3191 -0.0205
11247TIP3    H155232   4.148   3.102   0.288  1.8192  1.5698 -3.3628
11247TIP3    H255233   4.241   3.134   0.403 -2.0507 -1.0583  0.8335
11248TIP3   OH255234   0.680   3.351  13.989 -0.7214 -0.2465  0.1007
11248TIP3    H155235   0.597   3.374  13.946 -0.2780 -1.5165 -1.5258
11248TIP3    H255236   0.702   3.429  14.040 -2.8949  0.1245  0.5679
11249TIP3   OH255237   0.842   4.739   4.865  0.0555  0.1039 -0.2675
11249TIP3    H155238   0.917   4.691   4.901  0.4268  0.4003 -0.6292
11249TIP3    H255239   0.879   4.822   4.835 -0.4949  0.4182 -0.0897
11250TIP3   OH255240   0.673   4.850   3.636  0.9888  0.4643  0.1763
11250TIP3    H155241   0.686   4.866   3.543  2.2205  0.6058  0.3603
11250TIP3    H255242   0.609   4.915   3.663 -1.0859 -0.9628 -1.0066
11251TIP3   OH255243   5.200   5.490  14.694  0.2058  0.5975  1.1388
11251TIP3    H155244   5.116   5.491  14.649  0.7429  0.6976  0.0908
11251TIP3    H255245   5.215   5.398  14.717 -0.0200  0.5239  0.9899
11252TIP3   OH255246   0.256   5.590   4.123  0.5076 -0.1712 -0.0805
11252TIP3    H155247   0.195   5.660   4.101  0.9839 -0.1009 -1.2256
11252TIP3    H255248   0.200   5.520   4.158 -0.1913  0.0331 -0.7553
11253TIP3   OH255249   1.894   0.134   2.072  0.2178  0.3211  0.0561
11253TIP3    H155250   1.962   0.081   2.029 -0.0342  1.0006 -1.2476
11253TIP3    H255251   1.819   0.075   2.078  0.0627  0.3893 -1.0314
11254TIP3   OH255252   6.814   5.829  10.597  0.1609  0.2746 -0.1206
11254TIP3    H155253   6.836   5.745  10.557 -0.2627  0.7906 -1.4849
11254TIP3    H255254   6.756   5.872  10.534  2.2497  2.6118 -0.6256
11255TIP3   OH255255   3.412   1.756   0.097 -0.0941  0.0862 -0.1074
11255TIP3    H155256   3.419   1.851   0.100 -0.4997  0.2380 -2.4462
11255TIP3    H255257   3.502   1.725   0.088  0.0505  0.1974  0.7904
11256TIP3   OH255258   6.138   6.366  11.901 -0.2669 -0.0523 -0.0428
11256TIP3    H155259   6.170   6.378  11.812 -1.4433  0.7989 -0.3774
11256TIP3    H255260   6.143   6.271  11.916  1.5502 -0.0477 -0.3604
11257TIP3   OH255261   5.699   3.286  14.191 -0.0132  0.0446 -0.5153
11257TIP3    H155262   5.717   3.265  14.100 -0.2394 -0.7465 -0.3880
11257TIP3    H255263   5.618   3.337  14.189 -0.2416 -0.3237 -0.7293
11258TIP3   OH255264   3.784   0.202  11.422  0.2182  0.1035 -0.0771
11258TIP3    H155265   3.851   0.139  11.451  0.5499 -0.0182 -1.0594
11258TIP3    H255266   3.711   0.188  11.482  0.2418 -1.3087 -0.3312
11259TIP3   OH255267   6.043   2.176  14.023  0.5121  0.3570 -0.1202
11259TIP3    H155268   6.073   2.254  14.069  0.4619 -0.2339  0.9584
11259TIP3    H255269   6.113   2.112  14.034 -0.1724 -0.3121  0.5303
11260TIP3   OH255270   4.480   6.440  14.377 -0.0852  0.1093  0.3178
11260TIP3    H155271   4.450   6.485  14.456 -1.1485 -0.1765  0.0998
11260TIP3    H255272   4.456   6.348  14.392 -2.1936  0.3339 -1.1397
11261TIP3   OH255273   5.955   3.497   0.663 -0.5214 -0.2259 -0.1951
11261TIP3    H155274   5.945   3.569   0.726  0.3215  0.5559 -0.9198
11261TIP3    H255275   5.904   3.425   0.701  0.5361 -0.0284  1.7460
11262TIP3   OH255276   5.524   5.260  14.008 -0.0754 -0.1095 -0.3455
11262TIP3    H155277   5.601   5.292  13.960  0.5399  0.3028  0.8672
11262TIP3    H255278   5.556   5.185  14.058 -0.6577 -0.4198 -0.4267
11263TIP3   OH255279   1.957   6.166   2.528 -0.1620 -0.1470 -0.3173
11263TIP3    H155280   1.865   6.139   2.532 -0.1541 -0.0714  0.4351
11263TIP3    H255281   1.968   6.227   2.601  0.7934 -1.1186  0.3745
11264TIP3   OH255282   0.214   1.032  13.370 -0.4333 -0.0214 -0.1627
11264TIP3    H155283   0.288   0.980  13.400  0.0636  0.3753 -0.6925
11264TIP3    H255284   0.137   0.983  13.400 -0.0788 -2.4362 -2.8017
11265TIP3   OH255285   0.907   2.902   2.922  0.0717  0.4799  0.1426
11265TIP3    H155286   0.815   2.925   2.940 -0.7046 -2.1708  0.0180
11265TIP3    H255287   0.935   2.854   3.000  0.6377 -0.5602 -0.6793
11266TIP3   OH255288   0.959   1.321   1.966 -0.3484 -0.6576  0.3392
11266TIP3    H155289   0.929   1.283   2.049  0.0738 -1.0324  0.3274
11266TIP3    H255290   1.034   1.375   1.991  0.8282 -2.0765  0.0137
11267TIP3   OH255291   3.244   2.303   0.235 -0.4658  0.1055  0.2349
11267TIP3    H155292   3.328   2.313   0.280 -0.5224  0.0749  0.3464
11267TIP3    H255293   3.219   2.212   0.251 -0.4938  0.0986  0.1548
11268TIP3   OH255294   0.154   4.224   5.449 -0.0847 -0.4841 -0.2974
11268TIP3    H155295   0.122   4.143   5.489 -0.7077  0.1979  0.6301
11268TIP3    H255296   0.087   4.246   5.384 -1.7750  1.0820  1.8241
11269TIP3   OH255297   2.104   2.827   2.123  0.3223 -0.6522  0.3553
11269TIP3    H155298   2.041   2.763   2.090 -0.7852  0.1641  0.8278
11269TIP3    H255299   2.117   2.888   2.050 -0.4699 -0.0699  0.6899
11270TIP3   OH255300   4.264   0.980  17.076 -0.0044  0.0710 -0.4943
11270TIP3    H155301   4.276   0.924  17.153 -0.8023 -0.3004 -0.6238
11270TIP3    H255302   4.298   0.929  17.003  1.7151  0.8392 -0.2758
11271TIP3   OH255303   4.135   0.470  15.307 -0.0423  0.3835  0.4215
11271TIP3    H155304   4.210   0.466  15.247 -2.1351 -1.4383 -2.3117
11271TIP3    H255305   4.070   0.524  15.261 -0.6183  1.7067  2.6070
11272TIP3   OH255306   4.800   3.291   6.084 -0.4726 -0.1763 -0.5621
11272TIP3    H155307   4.783   3.279   6.178 -0.8368 -1.3973 -0.7607
11272TIP3    H255308   4.732   3.240   6.041 -0.5084  0.6373 -1.5133
11273TIP3   OH255309   3.714   3.251  16.580  0.0050 -0.0783 -0.1597
11273TIP3    H155310   3.679   3.234  16.492  0.5446 -0.3910 -0.3151
11273TIP3    H255311   3.675   3.183  16.635  1.6723 -1.5233 -0.6595
11274TIP3   OH255312   6.346   6.657   1.480 -0.2642 -0.0360 -0.6078
11274TIP3    H155313   6.369   6.584   1.423 -0.6287 -1.5915  1.1491
11274TIP3    H255314   6.408   6.653   1.553 -1.1943  0.5046  0.2527
11275TIP3   OH255315   1.374   4.741  14.707 -0.3230 -0.0612 -0.4207
11275TIP3    H155316   1.309   4.807  14.729  1.2925  1.0286  1.3297
11275TIP3    H255317   1.445   4.790  14.664  0.0999 -0.9549 -0.7748
11276TIP3   OH255318   4.483   1.249  13.642  0.2528 -0.5367 -0.1596
11276TIP3    H155319   4.390   1.228  13.652 -0.0807  1.4127  1.5763
11276TIP3    H255320   4.489   1.294  13.558 -1.0209  2.0934  1.0347
11277TIP3   OH255321   5.043   5.544  14.263 -0.5439  0.6687 -0.0918
11277TIP3    H155322   4.967   5.534  14.206 -0.6609  1.1390 -0.0266
11277TIP3    H255323   5.023   5.491  14.340  0.3083 -1.2789 -1.1374
11278TIP3   OH255324   1.509   3.458   5.087  0.1319  0.2501  0.0028
11278TIP3    H155325   1.431   3.402   5.089 -1.0575  1.7905  2.4115
11278TIP3    H255326   1.482   3.535   5.038  1.3488 -0.6023 -2.1629
11279TIP3   OH255327   1.951   1.582  13.063  0.3243 -0.9866 -0.7946
11279TIP3    H155328   2.011   1.611  12.995  2.1693  0.2051  1.2131
11279TIP3    H255329   2.002   1.520  13.115  0.1742  0.6204  1.4111
11280TIP3   OH255330   0.011   6.646   5.427 -0.1008  0.2790  0.2437
11280TIP3    H155331  -0.013   6.676   5.339  0.4462 -0.2960 -0.1148
11280TIP3    H255332   0.106   6.653   5.430  0.0006 -0.8655  0.3347
11281TIP3   OH255333   5.940   6.005   5.300  0.4108  0.2066  0.2984
11281TIP3    H155334   5.919   6.095   5.275 -0.2367  0.4231  1.5145
11281TIP3    H255335   6.034   5.997   5.284  0.8175  1.6481  1.6689
11282TIP3   OH255336   4.312   1.434   3.950  0.0149  0.6898 -0.8922
11282TIP3    H155337   4.367   1.420   3.873  0.6728 -0.2904 -0.2669
11282TIP3    H255338   4.356   1.386   4.020 -0.2592  2.0246  0.2454
11283TIP3   OH255339   3.458   2.416  12.439 -0.6038  0.7200  0.1405
11283TIP3    H155340   3.370   2.442  12.412 -1.1088 -1.5689 -0.7495
11283TIP3    H255341   3.498   2.384  12.358  0.5052  0.4037  0.7995
11284TIP3   OH255342   4.670   3.926  12.745  0.7929  0.0057  0.3384
11284TIP3    H155343   4.683   3.876  12.665 -0.1904  1.6989 -0.9404
11284TIP3    H255344   4.577   3.915  12.765  1.1558 -0.9105  1.6335
11285TIP3   OH255345   2.819   0.739   3.377 -0.2165 -0.0017  0.0161
11285TIP3    H155346   2.831   0.831   3.399 -1.2300  0.3005 -0.6531
11285TIP3    H255347   2.829   0.736   3.281  0.8194 -0.7628  0.1265
11286TIP3   OH255348   2.832   2.215   3.849  0.0491 -0.0458  0.5078
11286TIP3    H155349   2.810   2.134   3.802 -0.4806 -0.0777  0.8021
11286TIP3    H255350   2.825   2.284   3.782 -0.0382 -0.1773  0.3805
11287TIP3   OH255351   2.309   3.585  12.661 -0.2001 -0.0962 -0.1457
11287TIP3    H155352   2.367   3.650  12.623 -0.9425  1.1525  0.7714
11287TIP3    H255353   2.221   3.612  12.635 -0.5270 -0.7517  0.2211
11288TIP3   OH255354   6.087   0.929   3.148  0.8261 -0.4730 -0.1807
11288TIP3    H155355   6.171   0.905   3.108  0.8001 -1.1380  0.1526
11288TIP3    H255356   6.093   1.024   3.160  1.4807 -0.4950 -0.2825
11289TIP3   OH255357   4.290   4.911  14.446 -0.2821  0.3263  0.6211
11289TIP3    H155358   4.273   4.863  14.364 -2.7444  1.7439  0.1982
11289TIP3    H255359   4.336   4.990  14.418  2.7470 -1.1237  1.1860
11290TIP3   OH255360   2.732   4.347  15.325 -0.6066 -0.0117  0.0174
11290TIP3    H155361   2.680   4.297  15.263 -0.8724 -2.0701  1.7744
11290TIP3    H255362   2.721   4.438  15.299 -1.3942 -0.7385 -2.3724
11291TIP3   OH255363   3.277   0.717   0.751 -0.1712 -0.5287  0.3803
11291TIP3    H155364   3.334   0.694   0.677 -1.4557 -1.3440 -0.3873
11291TIP3    H255365   3.201   0.759   0.711  0.8320  2.7200  1.5492
11292TIP3   OH255366   4.167   0.862  13.543  0.2786 -0.7489 -0.0944
11292TIP3    H155367   4.228   0.800  13.583  1.8078 -0.8406 -2.4144
11292TIP3    H255368   4.101   0.807  13.501 -0.5502 -0.6782  1.0717
11293TIP3   OH255369   5.818   5.116  13.545  0.3783  0.2524  0.4152
11293TIP3    H155370   5.896   5.080  13.502  1.4303  1.5764  1.1380
11293TIP3    H255371   5.820   5.079  13.633 -1.6228 -2.2332 -0.4618
11294TIP3   OH255372   1.849   0.877   0.120  0.6708  0.3151 -0.4001
11294TIP3    H155373   1.872   0.828   0.199 -0.6891 -0.2840 -0.3434
11294TIP3    H255374   1.869   0.818   0.048  3.3231  1.3970 -0.6768
11295TIP3   OH255375   5.564   2.283   0.034  0.5105  0.6759 -0.6173
11295TIP3    H155376   5.595   2.198   0.001 -0.0261 -0.5898  1.9248
11295TIP3    H255377   5.618   2.300   0.111 -1.6401  0.8988  0.9331
11296TIP3   OH255378   1.659   6.389   0.563  0.2647 -0.2728  0.0507
11296TIP3    H155379   1.669   6.391   0.659 -0.9071 -1.3709  0.2250
11296TIP3    H255380   1.583   6.333   0.549  1.4758 -1.6170 -1.5899
11297TIP3   OH255381   6.701   3.982  16.288 -0.0160 -0.1458 -0.0617
11297TIP3    H155382   6.618   4.030  16.287  0.5849  1.0109  1.5655
11297TIP3    H255383   6.763   4.040  16.244  0.1292 -0.6670 -0.5648
11298TIP3   OH255384   3.077   2.085   0.373  0.1930 -0.4215 -0.0198
11298TIP3    H155385   3.038   2.099   0.460  0.4203 -0.9359  0.1677
11298TIP3    H255386   3.060   1.993   0.353  2.8267 -1.1812  0.8572
11299TIP3   OH255387   3.964   6.462   5.864  0.5005  0.2397 -0.2907
11299TIP3    H155388   3.899   6.397   5.892  0.9200 -0.0006  0.1250
11299TIP3    H255389   4.036   6.452   5.926  0.8373  0.6687 -0.6134
11300TIP3   OH255390   3.730   1.985  11.802  0.2963 -0.2199 -0.0918
11300TIP3    H155391   3.811   1.992  11.853  0.4846 -0.0498 -0.4094
11300TIP3    H255392   3.725   2.069  11.755 -0.8961  0.4414  1.1547
11301TIP3   OH255393   2.534   0.639   3.579 -0.2716 -0.3376 -0.4863
11301TIP3    H155394   2.523   0.616   3.671 -2.2659 -0.6299 -0.7631
11301TIP3    H255395   2.551   0.734   3.580 -3.9781  0.4504  0.0656
11302TIP3   OH255396   0.942   4.195   0.378 -1.0021 -0.8712  0.1147
11302TIP3    H155397   0.890   4.176   0.456 -0.4550  3.0296  1.6818
11302TIP3    H255398   1.029   4.160   0.398 -1.3741 -1.6646  0.3631
11303TIP3   OH255399   2.143   6.679  13.347 -0.5560 -0.1061  0.3105
11303TIP3    H155400   2.111   6.760  13.307  1.1302  0.3601 -0.1855
11303TIP3    H255401   2.151   6.700  13.440 -0.5101  0.1850  0.2428
11304TIP3   OH255402   1.178   4.238  16.390 -0.3464 -0.3354 -0.4944
11304TIP3    H155403   1.264   4.203  16.415 -1.4714 -0.8739  3.3514
11304TIP3    H255404   1.195   4.328  16.363  1.4616 -0.5235 -0.1144
11305TIP3   OH255405   4.143   2.568  14.306 -0.1400 -0.1759  0.6119
11305TIP3    H155406   4.232   2.536  14.291  0.2516  0.3188  1.7158
11305TIP3    H255407   4.093   2.538  14.230  0.8440 -0.9302  0.2375
11306TIP3   OH255408   1.928   6.123  16.660 -0.3045  0.1295 -0.2626
11306TIP3    H155409   1.862   6.178  16.618 -1.7767 -3.4725 -3.2462
11306TIP3    H255410   2.006   6.134  16.605 -0.3798 -0.1951 -0.4368
11307TIP3   OH255411   0.373   0.436   6.077 -0.1839  0.1467 -0.5414
11307TIP3    H155412   0.407   0.449   5.988 -1.5052 -0.3630 -1.1371
11307TIP3    H255413   0.349   0.343   6.080 -1.0868  0.3929  0.0153
11308TIP3   OH255414   1.050   3.442  12.730  0.3736 -0.4443 -0.3213
11308TIP3    H155415   1.106   3.484  12.664 -1.3537 -1.5279 -2.6253
11308TIP3    H255416   0.999   3.513  12.768  0.8672  0.1138 -0.6885
11309TIP3   OH255417   1.673   2.934   3.488  0.1804  0.3560  0.0669
11309TIP3    H155418   1.666   2.883   3.569 -0.1251  0.3954  0.0644
11309TIP3    H255419   1.583   2.948   3.460  0.2949 -1.3229 -1.3421
11310TIP3   OH255420   4.202   0.945  12.322  0.2262  0.5570  0.0493
11310TIP3    H155421   4.235   0.867  12.279 -0.1649  0.8237 -0.7451
11310TIP3    H255422   4.111   0.951  12.295  0.5227  1.8456 -0.7323
11311TIP3   OH255423   6.259   3.715  12.358  0.3806 -0.7330 -0.0315
11311TIP3    H155424   6.215   3.718  12.273  0.7576 -1.7639 -0.2766
11311TIP3    H255425   6.207   3.774  12.413  0.1132 -0.0683 -0.9573
11312TIP3   OH255426   3.301   6.796   2.922 -0.1772  0.8893 -0.8347
11312TIP3    H155427   3.244   6.850   2.977  0.6037  0.8955 -0.0131
11312TIP3    H255428   3.378   6.779   2.976 -0.3255 -0.9162 -1.1371
11313TIP3   OH255429   1.030   5.082  16.278  0.2307 -0.0892  0.3220
11313TIP3    H155430   1.017   5.152  16.342 -1.0714 -1.1595  1.2833
11313TIP3    H255431   0.943   5.068  16.240  0.8809  0.1925 -1.3700
11314TIP3   OH255432   6.737   2.653  10.674  0.2844 -0.4517 -0.0718
11314TIP3    H155433   6.796   2.712  10.627 -1.8465  1.4654 -0.5393
11314TIP3    H255434   6.730   2.577  10.617  2.0162 -0.5844 -0.1464
11315TIP3   OH255435   1.615   0.200  10.730  0.1510 -0.0477 -1.0274
11315TIP3    H155436   1.631   0.174  10.821 -2.3703  1.2519 -0.1274
11315TIP3    H255437   1.571   0.125  10.691  0.4079 -0.2513 -0.9353
11316TIP3   OH255438   1.719   2.263   4.698  0.5245  0.3928 -0.3886
11316TIP3    H155439   1.734   2.212   4.618  0.8591  1.2400 -0.8785
11316TIP3    H255440   1.784   2.333   4.695 -0.4074  1.3022 -0.1081
11317TIP3   OH255441   2.163   6.192  10.822 -0.4267 -0.3785  0.1758
11317TIP3    H155442   2.146   6.242  10.742  2.0968  0.7531  0.2376
11317TIP3    H255443   2.230   6.129  10.797 -1.7499 -2.0623  0.7391
11318TIP3   OH255444   5.477   4.698   2.443 -0.0445  0.1182 -0.0983
11318TIP3    H155445   5.529   4.733   2.515 -2.1036  2.6075  0.3477
11318TIP3    H255446   5.499   4.754   2.368 -0.8783  0.1919 -0.3043
11319TIP3   OH255447   4.225   5.090   2.332 -0.5779 -0.2453  0.6244
11319TIP3    H155448   4.251   5.107   2.422 -2.2682  0.9534  0.9399
11319TIP3    H255449   4.239   4.996   2.320  2.1968  0.0108  1.2185
11320TIP3   OH255450   6.060   5.907   3.078 -0.2350 -0.2486  0.0205
11320TIP3    H155451   6.090   5.822   3.045 -2.5649 -0.2542 -2.4158
11320TIP3    H255452   6.134   5.940   3.128  2.2670 -1.9962 -2.1946
11321TIP3   OH255453   0.123   2.896  16.623  0.1624 -0.1219  0.1851
11321TIP3    H155454   0.213   2.878  16.596  0.4733  0.9536  0.4243
11321TIP3    H255455   0.125   2.893  16.719 -0.4608 -1.8145  0.1714
11322TIP3   OH255456   1.422   3.068   0.158 -0.7225  0.0914 -0.5605
11322TIP3    H155457   1.436   3.139   0.096  0.9239  0.2094 -0.1114
11322TIP3    H255458   1.462   3.099   0.239 -1.1158 -0.8324  0.0003
11323TIP3   OH255459   3.025   5.957  16.304 -0.7783  0.2655  0.1949
11323TIP3    H155460   2.984   5.872  16.321  0.4266 -0.6316 -1.1341
11323TIP3    H255461   3.110   5.951  16.347 -0.3451  0.4643 -0.6126
11324TIP3   OH255462   2.049   6.355  12.244  0.8800 -0.0943 -0.1096
11324TIP3    H155463   2.095   6.320  12.167  2.1366  0.3378  0.4131
11324TIP3    H255464   2.077   6.299  12.316 -0.3872 -0.5714  0.0365
11325TIP3   OH255465   1.911   1.995   5.877 -0.1644  0.0121  0.0418
11325TIP3    H155466   1.846   2.037   5.820 -1.0009 -0.3951  0.6637
11325TIP3    H255467   1.865   1.984   5.961  0.5889 -0.6275  0.3827
11326TIP3   OH255468   2.776   2.464  13.221  0.8647 -0.3214 -0.1812
11326TIP3    H155469   2.793   2.390  13.163  1.5317  0.2025 -0.6663
11326TIP3    H255470   2.770   2.539  13.163  0.4876  0.0578  0.3381
11327TIP3   OH255471   4.855   6.174  11.324 -0.1101  0.0011 -0.4884
11327TIP3    H155472   4.789   6.208  11.384  0.5505 -1.3190  1.0693
11327TIP3    H255473   4.938   6.204  11.361  0.2350  1.4938 -2.3241
11328TIP3   OH255474   3.646   2.283   3.445 -0.3989  0.1267 -0.1304
11328TIP3    H155475   3.710   2.249   3.507 -0.4429 -2.3681 -1.3173
11328TIP3    H255476   3.562   2.253   3.479 -0.3835 -1.7278 -1.5443
11329TIP3   OH255477   2.925   3.369   3.835 -0.3527 -0.1989  0.6983
11329TIP3    H155478   2.929   3.298   3.900  0.5464 -2.2070 -1.4075
11329TIP3    H255479   3.016   3.400   3.829 -0.3350 -0.3551  0.0937
11330TIP3   OH255480   4.983   4.964  11.390  0.4192  0.6870 -0.1613
11330TIP3    H155481   4.998   5.008  11.306 -2.8154  0.1382 -1.1829
11330TIP3    H255482   5.044   5.007  11.450  2.6337  1.3337 -2.6664
11331TIP3   OH255483   6.765   4.860  12.532 -0.0327  0.9655  0.2327
11331TIP3    H155484   6.752   4.903  12.448  0.3808  0.3240 -0.1718
11331TIP3    H255485   6.787   4.931  12.592 -2.6280  1.7707  0.3746
11332TIP3   OH255486   2.418   2.645  14.357 -0.3804 -0.3859 -0.1859
11332TIP3    H155487   2.469   2.566  14.376 -0.8563 -0.8163 -0.6360
11332TIP3    H255488   2.330   2.612  14.338 -0.7548  0.3195  0.3013
11333TIP3   OH255489   3.720   0.029   3.171 -0.0528 -0.7580 -0.4887
11333TIP3    H155490   3.726   0.103   3.110  1.4326 -0.9444 -0.6093
11333TIP3    H255491   3.655  -0.029   3.132  0.7638 -0.8051 -1.8351
11334TIP3   OH255492   0.303   1.565   4.843  0.5646  0.1684 -0.3815
11334TIP3    H155493   0.299   1.474   4.814  1.8910  0.0187 -0.1773
11334TIP3    H255494   0.396   1.587   4.839  0.1706  1.8474 -1.3848
11335TIP3   OH255495   1.401   5.752   0.701 -0.1451 -0.1720 -0.3724
11335TIP3    H155496   1.356   5.789   0.778  1.1270  1.5459 -0.3898
11335TIP3    H255497   1.337   5.760   0.630 -1.0052 -0.9201  0.3022
11336TIP3   OH255498   0.192   5.778  15.553  0.1725 -0.6254 -0.1512
11336TIP3    H155499   0.184   5.795  15.647 -1.9413  0.4855 -0.4536
11336TIP3    H255500   0.273   5.822  15.527 -0.4351  1.1183  0.7697
11337TIP3   OH255501   6.557   4.738  13.064 -0.1752  0.0697 -0.2390
11337TIP3    H155502   6.649   4.714  13.055 -0.0507  0.5495 -0.2676
11337TIP3    H255503   6.511   4.687  12.997  0.1553  0.3227 -0.6582
11338TIP3   OH255504   4.181   0.765  15.874  0.2259 -0.5729  0.1724
11338TIP3    H155505   4.153   0.850  15.842 -1.8051 -1.3095 -0.1453
11338TIP3    H255506   4.226   0.784  15.957 -0.4625  0.7809  0.2554
11339TIP3   OH255507   3.558   1.084   0.351 -0.3221  0.0343 -0.2402
11339TIP3    H155508   3.481   1.122   0.393 -0.0726  0.4491 -0.1524
11339TIP3    H255509   3.532   1.071   0.260 -1.1966 -1.7888  0.2402
11340TIP3   OH255510   2.669   2.993   2.316 -0.1098  0.5413 -0.2863
11340TIP3    H155511   2.748   2.961   2.273  0.2054 -2.6789  2.2628
11340TIP3    H255512   2.697   3.067   2.369  0.6916  0.8195 -1.0868
11341TIP3   OH255513   6.267   4.377   3.424  0.2504 -0.0355 -0.4423
11341TIP3    H155514   6.319   4.434   3.367  0.6066  0.2453  0.1497
11341TIP3    H255515   6.191   4.353   3.371  0.9772 -0.4471 -1.3237
11342TIP3   OH255516   1.094   0.829  16.083  0.0050 -0.7423  0.4802
11342TIP3    H155517   1.166   0.878  16.043 -1.5902  0.8509 -0.5857
11342TIP3    H255518   1.031   0.816  16.012 -2.0126  0.4310  1.9476
11343TIP3   OH255519   1.400   1.473  11.284  0.2644  0.0543  0.3408
11343TIP3    H155520   1.320   1.486  11.334  0.6182  1.7548  0.5158
11343TIP3    H255521   1.395   1.382  11.254 -0.0042 -1.0442  3.3629
11344TIP3   OH255522   4.895   3.786   4.163  0.5352  0.2466  0.4187
11344TIP3    H155523   4.808   3.746   4.161  0.6989 -0.1317  0.7222
11344TIP3    H255524   4.949   3.724   4.211  1.5832 -0.7796 -1.9096
11345TIP3   OH255525   4.741   5.710   4.868  0.1327 -0.2694 -0.0755
11345TIP3    H155526   4.697   5.628   4.891  0.1807 -0.7518 -1.5972
11345TIP3    H255527   4.748   5.757   4.951 -1.2467 -1.1428  0.5829
11346TIP3   OH255528   2.867   5.251   5.202  0.0927 -0.3106  0.2440
11346TIP3    H155529   2.793   5.310   5.211 -0.0714 -0.5061  0.1801
11346TIP3    H255530   2.910   5.277   5.120  0.5295  0.2842  0.6474
11347TIP3   OH255531   5.610   4.881   0.975 -0.1279  0.5301  0.3373
11347TIP3    H155532   5.594   4.915   0.887  2.1868 -1.7213 -1.1151
11347TIP3    H255533   5.534   4.825   0.993 -0.6638  1.0740 -0.1858
11348TIP3   OH255534   6.603   3.262  17.055  0.3312  0.0940  0.0710
11348TIP3    H155535   6.562   3.214  16.983  1.5993 -0.9699  0.0184
11348TIP3    H255536   6.530   3.284  17.114 -0.5956  0.2173 -1.0916
11349TIP3   OH255537   0.925   6.068   6.646  0.6461 -0.3991  0.0899
11349TIP3    H155538   1.020   6.059   6.641  0.6909 -0.1018  0.3938
11349TIP3    H255539   0.911   6.161   6.664  0.3117 -0.5200  0.4587
11350TIP3   OH255540   2.828   3.194  13.283 -0.0889  0.2181  0.7015
11350TIP3    H155541   2.890   3.220  13.215 -0.1274 -0.8080  0.2465
11350TIP3    H255542   2.810   3.274  13.332  0.3905  0.8509 -0.1383
11351TIP3   OH255543   1.463   6.271   4.500 -0.6810 -0.4143 -0.1818
11351TIP3    H155544   1.529   6.331   4.535 -1.1158 -0.9877  1.7800
11351TIP3    H255545   1.497   6.244   4.415  1.1223  0.0518  0.3471
11352TIP3   OH255546   3.866   2.180   0.771 -0.2184 -0.1827  0.4768
11352TIP3    H155547   3.895   2.100   0.815 -0.8055 -0.3344  0.5907
11352TIP3    H255548   3.849   2.153   0.680 -0.3785 -0.1798  0.5054
11353TIP3   OH255549   4.129   2.320   6.116  0.4225 -0.0328  0.1184
11353TIP3    H155550   4.203   2.279   6.071  0.0718  0.3773 -0.8551
11353TIP3    H255551   4.164   2.402   6.151  0.2046  0.6639 -1.2250
11354TIP3   OH255552   4.270   3.160   2.419 -0.2743 -0.2437  0.9567
11354TIP3    H155553   4.250   3.134   2.509 -0.0240 -1.1194  0.7608
11354TIP3    H255554   4.291   3.079   2.374 -1.3781  0.0538 -0.1607
11355TIP3   OH255555   4.556   5.667   2.750  0.0216  0.0923  0.0804
11355TIP3    H155556   4.545   5.738   2.686 -0.1544  0.8813  0.9548
11355TIP3    H255557   4.632   5.618   2.719  0.2077  0.7258 -0.4942
11356TIP3   OH255558   1.406   4.276  13.142 -0.4149  0.2940 -0.3096
11356TIP3    H155559   1.401   4.271  13.237  0.1582  0.4912 -0.2680
11356TIP3    H255560   1.499   4.275  13.122 -0.5087 -2.4330 -1.0308
11357TIP3   OH255561   6.474   0.832  12.078  0.0126  0.3249 -0.1315
11357TIP3    H155562   6.382   0.853  12.092 -0.1424 -1.3177  1.8638
11357TIP3    H255563   6.505   0.802  12.164  1.6705 -1.7591 -1.3573
11358TIP3   OH255564   5.558   2.535  12.509  0.0168  0.1039  0.2751
11358TIP3    H155565   5.517   2.453  12.481  0.1554 -0.0305  0.4650
11358TIP3    H255566   5.629   2.508  12.567 -0.6224  0.4037  1.2163
11359TIP3   OH255567   1.043   5.535  15.972 -0.1569 -0.7234  0.1885
11359TIP3    H155568   1.054   5.590  15.895  1.4540 -1.1370  0.0962
11359TIP3    H255569   1.108   5.466  15.962 -0.3117 -1.1152  1.6282
11360TIP3   OH255570   2.561   5.397   4.178 -0.5432  0.0524 -0.1755
11360TIP3    H155571   2.560   5.492   4.168  0.2165  0.0517 -0.3375
11360TIP3    H255572   2.532   5.363   4.093 -2.8990  0.1400  0.5185
11361TIP3   OH255573   1.427   3.625   1.065 -0.0615 -0.5726 -0.2247
11361TIP3    H155574   1.494   3.559   1.085  1.3525  0.5341 -1.1041
11361TIP3    H255575   1.398   3.604   0.977  0.0279 -0.3195 -0.3154
11362TIP3   OH255576   5.426   0.476   4.208  0.7804  0.3225  0.5889
11362TIP3    H155577   5.416   0.540   4.138 -1.3556 -1.1445 -0.5791
11362TIP3    H255578   5.435   0.392   4.163 -1.1920 -0.7459  1.9775
11363TIP3   OH255579   4.979   4.235   0.388  0.1770  0.0130  0.3315
11363TIP3    H155580   4.982   4.156   0.442  0.3379  0.2787  0.7220
11363TIP3    H255581   4.939   4.301   0.445  1.3978  0.6035  0.5468
11364TIP3   OH255582   1.974   4.522  11.805 -0.4562  0.0863 -0.1302
11364TIP3    H155583   1.909   4.457  11.831 -1.4939  1.3336  0.5335
11364TIP3    H255584   2.042   4.517  11.872 -0.1700 -0.7657 -0.4647
11365TIP3   OH255585   4.708   4.894   2.594  0.1475  0.1603  0.2881
11365TIP3    H155586   4.638   4.934   2.543 -1.0921  0.3989  2.0692
11365TIP3    H255587   4.724   4.956   2.666  0.9575 -0.7267  0.9053
11366TIP3   OH255588   0.822   5.150  15.851  0.4526 -0.2295  0.0017
11366TIP3    H155589   0.859   5.090  15.786 -1.5916 -2.0343  0.3917
11366TIP3    H255590   0.801   5.229  15.802 -0.3212 -1.2686 -1.3987
11367TIP3   OH255591   6.646   5.931  11.628  0.0702 -0.0647 -0.1165
11367TIP3    H155592   6.690   5.879  11.561  0.1865  0.0021 -0.0930
11367TIP3    H255593   6.553   5.923  11.608  0.1140  0.0787 -0.3762
11368TIP3   OH255594   1.752   1.108   6.458  0.2495  0.1668 -0.0028
11368TIP3    H155595   1.790   1.190   6.426  2.2237 -0.6867  0.0040
11368TIP3    H255596   1.661   1.111   6.430  0.7442  1.5415 -1.5957
11369TIP3   OH255597   1.437   4.159  16.398 -0.0636 -0.1470  0.1269
11369TIP3    H155598   1.489   4.239  16.393 -0.6785  0.2782  0.5088
11369TIP3    H255599   1.430   4.130  16.307 -0.9376  0.9550 -0.1847
11370TIP3   OH255600   5.279   5.002   2.142  0.1815 -0.6446 -0.3751
11370TIP3    H155601   5.320   5.065   2.201 -1.0022 -0.4259  0.2440
11370TIP3    H255602   5.268   5.049   2.060 -0.6662 -0.0405  0.0748
11371TIP3   OH255603   4.505   5.329  12.091  0.2818 -0.3433  0.4463
11371TIP3    H155604   4.488   5.237  12.073  0.2832 -0.0637 -1.1154
11371TIP3    H255605   4.579   5.352  12.034  1.4032  0.2271  2.0334
11372TIP3   OH255606   3.658   5.853  15.597 -0.1291 -0.1062 -0.7290
11372TIP3    H155607   3.623   5.767  15.574  1.6256 -1.4569  1.2889
11372TIP3    H255608   3.581   5.903  15.626 -1.0280 -1.3939 -0.8238
11373TIP3   OH255609   4.109   1.062   2.532  0.3554 -0.3381 -0.2324
11373TIP3    H155610   4.081   0.971   2.528 -0.9157  0.0474 -0.7663
11373TIP3    H255611   4.039   1.110   2.487  0.1047  1.1047  1.5679
11374TIP3   OH255612   2.568   4.404   4.132  0.4185 -0.3418  0.7394
11374TIP3    H155613   2.587   4.373   4.043 -0.4801 -0.0928  0.4592
11374TIP3    H255614   2.473   4.395   4.141  0.4705 -0.0956  1.5766
11375TIP3   OH255615   2.199   5.932  13.527  0.1252  0.1672  0.5809
11375TIP3    H155616   2.269   5.921  13.590 -0.4944  0.8625  1.4181
11375TIP3    H255617   2.235   5.991  13.461  0.7911 -0.6027  0.2318
11376TIP3   OH255618   2.681   4.055   2.617  0.7611  0.0790  0.0692
11376TIP3    H155619   2.600   4.028   2.660  1.5582 -0.6689  1.1462
11376TIP3    H255620   2.735   4.089   2.688  0.5220  2.8545 -0.9554
11377TIP3   OH255621   5.561   3.435   6.102 -0.3893 -0.4028 -0.9053
11377TIP3    H155622   5.565   3.346   6.136  1.5559 -0.2214 -0.5280
11377TIP3    H255623   5.520   3.486   6.172 -1.4063 -0.9423 -1.0791
11378TIP3   OH255624   2.166   2.498   1.043 -0.3296 -0.1659  0.2956
11378TIP3    H155625   2.093   2.445   1.073  0.7138 -1.5930  0.4337
11378TIP3    H255626   2.199   2.452   0.966  0.3413  0.5289  0.1517
11379TIP3   OH255627   3.349   5.174   4.214 -0.2434  0.0322 -0.6936
11379TIP3    H155628   3.323   5.246   4.157 -0.5986  0.6230  0.1820
11379TIP3    H255629   3.310   5.197   4.299  0.1778 -0.8740 -0.2506
11380TIP3   OH255630   1.305   6.722   4.082 -0.0587  0.1347  0.1106
11380TIP3    H155631   1.355   6.642   4.099 -0.1628 -0.0939 -0.5932
11380TIP3    H255632   1.215   6.692   4.071  0.1097  0.1248 -1.5966
11381TIP3   OH255633   2.191   3.548   2.271  0.3176  0.1604  0.7179
11381TIP3    H155634   2.115   3.569   2.216  1.2872  0.2739 -0.6419
11381TIP3    H255635   2.154   3.528   2.357 -1.3194 -0.6187 -0.1211
11382TIP3   OH255636   6.258   5.932   1.903  0.5097 -0.3498 -0.4868
11382TIP3    H155637   6.336   5.947   1.957  0.7682 -2.7520 -0.0691
11382TIP3    H255638   6.187   5.921   1.966  0.1616  0.1789 -0.7881
11383TIP3   OH255639   4.152   0.858   2.797  0.3519  0.9004  0.2099
11383TIP3    H155640   4.158   0.765   2.816  0.8088  1.0642  0.9117
11383TIP3    H255641   4.242   0.890   2.802  0.1343  1.4843  0.5550
11384TIP3   OH255642   3.430   1.604  13.182  0.6141 -0.1685 -0.2821
11384TIP3    H155643   3.371   1.670  13.217  2.3444  1.5106 -0.3233
11384TIP3    H255644   3.423   1.613  13.087 -2.5597 -3.3268 -0.5398
11385TIP3   OH255645   4.351   5.245  13.639  0.1463  0.8098 -0.2331
11385TIP3    H155646   4.400   5.202  13.569 -0.9035  1.3280 -1.3137
11385TIP3    H255647   4.378   5.337  13.633 -0.4240  0.9708 -0.3871
11386TIP3   OH255648   6.051   1.978  10.893 -0.1732  0.1733 -0.1239
11386TIP3    H155649   6.136   1.981  10.936 -1.6552  1.1672  3.0314
11386TIP3    H255650   6.068   2.008  10.803  2.7831  0.1728  0.3457
11387TIP3   OH255651   2.339   3.791  16.995 -0.0989 -0.2206 -0.3149
11387TIP3    H155652   2.263   3.757  17.043  0.4434  0.2070  0.8795
11387TIP3    H255653   2.392   3.834  17.061  1.2012 -0.5076 -1.1346
11388TIP3   OH255654   0.325   4.068   0.327 -0.3966  0.0299 -0.0955
11388TIP3    H155655   0.300   4.142   0.382 -0.0796  1.3946 -1.7072
11388TIP3    H255656   0.265   4.071   0.253 -0.8086 -1.7649  0.1158
11389TIP3   OH255657   6.854   5.337   0.762  0.4480 -0.2838  0.4696
11389TIP3    H155658   6.849   5.403   0.832 -0.2784 -0.3882  0.5279
11389TIP3    H255659   6.771   5.290   0.768  0.2607 -0.1218 -0.6380
11390TIP3   OH255660   1.918   4.059   5.651 -0.3999  0.4117 -0.0967
11390TIP3    H155661   1.899   4.120   5.722  1.7315  0.9495  0.0906
11390TIP3    H255662   1.931   4.115   5.575 -1.8445 -0.1060 -0.7625
11391TIP3   OH255663   6.791   4.555   3.241 -0.1199  0.1779  0.0338
11391TIP3    H155664   6.774   4.474   3.290  0.2791 -0.9443 -1.5848
11391TIP3    H255665   6.834   4.613   3.304 -0.4414 -0.8451  1.2443
11392TIP3   OH255666   1.325   4.078  15.359  0.3758  0.2768  0.1560
11392TIP3    H155667   1.317   4.168  15.391  1.5998  0.3705  0.2594
11392TIP3    H255668   1.321   4.024  15.439  0.6678  0.3125  0.1947
11393TIP3   OH255669   2.273   3.228  13.008 -0.5033 -0.0233 -0.1362
11393TIP3    H155670   2.189   3.206  13.048  0.0353 -2.1345 -0.0291
11393TIP3    H255671   2.301   3.146  12.966  1.7588  0.4691  0.2998
11394TIP3   OH255672   0.469   3.151   2.768 -0.1780  0.0080  0.0860
11394TIP3    H155673   0.562   3.134   2.754 -0.1449 -1.7899  1.9903
11394TIP3    H255674   0.464   3.243   2.794  1.0085  0.2145 -0.3665
11395TIP3   OH255675   4.204   2.085   3.879  0.2633 -0.0132  0.2128
11395TIP3    H155676   4.181   2.176   3.898  1.0980 -0.1830  2.2853
11395TIP3    H255677   4.295   2.089   3.848 -0.3368  0.0084 -1.7071
11396TIP3   OH255678   1.714   3.070  13.184 -0.3453 -0.3392  0.5024
11396TIP3    H155679   1.773   3.029  13.121 -2.2448 -0.7723 -1.1021
11396TIP3    H255680   1.660   2.998  13.217  0.2152 -0.0189  2.2059
11397TIP3   OH255681   0.156   2.270   4.487  0.4459 -0.0850  0.5793
11397TIP3    H155682   0.203   2.263   4.570  1.2626 -1.3468  0.0470
11397TIP3    H255683   0.189   2.351   4.448  0.4499  0.2398  1.2434
11398TIP3   OH255684   0.855   2.974  16.161  0.3165 -0.1436 -0.4234
11398TIP3    H155685   0.799   2.971  16.239  0.3025 -1.9012 -0.4465
11398TIP3    H255686   0.931   2.920  16.184  0.4606 -0.4345 -1.5061
11399TIP3   OH255687   4.581   3.453  13.755  0.2961  0.4872 -0.1051
11399TIP3    H155688   4.517   3.388  13.785  1.0491 -0.2746 -0.0964
11399TIP3    H255689   4.664   3.405  13.752  0.8633  1.4457 -0.1512
11400TIP3   OH255690   6.614   1.122  14.878 -0.0496 -0.5682 -0.1606
11400TIP3    H155691   6.655   1.043  14.844  0.4474  0.9601 -3.5209
11400TIP3    H255692   6.559   1.153  14.806  1.5653  3.3446  0.0707
11401TIP3   OH255693   5.021   2.467   3.102  0.1842 -0.7545 -0.1083
11401TIP3    H155694   4.962   2.469   3.177 -0.7803  2.7641 -0.7871
11401TIP3    H255695   4.982   2.403   3.042 -1.7106 -0.1498  0.4186
11402TIP3   OH255696   1.653   4.876  14.687  0.5212 -0.2083 -0.0720
11402TIP3    H155697   1.728   4.935  14.694 -1.2549  2.2362  0.0516
11402TIP3    H255698   1.620   4.868  14.776  1.1048 -2.0262  0.0241
11403TIP3   OH255699   5.971   0.028  14.601  0.5127 -0.0639 -0.7650
11403TIP3    H155700   5.975   0.070  14.516  0.5572 -0.7015 -1.0820
11403TIP3    H255701   6.036  -0.042  14.597 -1.6051 -2.1534 -1.3620
11404TIP3   OH255702   4.193   0.062  15.610 -0.4388  0.0881 -0.2498
11404TIP3    H155703   4.137   0.066  15.688  1.0324 -2.9530  1.1558
11404TIP3    H255704   4.240   0.145  15.610 -1.3870  0.6687  1.4252
11405TIP3   OH255705   0.385   6.288   0.083 -0.2571  0.3431 -0.0759
11405TIP3    H155706   0.304   6.306   0.131 -0.9769 -1.7650 -0.3974
11405TIP3    H255707   0.389   6.192   0.078  1.6855  0.4266 -1.0555
11406TIP3   OH255708   5.495   5.749   2.927  0.3461  0.3018  0.1857
11406TIP3    H155709   5.537   5.663   2.934  1.3869  0.8920  2.2022
11406TIP3    H255710   5.554   5.800   2.872  0.1858 -0.0214 -0.2871
11407TIP3   OH255711   5.999   3.444  12.185  0.1639  0.0047 -0.0801
11407TIP3    H155712   6.021   3.461  12.093 -1.3735 -0.1506 -0.5027
11407TIP3    H255713   6.047   3.364  12.206  1.4999  0.7051 -0.3539
11408TIP3   OH255714   2.922   4.249  14.156 -0.1924  0.6377  0.5594
11408TIP3    H155715   2.887   4.162  14.175  1.6054 -0.4456 -0.7577
11408TIP3    H255716   2.866   4.309  14.205 -1.3739 -1.2655  1.6536
11409TIP3   OH255717   5.824   3.338   1.357 -0.0523 -0.0688 -0.2270
11409TIP3    H155718   5.842   3.343   1.451 -0.6282  1.1581 -0.1571
11409TIP3    H255719   5.877   3.265   1.326  0.3001 -0.3644  1.0156
11410TIP3   OH255720   1.910   5.355   1.171  0.1882  0.0772  1.1783
11410TIP3    H155721   2.004   5.340   1.183  0.6558  1.2829 -0.5115
11410TIP3    H255722   1.868   5.302   1.239  2.0418 -1.1510  1.4500
11411TIP3   OH255723   1.782   0.208  16.407  0.2495  0.1531  0.2961
11411TIP3    H155724   1.737   0.132  16.443  0.0946  0.2051  0.2186
11411TIP3    H255725   1.831   0.245  16.480  1.8120 -1.0709 -0.0817
11412TIP3   OH255726   0.623   4.960   4.147 -0.1223  0.1666 -0.7415
11412TIP3    H155727   0.597   5.044   4.184 -1.4148 -1.2441  1.8835
11412TIP3    H255728   0.557   4.942   4.079  0.3492  1.3546 -1.5407
11413TIP3   OH255729   0.212   1.662   6.309  0.8186 -0.4836 -0.2544
11413TIP3    H155730   0.197   1.568   6.318  1.1419 -0.5871 -0.7504
11413TIP3    H255731   0.295   1.668   6.263  0.0129  0.0286 -1.6999
11414TIP3   OH255732   3.753   2.370  10.985 -0.2090 -0.0868 -0.0521
11414TIP3    H155733   3.810   2.348  10.912 -1.0238 -0.4308 -0.6087
11414TIP3    H255734   3.780   2.312  11.056 -0.5076 -0.9330 -0.6232
11415TIP3   OH255735   3.028   5.184   0.769  0.5638  0.1267  0.2636
11415TIP3    H155736   3.122   5.168   0.753  0.3142 -1.0808 -0.0940
11415TIP3    H255737   2.988   5.097   0.766 -0.9903  0.8249 -2.3463
11416TIP3   OH255738   1.890   3.456   6.450  0.2119 -0.5694  0.0708
11416TIP3    H155739   1.981   3.429   6.439 -0.3745 -2.2576 -0.9790
11416TIP3    H255740   1.882   3.473   6.543  2.4615  3.0967 -0.1869
11417TIP3   OH255741   4.556   2.366  11.299  0.4203 -0.2596  0.1467
11417TIP3    H155742   4.626   2.331  11.243  1.4108  0.1297  1.0879
11417TIP3    H255743   4.508   2.426  11.242 -0.4424 -2.0444 -1.0974
11418TIP3   OH255744   6.798   5.750   6.238  0.2060 -0.1936  0.2229
11418TIP3    H155745   6.807   5.820   6.173  0.3389  2.0166  2.4760
11418TIP3    H255746   6.710   5.716   6.226 -0.8645  2.1989  0.6925
11419TIP3   OH255747   3.712   3.415   0.079  0.4169  0.6349 -1.1898
11419TIP3    H155748   3.785   3.353   0.071 -0.3262 -0.9489  2.3801
11419TIP3    H255749   3.737   3.471   0.152 -2.2261 -0.5225  0.7363
11420TIP3   OH255750   2.621   1.286   4.638 -0.2289  0.0389 -0.3411
11420TIP3    H155751   2.599   1.367   4.683 -2.0609  0.2819 -1.5530
11420TIP3    H255752   2.581   1.296   4.551 -1.0805 -2.4126 -0.3058
11421TIP3   OH255753   3.805   4.732   3.583  0.0095  0.2158  0.5507
11421TIP3    H155754   3.715   4.706   3.602 -0.3249  1.5325  0.8561
11421TIP3    H255755   3.849   4.730   3.668  0.7953 -2.2067  0.1635
11422TIP3   OH255756   2.804   3.450   4.749  0.2779 -0.3313  0.2963
11422TIP3    H155757   2.803   3.468   4.843 -0.9608  2.0393 -0.1085
11422TIP3    H255758   2.855   3.522   4.711 -1.2091  0.0512 -1.0596
11423TIP3   OH255759   2.361   0.603   2.854  0.3420 -0.0369 -0.2948
11423TIP3    H155760   2.290   0.539   2.857 -0.4933  0.8506 -0.4546
11423TIP3    H255761   2.365   0.631   2.763 -0.9230  1.8426  0.1634
11424TIP3   OH255762   1.471   0.972  13.321 -0.2750 -0.3954 -0.0545
11424TIP3    H155763   1.516   0.968  13.406 -0.2387 -0.2584 -0.0663
11424TIP3    H255764   1.415   1.050  13.328 -2.1992 -1.7715  0.7808
11425TIP3   OH255765   5.033   3.004  12.298  0.1903 -0.1419  0.2090
11425TIP3    H155766   5.083   2.925  12.318 -0.5659 -0.6715  0.0266
11425TIP3    H255767   5.028   3.005  12.202  1.4455  0.9173  0.1288
11426TIP3   OH255768   2.855   5.801  13.003  0.2163 -0.1147  0.0503
11426TIP3    H155769   2.819   5.884  12.972  1.8263  0.1208 -1.2994
11426TIP3    H255770   2.922   5.826  13.067 -0.7378 -0.4967  1.2612
11427TIP3   OH255771   5.156   0.055   4.673  0.1529 -0.2166 -0.0112
11427TIP3    H155772   5.178   0.096   4.590  1.2326 -0.3180  0.2069
11427TIP3    H255773   5.088  -0.009   4.652 -0.7271  0.8778 -0.5372
11428TIP3   OH255774   6.445   3.706   4.006 -0.0379 -0.1064 -0.4797
11428TIP3    H155775   6.378   3.772   3.989 -0.2385 -0.6313 -1.7731
11428TIP3    H255776   6.410   3.625   3.970  1.9642 -0.0744 -2.7793
11429TIP3   OH255777   0.240   4.447   3.376  0.9345  0.2705  0.0342
11429TIP3    H155778   0.281   4.460   3.290 -0.5863 -1.2111 -0.9760
11429TIP3    H255779   0.308   4.406   3.429  2.1354  1.8812 -0.1940
11430TIP3   OH255780   3.484   4.260   4.212  0.3819 -0.0340 -0.2180
11430TIP3    H155781   3.473   4.309   4.130  1.5660 -1.1219 -1.0621
11430TIP3    H255782   3.463   4.170   4.189  1.3508 -0.4668  0.5087
11431TIP3   OH255783   5.685   5.674   4.307  0.5322  0.1815  0.0667
11431TIP3    H155784   5.616   5.631   4.357  0.0278 -1.6567 -2.0624
11431TIP3    H255785   5.767   5.642   4.345  0.1659 -0.9091 -0.0523
11432TIP3   OH255786   4.591   2.180   4.024  0.0639 -0.2791  0.4074
11432TIP3    H155787   4.685   2.185   4.008 -0.0244  0.7225  0.1182
11432TIP3    H255788   4.573   2.087   4.035  1.2176 -0.4220  1.2613
11433TIP3   OH255789   3.473   2.786   0.719  0.4157 -0.1672  0.0286
11433TIP3    H155790   3.499   2.869   0.679 -1.8056  0.0435 -1.1141
11433TIP3    H255791   3.413   2.811   0.789 -0.3258 -0.8014 -0.3717
11434TIP3   OH255792   3.142   6.808   5.963 -0.2247 -0.3576 -0.5287
11434TIP3    H155793   3.102   6.749   6.026 -0.7580  0.0949 -0.4372
11434TIP3    H255794   3.130   6.765   5.878  0.5879 -1.0180 -0.3255
11435TIP3   OH255795   4.567   2.708   4.752  0.0307 -0.0792  0.4473
11435TIP3    H155796   4.615   2.641   4.703  1.0138  0.6675  0.3718
11435TIP3    H255797   4.547   2.775   4.687 -0.3364  0.0425  0.6805
11436TIP3   OH255798   1.541   3.194  12.719 -0.0767 -0.1194  0.2988
11436TIP3    H155799   1.458   3.238  12.701 -0.6522 -1.8035 -1.4413
11436TIP3    H255800   1.519   3.125  12.782 -0.1835 -1.0528 -0.7335
11437TIP3   OH255801   1.710   1.719   1.873 -0.5739 -0.4572  0.3768
11437TIP3    H155802   1.731   1.626   1.879 -0.1716 -0.3167  1.4129
11437TIP3    H255803   1.685   1.744   1.962 -2.0099  0.1318 -0.1600
11438TIP3   OH255804   1.154   4.884   5.828 -1.3199 -0.3393 -0.6252
11438TIP3    H155805   1.175   4.973   5.854 -0.6750 -0.4787 -0.6591
11438TIP3    H255806   1.171   4.831   5.906 -3.2274 -0.2442 -0.0924
11439TIP3   OH255807   0.881   3.614  14.483 -0.6953  0.1070 -0.0761
11439TIP3    H155808   0.890   3.519  14.479 -0.9099  0.0160  1.1895
11439TIP3    H255809   0.933   3.646  14.409  1.6679 -0.8771  1.0291
11440TIP3   OH255810   2.415   5.382  10.572 -0.0582 -0.4639  0.6036
11440TIP3    H155811   2.345   5.317  10.567  0.3806 -1.2039  2.9258
11440TIP3    H255812   2.474   5.360  10.500 -1.9770  0.0060 -1.2408
11441TIP3   OH255813   2.147   5.033   5.974 -0.4660 -0.0470  0.4509
11441TIP3    H155814   2.209   5.102   5.997 -0.0763 -0.1197 -0.3453
11441TIP3    H255815   2.067   5.079   5.949  0.5737  0.3519 -2.6497
11442TIP3   OH255816   1.371   0.727  12.324 -0.3560 -0.0710 -0.0018
11442TIP3    H155817   1.303   0.693  12.266 -0.1075 -1.1198  0.3085
11442TIP3    H255818   1.371   0.821  12.307 -1.1139 -0.2001 -0.8172
11443TIP3   OH255819   2.666   1.784   5.843  0.0891  0.6286 -0.3590
11443TIP3    H155820   2.733   1.807   5.778  0.8283  0.6733  0.3983
11443TIP3    H255821   2.616   1.865   5.856  0.3105  0.7785 -0.4409
11444TIP3   OH255822   6.563   0.783  16.888  0.0689 -0.3680 -0.2853
11444TIP3    H155823   6.538   0.697  16.922  1.2792 -0.1491  1.2599
11444TIP3    H255824   6.635   0.812  16.945 -0.0914  1.5318 -0.9693
11445TIP3   OH255825   5.397   4.026  13.676  0.0574  0.2556 -1.0943
11445TIP3    H155826   5.368   3.958  13.737 -2.1976  0.6998 -1.5628
11445TIP3    H255827   5.487   4.047  13.702  0.1660 -1.6321  0.1699
11446TIP3   OH255828   0.531   3.478   3.256 -0.5814  0.0140  0.0258
11446TIP3    H155829   0.517   3.416   3.184 -0.8747 -0.3929  0.4244
11446TIP3    H255830   0.501   3.431   3.334  0.7663  0.0176  0.5751
11447TIP3   OH255831   6.121   5.659   2.272 -0.7497 -0.3192 -0.2250
11447TIP3    H155832   6.150   5.714   2.345  0.5196 -2.0512  0.6600
11447TIP3    H255833   6.197   5.604   2.252 -1.9001 -1.6672 -1.1180
11448TIP3   OH255834   5.103   4.259   2.336  0.2022  0.2652 -0.3403
11448TIP3    H155835   5.031   4.256   2.399  0.5272  2.5616  0.2516
11448TIP3    H255836   5.076   4.323   2.271  0.9254 -0.2388 -1.1666
11449TIP3   OH255837   3.950   3.218   4.729 -0.5190 -0.2859  0.1770
11449TIP3    H155838   3.980   3.309   4.731 -3.0745  0.7048 -1.4169
11449TIP3    H255839   4.017   3.170   4.777  1.5994  2.2212 -0.0344
11450TIP3   OH255840   3.931   5.817  15.666 -0.0600 -0.0623  0.0081
11450TIP3    H155841   3.886   5.861  15.594  0.8065 -1.6306 -1.5743
11450TIP3    H255842   4.004   5.770  15.624  1.1867 -0.1045  2.0701
11451TIP3   OH255843   0.161   1.603  11.275 -0.3339  0.4343  0.5948
11451TIP3    H155844   0.214   1.666  11.227  0.3897 -0.2747  0.4522
11451TIP3    H255845   0.214   1.580  11.351 -0.0220 -0.9594 -0.0093
11452TIP3   OH255846   0.525   1.720  12.973 -0.0627 -0.2590  0.5449
11452TIP3    H155847   0.515   1.637  13.019 -2.0139 -0.1970  0.3105
11452TIP3    H255848   0.512   1.698  12.880 -1.2388  0.3906  0.5426
11453TIP3   OH255849   3.093   4.208  13.299 -0.0960  0.3648  0.4328
11453TIP3    H155850   3.169   4.265  13.291  0.0456 -0.0506 -1.7540
11453TIP3    H255851   3.112   4.152  13.374  0.0093  2.7468  2.2843
11454TIP3   OH255852   4.595   2.666   5.570 -0.4892 -0.1653  0.3247
11454TIP3    H155853   4.604   2.726   5.496 -0.3595 -0.7169 -0.1022
11454TIP3    H255854   4.504   2.636   5.566 -1.1064  1.3429  1.5729
11455TIP3   OH255855   3.650   6.416  14.774 -0.0723  0.0960 -0.1644
11455TIP3    H155856   3.707   6.378  14.707  0.6593  0.5392  0.1914
11455TIP3    H255857   3.708   6.431  14.849 -0.7006  0.3894  0.2676
11456TIP3   OH255858   0.008   2.835   0.887 -0.0513 -0.3359 -0.6580
11456TIP3    H155859  -0.001   2.912   0.831 -1.2641  0.8724  1.0958
11456TIP3    H255860   0.102   2.816   0.887  0.8822  3.2762  1.4869
11457TIP3   OH255861   4.893   5.818   1.435  0.3889  0.1176  0.0671
11457TIP3    H155862   4.910   5.725   1.451  0.6334  0.2278  0.4501
11457TIP3    H255863   4.931   5.863   1.510 -0.2636  0.4861  0.1876
11458TIP3   OH255864   0.729   3.857   2.966  0.4569 -0.7964 -0.1349
11458TIP3    H155865   0.668   3.897   2.904  1.1213 -1.5233 -1.2747
11458TIP3    H255866   0.680   3.783   3.004  0.0826 -0.4032  0.1653
11459TIP3   OH255867   3.732   4.710   5.474  0.3615 -0.7324  0.6139
11459TIP3    H155868   3.670   4.666   5.532 -0.6692 -0.2693 -0.1186
11459TIP3    H255869   3.806   4.649   5.467  0.4849 -0.8389  2.3328
11460TIP3   OH255870   2.608   1.148   3.545  0.0406 -0.0767  0.8265
11460TIP3    H155871   2.602   1.130   3.451  0.2071 -2.2612  1.1879
11460TIP3    H255872   2.604   1.062   3.586 -0.1670  0.8487  2.8458
11461TIP3   OH255873   1.877   2.696   6.569 -0.1443  0.4403 -0.0539
11461TIP3    H155874   1.859   2.741   6.651  1.3228  1.1064 -0.0706
11461TIP3    H255875   1.923   2.616   6.595 -0.0349  0.4562 -0.1943
11462TIP3   OH255876   0.300   1.299   0.017  0.8501  0.4548 -0.7306
11462TIP3    H155877   0.361   1.314  -0.056 -0.0777 -0.8142 -1.8303
11462TIP3    H255878   0.255   1.218  -0.007 -0.0579  0.4561  0.8858
11463TIP3   OH255879   1.084   0.056   0.603  0.4001  0.3348  0.2986
11463TIP3    H155880   1.121  -0.027   0.571 -0.4406  0.3865 -0.8660
11463TIP3    H255881   1.090   0.115   0.528 -1.7006  0.4332  0.1484
11464TIP3   OH255882   0.827   4.900   3.084 -0.0673  0.6774 -0.7824
11464TIP3    H155883   0.782   4.815   3.085  1.0967  0.0345  0.4799
11464TIP3    H255884   0.764   4.960   3.045 -0.5754 -0.9369 -2.6081
11465TIP3   OH255885   4.566   2.639   3.817 -0.1561 -0.1354 -0.0003
11465TIP3    H155886   4.532   2.632   3.906 -0.6885  2.8123  0.1053
11465TIP3    H255887   4.652   2.678   3.827  0.0663 -0.4144 -0.7584
11466TIP3   OH255888   0.262   1.476   0.878 -0.0314 -0.0792 -0.4087
11466TIP3    H155889   0.344   1.524   0.887 -0.5967  0.9685 -0.7135
11466TIP3    H255890   0.275   1.421   0.801 -0.4932  1.9711 -2.0250
11467TIP3   OH255891   5.688   5.421   5.675 -0.0653  0.2529  0.1506
11467TIP3    H155892   5.683   5.345   5.733  0.1504 -0.4099 -0.6764
11467TIP3    H255893   5.766   5.467   5.703  0.2977 -0.3164  0.0907
11468TIP3   OH255894   5.533   6.508  16.421  0.5718  0.9092  0.0623
11468TIP3    H155895   5.566   6.419  16.426  1.0077  1.0734  0.1634
11468TIP3    H255896   5.440   6.501  16.444  0.3385  0.3351 -0.9709
11469TIP3   OH255897   4.983   6.084   5.267  0.0213  0.2544 -0.8471
11469TIP3    H155898   5.006   6.129   5.185 -1.3806  2.4298 -0.1380
11469TIP3    H255899   5.066   6.077   5.314  0.9234 -1.3438 -2.5214
11470TIP3   OH255900   3.932   5.956  12.196  0.3936 -0.0340 -0.5341
11470TIP3    H155901   3.867   5.889  12.174  0.9293 -0.9462  0.5350
11470TIP3    H255902   3.956   5.995  12.112 -1.2328  0.0515 -0.9861
11471TIP3   OH255903   1.717   3.075  11.355 -0.3824  0.1604  0.4017
11471TIP3    H155904   1.735   3.076  11.448 -0.8244  1.5194  0.4953
11471TIP3    H255905   1.670   2.993  11.340  1.1152 -0.8690  1.0551
11472TIP3   OH255906   4.873   6.838   4.883 -0.6306  0.4906  0.5664
11472TIP3    H155907   4.882   6.888   4.802 -1.0863 -0.9407 -0.4191
11472TIP3    H255908   4.787   6.796   4.876  0.4022 -1.8030  0.4658
11473TIP3   OH255909   1.881   4.310  15.764  0.6736  0.3836 -0.5374
11473TIP3    H155910   1.899   4.371  15.693  0.4232  1.5038  0.3280
11473TIP3    H255911   1.879   4.224  15.722 -0.1202  1.0684 -1.9898
11474TIP3   OH255912   5.141   1.467  13.288 -0.5898 -0.3011 -0.6124
11474TIP3    H155913   5.074   1.428  13.232 -0.8397 -1.2888  0.3305
11474TIP3    H255914   5.205   1.503  13.228 -2.7162  2.1228 -1.6142
11475TIP3   OH255915   1.383   5.239  11.908  0.6259  0.0262 -0.1861
11475TIP3    H155916   1.367   5.331  11.890  2.1173  0.2847 -0.2392
11475TIP3    H255917   1.367   5.195  11.824 -0.1089  0.2097 -0.1524
11476TIP3   OH255918   1.780   0.215   5.697  0.1185 -0.0827 -0.3175
11476TIP3    H155919   1.823   0.256   5.773  0.4295 -2.6598  1.0267
11476TIP3    H255920   1.765   0.287   5.636 -1.0622  2.3603  2.5744
11477TIP3   OH255921   1.697   6.022   2.579  0.2355  0.4155  0.1351
11477TIP3    H155922   1.635   6.082   2.620  1.1893  1.6324 -0.1377
11477TIP3    H255923   1.747   5.986   2.652 -0.8666 -0.6829  0.3672
11478TIP3   OH255924   1.125   6.786  14.914 -0.4474 -0.3544  0.7949
11478TIP3    H155925   1.092   6.875  14.927 -0.4679 -0.3759  0.8870
11478TIP3    H255926   1.134   6.750  15.002 -1.2812 -0.7592  0.7239
11479TIP3   OH255927   1.318   2.361   6.183  0.2466 -0.0853 -0.5155
11479TIP3    H155928   1.289   2.288   6.128  0.6479  0.1036 -0.9933
11479TIP3    H255929   1.280   2.343   6.269 -1.8805  0.5258 -1.2726
11480TIP3   OH255930   5.784   1.686   6.023 -0.0103  0.0927  0.0863
11480TIP3    H155931   5.875   1.659   6.032 -0.3759 -1.2013  0.0348
11480TIP3    H255932   5.771   1.696   5.928 -0.5382 -2.0413 -0.1105
11481TIP3   OH255933   3.274   2.587  14.789 -0.0717 -0.6696  0.3243
11481TIP3    H155934   3.179   2.579  14.799 -0.2114  1.3939  0.9866
11481TIP3    H255935   3.285   2.655  14.723  0.9789 -1.9050 -0.8394
11482TIP3   OH255936   6.622   0.121   2.153  0.2640 -0.0424  0.3150
11482TIP3    H155937   6.543   0.173   2.146  0.2488 -0.0559  0.3870
11482TIP3    H255938   6.607   0.063   2.228  1.0631  1.1984  1.4750
11483TIP3   OH255939   4.065   2.492   5.422 -0.7975  0.4123 -1.0200
11483TIP3    H155940   4.123   2.446   5.482 -0.3244  1.6792 -0.4697
11483TIP3    H255941   4.029   2.564   5.473 -0.6504  1.3207 -2.1546
11484TIP3   OH255942   3.951   3.368  15.652  0.5141  0.2720  0.0392
11484TIP3    H155943   3.914   3.290  15.611  0.9751  0.9365 -1.7338
11484TIP3    H255944   4.045   3.352  15.653  0.6597  0.9685 -0.7875
11485TIP3   OH255945   4.163   6.375   0.759  0.9768  0.2744 -0.4189
11485TIP3    H155946   4.091   6.337   0.811  0.2519  1.8861 -0.1886
11485TIP3    H255947   4.130   6.375   0.669  1.7928 -1.4730 -0.7679
11486TIP3   OH255948   5.298   2.113   4.012 -0.1464 -0.0270  0.2345
11486TIP3    H155949   5.335   2.132   3.926 -0.4312  0.1160  0.1406
11486TIP3    H255950   5.251   2.193   4.036  0.4561  0.1615  0.8046
11487TIP3   OH255951   5.580   0.621   3.557  0.3930 -0.6268  0.3603
11487TIP3    H155952   5.603   0.709   3.526  0.5781  0.1846  2.5756
11487TIP3    H255953   5.600   0.563   3.483  1.5498  1.0288 -0.7077
11488TIP3   OH255954   3.663   0.086   5.130 -0.2046 -0.0227 -0.3110
11488TIP3    H155955   3.658   0.169   5.177 -0.8279 -0.0160 -0.3852
11488TIP3    H255956   3.744   0.093   5.079 -0.5005  0.7541 -0.7039
11489TIP3   OH255957   5.737   6.839  13.451  0.4821  0.3433 -0.1511
11489TIP3    H155958   5.705   6.920  13.411 -1.9387 -0.6395 -0.3863
11489TIP3    H255959   5.783   6.868  13.530 -0.8112  1.9516  0.0774
11490TIP3   OH255960   4.998   3.208  12.485 -0.1276  0.1558 -0.2275
11490TIP3    H155961   5.021   3.141  12.421 -1.2061 -0.2295 -0.2408
11490TIP3    H255962   4.910   3.237  12.458 -0.5887  0.0117  1.0471
11491TIP3   OH255963   5.227   1.516  14.974  0.6127  0.0632  0.6461
11491TIP3    H155964   5.202   1.466  15.052 -0.0164  0.7270  0.8825
11491TIP3    H255965   5.322   1.505  14.968  0.9180  1.3250  2.4537
11492TIP3   OH255966   4.444   3.390   4.862  0.0136  0.3410 -0.0665
11492TIP3    H155967   4.511   3.345   4.914  0.3268  0.2407 -0.5480
11492TIP3    H255968   4.471   3.375   4.771 -1.8382 -1.5495 -0.3796
11493TIP3   OH255969   5.682   6.767  17.106 -0.1622 -0.2747 -0.1333
11493TIP3    H155970   5.752   6.790  17.168 -0.5053 -0.7894  0.4614
11493TIP3    H255971   5.717   6.690  17.060 -0.0412 -0.0912 -0.3482
11494TIP3   OH255972   2.055   4.044  15.145 -0.6201  0.7212 -0.5740
11494TIP3    H155973   2.141   4.086  15.139 -0.4101  0.7996  1.9446
11494TIP3    H255974   2.024   4.042  15.055  1.8267  1.0747 -1.5253
11495TIP3   OH255975   6.363   0.939   3.102  0.1718  0.2645  0.2957
11495TIP3    H155976   6.394   1.026   3.075 -1.2151  0.7678  0.2347
11495TIP3    H255977   6.370   0.941   3.197 -0.9976  0.9395  0.3964
11496TIP3   OH255978   6.009   1.945  14.476  0.1490  0.0642 -0.1370
11496TIP3    H155979   6.035   1.928  14.567 -0.4871  0.4036  0.1137
11496TIP3    H255980   5.966   1.864  14.449 -0.5064  0.2968  0.1824
11497TIP3   OH255981   4.340   6.639  11.537  0.1866  0.2318 -0.1642
11497TIP3    H155982   4.434   6.651  11.551 -0.0905  1.0433  1.2154
11497TIP3    H255983   4.308   6.727  11.517 -0.4703  0.2335  0.7885
11498TIP3   OH255984   1.068   4.248  12.415 -0.2445  0.6958  0.5618
11498TIP3    H155985   1.128   4.311  12.376 -2.4916  2.7366  0.1027
11498TIP3    H255986   0.982   4.271  12.378 -1.4357 -1.6012  1.6797
11499TIP3   OH255987   3.791   5.960   5.545 -0.1797 -0.5056 -0.4552
11499TIP3    H155988   3.887   5.967   5.541 -0.2479  0.5103 -0.6743
11499TIP3    H255989   3.763   5.970   5.454 -0.4636 -1.6681 -0.5162
11500TIP3   OH255990   0.940   3.487  10.498 -0.5085  0.1444  0.0977
11500TIP3    H155991   0.847   3.499  10.478 -0.6070  0.5663  0.7860
11500TIP3    H255992   0.943   3.406  10.549 -0.2565 -0.9358 -1.5728
11501TIP3   OH255993   4.974   1.688  14.252  0.6043  0.5826 -0.3081
11501TIP3    H155994   5.047   1.651  14.202  2.4731  2.5464  0.7991
11501TIP3    H255995   5.000   1.676  14.344 -1.4210 -0.4163  0.1827
11502TIP3   OH255996   4.872   0.904   4.211  0.0455 -0.2126 -0.4612
11502TIP3    H155997   4.942   0.961   4.180 -0.6638  1.4852  0.8718
11502TIP3    H255998   4.876   0.827   4.154  1.7965  0.6473 -1.5763
11503TIP3   OH255999   5.187   3.932   3.472 -0.0834  0.0521 -0.7811
11503TIP3    H156000   5.132   4.008   3.492 -0.0590  0.3727 -1.8958
11503TIP3    H256001   5.254   3.965   3.413  0.7948 -0.5345 -0.1509
11504TIP3   OH256002   6.404   5.426   0.648  0.7864  0.7068 -0.4248
11504TIP3    H156003   6.412   5.337   0.616 -0.2076  0.6813 -0.6391
11504TIP3    H256004   6.312   5.434   0.676  1.0166  1.4638  0.1757
11505TIP3   OH256005   6.338   0.427   5.921  0.7506  0.0528  0.4423
11505TIP3    H156006   6.258   0.374   5.919  1.8468 -1.6572 -0.3259
11505TIP3    H256007   6.358   0.438   6.014  1.4468 -2.4393  0.6416
11506TIP3   OH256008   5.248   5.247  14.033 -0.3003 -0.3618 -0.1703
11506TIP3    H156009   5.216   5.337  14.038  0.0051 -0.2887  0.6266
11506TIP3    H256010   5.339   5.252  14.060 -0.5001 -1.0245  0.6745
11507TIP3   OH256011   2.118   3.456   2.515 -0.4990 -0.3699 -0.1227
11507TIP3    H156012   2.178   3.382   2.506 -0.4916 -0.2853 -0.8193
11507TIP3    H256013   2.153   3.507   2.589 -1.2087 -1.7133  1.1897
11508TIP3   OH256014   1.225   1.480   1.262 -0.0699  0.0654 -0.1028
11508TIP3    H156015   1.290   1.421   1.300  1.2347  1.7022  0.3205
11508TIP3    H256016   1.193   1.532   1.335 -0.3982  0.6281 -0.6360
11509TIP3   OH256017   0.543   2.811   0.063  0.4176  0.2167  0.3338
11509TIP3    H156018   0.574   2.879   0.123  1.9019 -0.1945  0.0777
11509TIP3    H256019   0.623   2.769   0.032 -0.4284 -0.9684 -0.3061
11510TIP3   OH256020   0.722   4.520   5.183  0.2517 -0.4279 -0.1618
11510TIP3    H156021   0.655   4.523   5.251  1.0596 -2.5944  0.8410
11510TIP3    H256022   0.681   4.471   5.111 -0.3492  1.2119 -0.9675
11511TIP3   OH256023   2.266   4.089   5.980 -0.2675 -0.0269  0.5790
11511TIP3    H156024   2.286   4.020   6.043 -1.8378  0.1216  1.2910
11511TIP3    H256025   2.303   4.168   6.018  0.2679 -0.2234  0.4747
11512TIP3   OH256026   3.217   3.983  16.439 -0.1944  0.0182 -0.0094
11512TIP3    H156027   3.261   3.996  16.523  0.4251  2.3344 -0.6021
11512TIP3    H256028   3.128   4.015  16.454 -0.0237  0.6276 -0.2687
11513TIP3   OH256029   0.048   4.070   0.188 -0.1771  0.1100 -0.2631
11513TIP3    H156030   0.088   4.138   0.134  0.2476 -0.1199 -0.2419
11513TIP3    H256031  -0.008   4.118   0.249  1.3954  0.6076  0.8698
11514TIP3   OH256032   3.212   6.607  17.049  0.1327  0.3765  0.6311
11514TIP3    H156033   3.284   6.602  16.987 -0.3039 -0.1587  0.1560
11514TIP3    H256034   3.199   6.701  17.064 -0.4331  0.5724 -0.9045
11515TIP3   OH256035   1.919   0.361   3.800 -0.2186 -0.6425  0.6897
11515TIP3    H156036   1.845   0.308   3.829 -1.7511  0.9361 -0.1751
11515TIP3    H256037   1.979   0.298   3.759 -1.5583 -1.8277  0.4789
11516TIP3   OH256038   2.773   3.125   3.922 -0.7431  0.0364  0.1287
11516TIP3    H156039   2.820   3.072   3.858 -2.5329 -1.1262 -0.2986
11516TIP3    H256040   2.695   3.155   3.876 -1.2086  0.6020  1.2563
11517TIP3   OH256041   2.658   5.169   1.276 -0.0358  0.1218  0.2122
11517TIP3    H156042   2.616   5.171   1.362 -1.5730  1.4891 -0.5162
11517TIP3    H256043   2.726   5.236   1.281 -0.9972  1.1600 -0.0002
11518TIP3   OH256044   0.184   6.114  11.776  0.1407  0.4070  0.1696
11518TIP3    H156045   0.192   6.026  11.812  1.0943  0.8581  1.1242
11518TIP3    H256046   0.091   6.134  11.783 -0.3399 -1.0765 -1.4642
11519TIP3   OH256047   6.662   0.718   0.372  0.4378  0.3053 -0.1366
11519TIP3    H156048   6.646   0.647   0.434 -1.3963  0.8555  0.0678
11519TIP3    H256049   6.642   0.679   0.287 -2.6147  1.0434  0.1290
11520TIP3   OH256050   4.616   0.611  14.396  0.3400 -0.5820  0.5119
11520TIP3    H156051   4.527   0.577  14.386 -0.1847 -0.4304  3.6465
11520TIP3    H256052   4.608   0.706  14.381  0.5010 -0.8270 -1.4587
11521TIP3   OH256053   5.164   4.812   5.646 -0.2441  0.4099  0.1311
11521TIP3    H156054   5.088   4.770   5.606  0.9593 -0.5737 -1.2047
11521TIP3    H256055   5.214   4.740   5.684  1.9053  0.4962 -2.2880
11522TIP3   OH256056   1.134   2.160   5.365  0.4209  0.0871 -0.2898
11522TIP3    H156057   1.209   2.134   5.312 -1.0160 -0.2145 -2.2831
11522TIP3    H256058   1.109   2.081   5.412  0.2953 -0.3010 -0.9967
11523TIP3   OH256059   5.369   2.255  16.333 -0.6451  0.1456 -0.0404
11523TIP3    H156060   5.457   2.292  16.333 -0.8356  0.6073  0.0449
11523TIP3    H256061   5.383   2.160  16.330 -0.0712  0.0812  2.3229
11524TIP3   OH256062   4.469   1.031  16.614  0.1141 -0.1517  0.0640
11524TIP3    H156063   4.493   0.938  16.610  1.0260 -0.1762  3.0793
11524TIP3    H256064   4.525   1.066  16.684 -0.4219  2.6184 -0.7977
11525TIP3   OH256065   6.657   3.489  12.028  0.3893 -0.3958 -0.4399
11525TIP3    H156066   6.594   3.456  12.092 -0.2658 -0.9833 -1.3606
11525TIP3    H256067   6.692   3.568  12.068  0.5419 -1.1355  0.9599
11526TIP3   OH256068   2.400   5.306   5.488  0.3952 -0.6248 -0.1527
11526TIP3    H156069   2.341   5.268   5.422  0.0166 -1.6468  0.7305
11526TIP3    H256070   2.481   5.255   5.479  1.3510  1.0729 -1.6659
11527TIP3   OH256071   3.677   0.899  13.678  0.2464 -0.5975  0.4025
11527TIP3    H156072   3.731   0.971  13.645  2.4767 -2.3732 -0.1046
11527TIP3    H256073   3.587   0.924  13.658  1.0325  1.5204 -0.7330
11528TIP3   OH256074   2.594   1.946   5.221  0.2185  0.3027 -0.0373
11528TIP3    H156075   2.503   1.975   5.226  0.3184  0.5372  0.5682
11528TIP3    H256076   2.627   1.984   5.140  0.3683  2.0087  0.7743
11529TIP3   OH256077   4.444   2.270   5.267 -0.2654 -0.2798  0.4409
11529TIP3    H156078   4.530   2.275   5.308 -0.2645 -1.3162  0.5715
11529TIP3    H256079   4.401   2.352   5.293  1.1509  0.9194 -0.7527
11530TIP3   OH256080   6.434   0.301  11.702 -0.3581  0.6272  0.0115
11530TIP3    H156081   6.520   0.261  11.691 -1.5049 -2.2363  0.7574
11530TIP3    H256082   6.428   0.317  11.797 -0.3711  1.5851 -0.1392
11531TIP3   OH256083   0.532   2.617   1.887  0.2229 -0.2144 -0.1234
11531TIP3    H156084   0.596   2.636   1.818  0.0333  0.9881  0.0018
11531TIP3    H256085   0.454   2.587   1.840  0.0352  0.7680 -0.4633
11532TIP3   OH256086   4.248   1.806  14.295  0.5124 -0.3541  0.4407
11532TIP3    H156087   4.216   1.800  14.385 -0.3105 -2.3851  0.0689
11532TIP3    H256088   4.194   1.744  14.246  1.2496  0.3580 -1.3800
11533TIP3   OH256089   6.784   5.000   0.477  0.1835  0.1906 -0.3206
11533TIP3    H156090   6.838   4.973   0.552 -0.3219  0.8991  0.3143
11533TIP3    H256091   6.844   5.050   0.422  0.3615  0.3541  0.0182
11534TIP3   OH256092   6.112   1.581  16.904  0.1076  0.4158  0.0098
11534TIP3    H156093   6.192   1.593  16.854  0.3164 -2.5217 -0.5483
11534TIP3    H256094   6.053   1.534  16.845 -0.6543 -0.7366  1.5905
11535TIP3   OH256095   2.521   0.406   5.863 -0.4176  0.3090  0.0520
11535TIP3    H156096   2.603   0.452   5.879 -0.4144 -0.0633  1.2048
11535TIP3    H256097   2.524   0.384   5.770  2.5560 -2.9107  0.6848
11536TIP3   OH256098   5.121   3.771   5.075  0.0425 -0.5134 -0.2288
11536TIP3    H156099   5.075   3.840   5.123  0.4742 -1.4784  1.6690
11536TIP3    H256100   5.122   3.802   4.984  0.8546  2.3029  0.6448
11537TIP3   OH256101   3.222   0.082  16.082 -0.3647 -0.1268 -0.2368
11537TIP3    H156102   3.167   0.160  16.086 -1.4495 -0.9089  1.4751
11537TIP3    H256103   3.246   0.065  16.173 -0.2567 -1.8221 -0.5517
11538TIP3   OH256104   4.494   0.682  15.740  0.2829 -0.0374 -0.3143
11538TIP3    H156105   4.531   0.764  15.707  0.7685 -0.7071 -1.4938
11538TIP3    H256106   4.457   0.705  15.825  1.8695  1.0406  0.1251
11539TIP3   OH256107   3.904   3.958  13.041  0.0651  0.0459 -0.2542
11539TIP3    H156108   3.922   3.911  13.122 -0.4473  0.2144 -0.0331
11539TIP3    H256109   3.853   3.896  12.988 -1.0031  0.4818  0.2203
11540TIP3   OH256110   0.257   1.191  11.830 -0.8690 -0.1111 -0.1535
11540TIP3    H156111   0.304   1.143  11.898 -0.3463 -0.4051 -0.7092
11540TIP3    H256112   0.325   1.231  11.777 -1.2225 -0.8042 -1.1647
11541TIP3   OH256113   3.271   5.380  14.498  0.0544  0.2622  0.2572
11541TIP3    H156114   3.280   5.314  14.567 -1.2520  0.0238  0.2069
11541TIP3    H256115   3.266   5.463  14.546 -0.2783  0.1492  0.4187
11542TIP3   OH256116   1.427   2.764   4.369  0.0593 -0.4533 -0.4044
11542TIP3    H156117   1.361   2.716   4.420  0.2668  0.0073  0.3205
11542TIP3    H256118   1.381   2.840   4.336 -0.4225 -1.4100 -2.0405
11543TIP3   OH256119   2.332   0.268  10.758  0.3903  0.5668 -0.0359
11543TIP3    H156120   2.322   0.326  10.833  0.0207  0.4403  0.0140
11543TIP3    H256121   2.294   0.185  10.786 -2.3751  1.2805 -1.2898
11544TIP3   OH256122   3.023   3.231  13.870  0.0026  0.1612 -0.0240
11544TIP3    H156123   2.939   3.234  13.915 -0.4346 -0.0100 -0.7997
11544TIP3    H256124   3.088   3.217  13.939 -0.4014  2.0807  0.7891
11545TIP3   OH256125   4.387   2.616  15.535  0.3107 -0.2873  0.0341
11545TIP3    H156126   4.361   2.583  15.449  0.0922  1.6027 -0.6747
11545TIP3    H256127   4.306   2.614  15.587  0.3727 -1.1324  0.1090
11546TIP3   OH256128   2.586   3.335   0.964 -0.2633  0.3607 -0.4805
11546TIP3    H156129   2.493   3.313   0.970 -0.4956  1.0733 -1.1568
11546TIP3    H256130   2.611   3.361   1.053 -1.0235  1.2672 -0.5115
11547TIP3   OH256131   1.557   1.681  14.963  0.7638  0.6110 -0.0627
11547TIP3    H156132   1.605   1.752  14.920  2.4764  0.1957  1.0633
11547TIP3    H256133   1.612   1.604  14.952 -0.0587 -0.0880  0.5264
11548TIP3   OH256134   2.986   3.356   5.865 -0.3518 -0.6076  0.7581
11548TIP3    H156135   3.001   3.262   5.858 -0.9775 -0.6081 -0.9660
11548TIP3    H256136   3.015   3.391   5.781 -1.9099  0.4826  0.6484
11549TIP3   OH256137   1.283   1.931  13.096  0.1253 -0.0776 -0.1378
11549TIP3    H156138   1.263   1.888  13.179  1.3424  1.9539  1.3162
11549TIP3    H256139   1.282   2.025  13.118  0.8244  0.4988 -2.3602
11550TIP3   OH256140   6.137   6.842  16.066  0.5486  0.1400  0.4271
11550TIP3    H156141   6.167   6.784  15.997  0.9044 -0.2809  0.9275
11550TIP3    H256142   6.057   6.881  16.031  1.0052  0.3371 -0.4250
11551TIP3   OH256143   3.662   5.628  14.987  0.2331  0.0615 -0.0854
11551TIP3    H156144   3.717   5.661  15.057  2.1263  0.0017 -1.4745
11551TIP3    H256145   3.700   5.543  14.964 -1.0741 -0.4622 -0.4116
11552TIP3   OH256146   5.269   0.444   0.218 -0.2863 -0.3558 -0.7205
11552TIP3    H156147   5.275   0.540   0.214  1.5930 -0.4661 -2.1656
11552TIP3    H256148   5.327   0.420   0.290  3.4788 -0.5340 -3.5001
11553TIP3   OH256149   1.005   3.772  16.872 -0.1466 -0.5984  0.1236
11553TIP3    H156150   1.079   3.729  16.915 -0.0654  1.4338  2.2008
11553TIP3    H256151   1.033   3.783  16.781  2.3500  0.5562  0.9622
11554TIP3   OH256152   0.919   3.051  12.548 -0.5364  0.2673 -0.3048
11554TIP3    H156153   0.998   3.059  12.601 -0.6156 -0.0658 -0.1329
11554TIP3    H256154   0.947   3.009  12.467 -0.6383 -0.4352  0.0104
11555TIP3   OH256155   4.951   3.578   4.355 -0.1139  0.3485 -0.2398
11555TIP3    H156156   5.047   3.575   4.352  0.0282  1.1958  1.9290
11555TIP3    H256157   4.925   3.495   4.393 -0.2280  0.2256 -0.5839
11556TIP3   OH256158   6.383   3.903  11.979 -0.0908 -0.2501  0.1254
11556TIP3    H156159   6.354   3.901  11.887 -0.0647 -0.6418  0.1229
11556TIP3    H256160   6.386   3.811  12.004 -0.6838 -0.1142  0.7076
11557TIP3   OH256161   4.427   5.294   3.001  0.2801 -0.0698 -0.0688
11557TIP3    H156162   4.433   5.228   3.070 -0.2798  1.1217  1.1865
11557TIP3    H256163   4.512   5.293   2.959  0.4394 -1.2357  0.2495
11558TIP3   OH256164   6.694   4.443  12.373  0.1957 -0.6555 -0.6997
11558TIP3    H156165   6.657   4.469  12.288 -2.1063  0.3967  0.5535
11558TIP3    H256166   6.632   4.380  12.409  0.9626 -0.8249  0.3895
11559TIP3   OH256167   4.423   1.683  16.119  0.1466 -0.0100  0.2187
11559TIP3    H156168   4.436   1.589  16.128 -2.4301 -0.2806  2.1653
11559TIP3    H256169   4.470   1.722  16.193  0.8620  0.2431 -0.3497
11560TIP3   OH256170   2.240   5.190  16.331  0.0483  0.1283  0.3828
11560TIP3    H156171   2.239   5.175  16.237  0.8495 -0.8709  0.5160
11560TIP3    H256172   2.309   5.255  16.345 -0.7881  1.0897  0.1968
11561TIP3   OH256173   4.915   2.091   1.515  0.3389  0.0375  0.1908
11561TIP3    H156174   4.961   2.153   1.458 -0.1204  1.9977  1.8342
11561TIP3    H256175   4.845   2.056   1.460  0.6510  0.9281 -0.8105
11562TIP3   OH256176   0.314   1.907  16.682 -0.5799 -0.7058 -0.1369
11562TIP3    H156177   0.260   1.902  16.603  1.0336 -1.1146 -1.2464
11562TIP3    H256178   0.329   2.001  16.695 -0.1198 -0.6817 -0.8305
11563TIP3   OH256179   6.522   3.786   5.096  0.3508 -0.1240 -0.1089
11563TIP3    H156180   6.463   3.839   5.043 -0.8222 -0.9925  0.2966
11563TIP3    H256181   6.552   3.847   5.164  2.2100  1.1182 -1.9291
11564TIP3   OH256182   0.991   1.465   3.484  0.0913 -0.2822 -0.8007
11564TIP3    H156183   1.048   1.525   3.533 -1.7631  0.8684  0.0349
11564TIP3    H256184   0.967   1.398   3.549 -0.2356 -0.2446 -0.8813
11565TIP3   OH256185   5.415   5.495   6.340 -0.2121  0.4632 -0.2579
11565TIP3    H156186   5.454   5.453   6.417  1.8037  1.9778 -0.3865
11565TIP3    H256187   5.438   5.437   6.267 -2.7793 -1.3922  0.2375
11566TIP3   OH256188   1.205   5.883  16.726 -0.3486 -0.0756 -0.0369
11566TIP3    H156189   1.275   5.939  16.760  0.3538 -1.8720  1.6622
11566TIP3    H256190   1.151   5.864  16.802 -1.7181 -0.1210 -0.9921
11567TIP3   OH256191   3.311   5.647   3.688  0.3082 -0.5686  0.7475
11567TIP3    H156192   3.364   5.601   3.623  0.9670 -1.6689  2.0263
11567TIP3    H256193   3.353   5.628   3.772 -1.6528 -0.8523  1.7381
11568TIP3   OH256194   4.168   1.643   1.421 -0.1177 -0.0248 -0.1413
11568TIP3    H156195   4.159   1.548   1.431  0.0744 -0.0857 -0.5346
11568TIP3    H256196   4.241   1.666   1.480  0.1037 -0.1818 -0.3500
11569TIP3   OH256197   4.978   1.783  16.229  0.8431 -0.2944  0.3424
11569TIP3    H156198   4.932   1.703  16.204  2.0431 -1.2967  1.2428
11569TIP3    H256199   5.036   1.757  16.300  1.1416  1.4213  0.7721
11570TIP3   OH256200   0.933   2.718   2.689  0.4868  0.0049 -0.1520
11570TIP3    H156201   0.895   2.766   2.762  0.3691 -0.1952 -0.0798
11570TIP3    H256202   0.932   2.780   2.616 -1.1774 -0.3748 -0.5145
11571TIP3   OH256203   0.849   0.884  11.045  0.8453  0.1315  0.1080
11571TIP3    H156204   0.919   0.822  11.065  0.6834  0.0897  0.5463
11571TIP3    H256205   0.820   0.860  10.957  0.2060 -0.9658  0.6026
11572TIP3   OH256206   2.468   5.672   1.819 -0.0387 -0.4256 -0.2649
11572TIP3    H156207   2.464   5.578   1.802  0.0906 -0.1258 -2.1670
11572TIP3    H256208   2.381   5.705   1.795  0.1087  0.0165 -0.2088
11573TIP3   OH256209   3.563   5.136   3.463 -0.0157 -0.1193  0.3686
11573TIP3    H156210   3.604   5.177   3.387 -1.3283  0.7690  0.0909
11573TIP3    H256211   3.619   5.061   3.484  0.3449 -0.4255 -1.5006
11574TIP3   OH256212   2.991   6.482   4.925 -1.0629 -0.1961  0.2073
11574TIP3    H156213   3.016   6.536   5.000 -1.2010 -0.2673  0.3068
11574TIP3    H256214   2.897   6.465   4.939 -1.4053  0.8937 -0.6735
11575TIP3   OH256215   0.098   6.144   1.151 -0.1794  0.0990 -0.0283
11575TIP3    H156216   0.166   6.211   1.156 -0.5002  0.6549 -2.0051
11575TIP3    H256217   0.115   6.099   1.068 -0.5119 -1.6912  0.8298
11576TIP3   OH256218   1.848   2.988  15.092  0.7270 -0.5452  0.0506
11576TIP3    H156219   1.772   2.969  15.037 -1.8511  1.0483  2.7843
11576TIP3    H256220   1.828   2.946  15.176  2.6686  0.2902  0.9996
11577TIP3   OH256221   3.634   0.407   3.840  0.4328 -0.3667  0.2611
11577TIP3    H156222   3.572   0.357   3.893  0.8336 -1.4268 -0.2462
11577TIP3    H256223   3.706   0.346   3.823 -0.3504 -0.6213 -2.7596
11578TIP3   OH256224   1.445   2.770  13.874  0.6565  0.2471  0.4389
11578TIP3    H156225   1.529   2.728  13.893  0.1827  0.3095  3.0332
11578TIP3    H256226   1.384   2.697  13.861  1.1330  0.1985 -1.8702
11579TIP3   OH256227   6.752   0.356   1.372  0.5940 -0.1141 -0.2797
11579TIP3    H156228   6.742   0.367   1.467  1.9509 -0.9127 -0.0125
11579TIP3    H256229   6.785   0.440   1.341  0.9571 -0.1135  0.0991
11580TIP3   OH256230   3.257   0.525   1.201 -0.3374 -0.3331 -0.4947
11580TIP3    H156231   3.271   0.597   1.139  0.6953 -0.7038 -0.7156
11580TIP3    H256232   3.164   0.504   1.193  0.0441 -1.4822 -3.1975
11581TIP3   OH256233   6.461   5.842  17.049 -0.0001 -0.0728 -0.0165
11581TIP3    H156234   6.370   5.873  17.041 -0.3640 -0.8987  0.8100
11581TIP3    H256235   6.467   5.770  16.986  0.4063  0.6667 -0.8425
11582TIP3   OH256236   0.173   0.001  13.920 -0.1072 -0.3262 -0.6630
11582TIP3    H156237   0.200  -0.015  13.829  0.6476 -0.7610 -0.3777
11582TIP3    H256238   0.233  -0.053  13.972 -0.9830 -0.6225  0.0600
11583TIP3   OH256239   4.542   3.678  16.906 -0.0192  0.4242  0.3843
11583TIP3    H156240   4.483   3.753  16.908 -0.2182  0.3902 -1.5592
11583TIP3    H256241   4.528   3.633  16.989 -0.4796  2.0891  1.2414
11584TIP3   OH256242   5.156   0.553  12.511 -0.4771 -0.1314 -0.4062
11584TIP3    H156243   5.126   0.555  12.602  0.6093  0.0716 -0.0463
11584TIP3    H256244   5.126   0.468  12.478  0.3824 -0.8456  0.5847
11585TIP3   OH256245   3.134   6.364  14.880  0.6740  0.5377 -0.2927
11585TIP3    H156246   3.101   6.451  14.857 -0.0874  0.0080 -1.3236
11585TIP3    H256247   3.220   6.359  14.837  0.4821  0.5909 -0.6908
11586TIP3   OH256248   0.091   5.320  16.324  0.6372 -0.3679 -0.3053
11586TIP3    H156249   0.010   5.366  16.299  0.2770 -1.1937 -0.6981
11586TIP3    H256250   0.148   5.389  16.357  0.0685  0.3514 -0.7781
11587TIP3   OH256251   2.071   0.578  12.728  0.3511  0.2568  0.4112
11587TIP3    H156252   2.114   0.501  12.764 -1.1417 -0.6627  0.3163
11587TIP3    H256253   1.994   0.544  12.683 -1.2166  1.8922  1.7060
11588TIP3   OH256254   4.376   3.243  12.173 -0.4682  0.2326 -0.1446
11588TIP3    H156255   4.381   3.149  12.193  0.9531  0.4754  0.8576
11588TIP3    H256256   4.307   3.276  12.231  0.5311  0.1474  1.1489
11589TIP3   OH256257   2.284   4.205  15.137 -0.6141  0.2719  0.2538
11589TIP3    H156258   2.263   4.294  15.108 -1.1300 -0.2549 -1.0677
11589TIP3    H256259   2.367   4.215  15.184 -0.3092  1.3560 -0.4550
11590TIP3   OH256260   2.586   6.744  13.169 -0.5141 -0.1344 -0.3532
11590TIP3    H156261   2.672   6.708  13.190  0.1432  0.8323 -1.2507
11590TIP3    H256262   2.524   6.687  13.213  0.6460  0.4270  2.1714
11591TIP3   OH256263   5.494   1.540  15.413  0.0809  0.2457  0.0861
11591TIP3    H156264   5.456   1.482  15.479  0.2509 -0.0080 -0.0376
11591TIP3    H256265   5.584   1.554  15.442  0.2171 -0.0364 -0.2076
11592TIP3   OH256266   4.898   1.281   1.424  0.0231  0.2609 -0.0014
11592TIP3    H156267   4.817   1.251   1.383  0.7869 -0.5991 -0.9609
11592TIP3    H256268   4.872   1.314   1.509 -1.1792 -1.2809  0.2729
11593TIP3   OH256269   6.810   5.929  15.107 -0.2391 -0.0334  0.4602
11593TIP3    H156270   6.900   5.897  15.112  0.2172  1.2663  1.0695
11593TIP3    H256271   6.775   5.890  15.027  1.2144  0.2791 -0.3631
11594TIP3   OH256272   0.850   6.358   4.456  0.3440 -0.3743  0.4049
11594TIP3    H156273   0.916   6.394   4.398  0.6999 -0.3045  0.8502
11594TIP3    H256274   0.882   6.271   4.479 -0.0101 -0.5740  0.1508
11595TIP3   OH256275   4.378   3.467  16.478  0.4031 -0.1327 -0.0522
11595TIP3    H156276   4.404   3.477  16.386  0.0131 -1.2316 -0.2978
11595TIP3    H256277   4.458   3.485  16.528  0.4133  1.3514 -0.5431
11596TIP3   OH256278   6.418   4.604  11.011 -0.7243  0.3246 -0.8021
11596TIP3    H156279   6.416   4.546  10.935 -2.5768  0.5025 -0.9209
11596TIP3    H256280   6.384   4.687  10.979  1.3233  1.3679 -0.4775
11597TIP3   OH256281   0.425   6.300  11.413  0.4680  0.2636 -0.1014
11597TIP3    H156282   0.449   6.392  11.423 -0.4312  0.3384  1.7732
11597TIP3    H256283   0.337   6.294  11.451  1.2313 -1.6937  1.5442
11598TIP3   OH256284   3.182   0.100   3.959  0.3630  0.2907  0.2729
11598TIP3    H156285   3.202   0.019   3.911 -1.2305 -0.6354  1.0872
11598TIP3    H256286   3.268   0.136   3.981  1.1256 -1.1638 -0.1468
11599TIP3   OH256287   4.303   1.457   2.925 -0.5268 -0.0629 -0.0918
11599TIP3    H156288   4.269   1.387   2.980 -0.4629 -0.2334 -0.2647
11599TIP3    H256289   4.244   1.531   2.940 -0.3929 -0.0467  0.3485
11600TIP3   OH256290   4.665   3.319  13.257  0.2181 -0.3126 -0.0769
11600TIP3    H156291   4.603   3.374  13.209 -0.8534 -0.4627  1.0884
11600TIP3    H256292   4.629   3.312  13.345  2.5545  0.6553  1.0520
11601TIP3   OH256293   6.174   6.683   2.597  0.9315  0.1810  0.8195
11601TIP3    H156294   6.162   6.753   2.661  2.6698 -0.1145  1.5267
11601TIP3    H256295   6.154   6.603   2.646 -0.4187  0.1019  0.1919
11602TIP3   OH256296   2.784   1.574   0.717 -0.0905 -0.2048 -0.2569
11602TIP3    H156297   2.822   1.509   0.658 -1.4038 -1.6739  0.4524
11602TIP3    H256298   2.763   1.526   0.797 -0.6555  1.2055  0.4837
11603TIP3   OH256299   2.812   4.450   0.070  0.1317  0.2945 -0.0987
11603TIP3    H156300   2.859   4.380   0.025  0.7494  0.4802  0.2555
11603TIP3    H256301   2.870   4.476   0.141  1.4635  3.4204 -2.1160
11604TIP3   OH256302   1.954   0.753   6.687 -0.0505 -0.0392 -0.0249
11604TIP3    H156303   1.905   0.673   6.706 -2.2167  1.4847  1.1739
11604TIP3    H256304   1.901   0.824   6.723  1.3634  2.0642 -1.7840
11605TIP3   OH256305   5.627   2.106   4.032  0.0700 -0.4710  0.1236
11605TIP3    H156306   5.637   2.064   3.947 -0.3656  2.4943 -1.5200
11605TIP3    H256307   5.684   2.183   4.028 -0.9737  0.4826  1.9974
11606TIP3   OH256308   0.107   1.180  14.689 -0.1545  0.4935  1.0200
11606TIP3    H156309   0.102   1.135  14.605 -0.4103 -0.3203  1.4610
11606TIP3    H256310   0.199   1.170  14.716 -0.3729 -0.4220  1.4608
11607TIP3   OH256311   3.501   4.028   2.324 -0.2354 -0.3116  0.2802
11607TIP3    H156312   3.436   4.032   2.394 -0.7797  0.3325 -0.2412
11607TIP3    H256313   3.449   4.011   2.245  0.2549 -0.0549 -0.1029
11608TIP3   OH256314   5.679   1.606   3.805 -0.0656 -0.2933  0.5512
11608TIP3    H156315   5.597   1.591   3.759  0.5437 -0.4172 -0.5275
11608TIP3    H256316   5.738   1.538   3.773  0.3656 -0.4238  1.5717
11609TIP3   OH256317   1.629   3.329   6.064  0.0733 -0.0006 -0.2507
11609TIP3    H156318   1.546   3.361   6.030 -0.5502 -0.4318  0.8256
11609TIP3    H256319   1.672   3.407   6.101 -1.2415 -0.2464  1.9600
11610TIP3   OH256320   5.994   2.293   6.744 -0.4109 -0.1652 -0.7254
11610TIP3    H156321   6.061   2.271   6.680 -0.6612 -2.2972 -0.3262
11610TIP3    H256322   5.999   2.388   6.752  2.6235 -0.2345 -0.6395
11611TIP3   OH256323   2.908   1.292  12.352 -0.3940  0.3547 -0.5821
11611TIP3    H156324   2.909   1.380  12.388 -2.1829  0.9003 -1.7394
11611TIP3    H256325   2.852   1.242  12.412  0.9770 -0.1586  0.3254
11612TIP3   OH256326   1.465   4.532   1.575  0.2322 -0.7156  0.4104
11612TIP3    H156327   1.518   4.588   1.632 -0.3608  0.0958  0.1806
11612TIP3    H256328   1.513   4.531   1.492  0.0325 -0.1804  0.2794
11613TIP3   OH256329   3.145   3.659  11.997 -0.3499  0.3455 -0.1947
11613TIP3    H156330   3.201   3.582  11.999 -0.8058  0.0220  0.4131
11613TIP3    H256331   3.126   3.673  11.904 -0.7215 -0.6134 -0.2743
11614TIP3   OH256332   3.209   0.680  12.856 -0.3660  0.7145 -0.6503
11614TIP3    H156333   3.284   0.726  12.895 -0.0414 -0.7312  0.5279
11614TIP3    H256334   3.133   0.732  12.882 -0.0646  0.3051  1.1756
11615TIP3   OH256335   1.547   5.943   1.985 -0.0772  0.4740 -0.7080
11615TIP3    H156336   1.537   6.036   1.963  0.2444  0.8846  0.7591
11615TIP3    H256337   1.584   5.943   2.074 -1.2552 -1.0617 -0.1713
11616TIP3   OH256338   4.560   1.501   4.376  0.4977 -0.7003 -0.2135
11616TIP3    H156339   4.503   1.551   4.318 -0.0631 -1.1383 -0.0466
11616TIP3    H256340   4.637   1.557   4.388  0.4077 -0.3986 -0.9893
11617TIP3   OH256341   0.529   0.180   2.803 -0.7930 -0.2668 -0.2909
11617TIP3    H156342   0.533   0.091   2.767  0.8048 -0.8298  1.1398
11617TIP3    H256343   0.596   0.228   2.754 -1.9737  0.3267 -1.3904
11618TIP3   OH256344   4.424   6.255  16.066 -0.0857 -0.3876 -0.0647
11618TIP3    H156345   4.460   6.326  16.013  0.0607  1.2188  2.0282
11618TIP3    H256346   4.357   6.215  16.010  1.5129 -0.2334 -2.2109
11619TIP3   OH256347   4.253   1.266   0.338  0.5141  0.0900  0.5719
11619TIP3    H156348   4.311   1.222   0.276  0.9592  1.4637 -0.0265
11619TIP3    H256349   4.258   1.213   0.417  1.7417 -0.4225  0.1773
11620TIP3   OH256350   4.416   2.046  12.086  0.0499 -0.4698  0.3819
11620TIP3    H156351   4.482   2.069  12.020 -1.3225  1.6380 -0.3659
11620TIP3    H256352   4.364   1.977  12.044  0.5671 -0.7551  0.1961
11621TIP3   OH256353   1.423   4.968  11.946 -0.3849 -0.8078 -0.0774
11621TIP3    H156354   1.387   5.056  11.936  1.7490  0.3215  1.3888
11621TIP3    H256355   1.443   4.940  11.856 -0.7893  0.3285 -0.5408
11622TIP3   OH256356   3.585   2.017   6.012  0.2555  0.2240  0.0604
11622TIP3    H156357   3.512   2.051   6.063  0.5747 -0.1737  0.7922
11622TIP3    H256358   3.663   2.051   6.056  0.5679 -0.9499  0.4633
11623TIP3   OH256359   6.666   3.609   1.852  0.4079  0.7092 -0.1644
11623TIP3    H156360   6.652   3.690   1.803  0.1526  0.4323 -0.5544
11623TIP3    H256361   6.587   3.598   1.904  1.4975  2.0879  1.9187
11624TIP3   OH256362   4.206   4.394  13.492  0.0574 -0.1795 -0.0222
11624TIP3    H156363   4.280   4.443  13.528  1.7426 -0.6376 -2.5334
11624TIP3    H256364   4.234   4.371  13.403 -2.7932 -1.1499 -0.7860
11625TIP3   OH256365   4.474   5.465   2.127 -0.3201  0.0472 -0.1622
11625TIP3    H156366   4.483   5.397   2.194 -1.9573  1.2275  1.3695
11625TIP3    H256367   4.411   5.527   2.164  0.2093  1.8064 -1.9791
11626TIP3   OH256368   6.088   5.002  13.435  0.1115  0.6683  0.2050
11626TIP3    H156369   6.045   4.921  13.410  0.3641  0.2558  1.0742
11626TIP3    H256370   6.088   5.055  13.355  0.0932 -0.2478 -0.4173
11627TIP3   OH256371   3.005   2.545   0.879  0.3763 -0.0370  0.0742
11627TIP3    H156372   2.930   2.581   0.925  1.4816  2.4271  0.1016
11627TIP3    H256373   3.041   2.619   0.829  2.9578 -1.0273  0.2922
11628TIP3   OH256374   6.160   2.319   4.648 -0.3300  0.0221 -0.3944
11628TIP3    H156375   6.121   2.335   4.734 -0.1278 -1.6068  0.0201
11628TIP3    H256376   6.088   2.287   4.595 -0.5878  1.5781 -1.0372
11629TIP3   OH256377   2.841   5.541   2.113 -0.4273 -0.2898 -0.0052
11629TIP3    H156378   2.936   5.552   2.114 -0.4721  1.2567 -2.5519
11629TIP3    H256379   2.812   5.573   2.198  1.2760 -0.0416  0.5217
11630TIP3   OH256380   5.152   6.738   0.543  0.1667 -0.6067 -0.1090
11630TIP3    H156381   5.157   6.750   0.448  2.4511 -2.8333 -0.3944
11630TIP3    H256382   5.083   6.672   0.555  0.1147 -0.5788 -0.2528
11631TIP3   OH256383   4.181   0.016   1.289 -0.3488  0.6143  0.5337
11631TIP3    H156384   4.171   0.103   1.328  0.4220  0.8926  0.1359
11631TIP3    H256385   4.097   0.000   1.245  0.3200  2.2683 -1.5297
11632TIP3   OH256386   0.104   5.324   1.320 -0.0625  0.6844 -0.0210
11632TIP3    H156387   0.163   5.301   1.249 -0.5336  1.4052 -0.6607
11632TIP3    H256388   0.123   5.260   1.389 -0.5993 -0.9388 -1.3170
11633TIP3   OH256389   4.101   3.309  13.591  0.7069 -0.0201  0.4966
11633TIP3    H156390   4.113   3.391  13.543 -0.9177  0.3080  0.5705
11633TIP3    H256391   4.006   3.297  13.593  0.8704 -1.3544  1.4165
11634TIP3   OH256392   3.205   4.598   5.329 -0.4905  0.6335  0.3915
11634TIP3    H156393   3.115   4.590   5.363 -0.7801  0.1260 -0.4788
11634TIP3    H256394   3.243   4.669   5.381 -1.1887  0.4330  1.2053
11635TIP3   OH256395   2.351   1.393   3.194 -0.0980  0.2661 -0.2070
11635TIP3    H156396   2.330   1.473   3.144 -0.2825 -0.7862 -1.9221
11635TIP3    H256397   2.289   1.328   3.160  1.4177 -1.1435 -0.3944
11636TIP3   OH256398   3.289   3.791   3.433  0.3382  0.2742 -0.1510
11636TIP3    H156399   3.328   3.705   3.417  1.2752  0.7598 -0.5598
11636TIP3    H256400   3.195   3.774   3.440  0.4154 -0.6745 -1.0923
11637TIP3   OH256401   3.365   0.420  11.563  0.5012  0.3563 -0.2657
11637TIP3    H156402   3.345   0.371  11.483  1.7913 -1.1220  0.2645
11637TIP3    H256403   3.296   0.394  11.624  0.4238  0.2262 -0.4046
11638TIP3   OH256404   5.905   6.851   1.997 -0.1866  0.1995 -0.6333
11638TIP3    H156405   5.878   6.771   1.951  0.6889 -0.3700 -0.1961
11638TIP3    H256406   5.982   6.824   2.047 -0.8846  0.8970  0.8727
11639TIP3   OH256407   3.452   1.536   5.563  0.3525 -0.3870 -0.2120
11639TIP3    H156408   3.488   1.483   5.634 -1.4635  0.2492  1.2859
11639TIP3    H256409   3.498   1.619   5.569 -1.7607  0.7360  2.2556
11640TIP3   OH256410   0.604   1.145  16.524  0.0157 -0.1292  0.6121
11640TIP3    H156411   0.529   1.172  16.471 -0.4853  1.5899  2.1083
11640TIP3    H256412   0.577   1.063  16.564 -0.1070 -0.7603 -0.7125
11641TIP3   OH256413   2.565   3.945   2.223 -0.1739 -0.1383 -0.5062
11641TIP3    H156414   2.637   3.900   2.266 -0.7834 -1.5017 -0.8557
11641TIP3    H256415   2.488   3.890   2.240 -1.4717  2.0135  1.1333
11642TIP3   OH256416   4.414   4.168  15.661  0.1675 -0.2190 -0.1223
11642TIP3    H156417   4.353   4.171  15.587  0.0276  0.9119  0.0342
11642TIP3    H256418   4.488   4.116  15.628  0.7905  1.5237 -1.5982
11643TIP3   OH256419   1.208   2.349  14.444  0.2827  0.1337  0.1810
11643TIP3    H156420   1.146   2.287  14.406 -0.7825  1.3286 -0.1000
11643TIP3    H256421   1.285   2.296  14.466 -1.2767 -1.6663  1.7272
11644TIP3   OH256422   2.712   3.094   5.979  0.1352 -0.2113  0.4181
11644TIP3    H156423   2.646   3.161   5.962 -0.2221 -0.3062  1.3800
11644TIP3    H256424   2.675   3.014   5.941  0.0637 -0.0932  0.2390
11645TIP3   OH256425   1.833   4.723   0.273  0.6255 -0.2498 -0.2030
11645TIP3    H156426   1.912   4.766   0.308  0.5077  1.1307 -1.5138
11645TIP3    H256427   1.867   4.650   0.221  1.0644  0.3020 -0.7152
11646TIP3   OH256428   3.729   1.828   4.807 -0.0712  0.0120  0.6475
11646TIP3    H156429   3.820   1.821   4.835  0.3950 -1.5899 -1.0612
11646TIP3    H256430   3.693   1.741   4.821 -0.2942 -0.3784 -1.9210
11647TIP3   OH256431   0.258   3.392  14.123 -0.5065  0.1085 -0.4167
11647TIP3    H156432   0.195   3.449  14.168 -0.4794  0.7442 -1.1577
11647TIP3    H256433   0.340   3.406  14.170 -0.3529  1.1739 -0.9536
11648TIP3   OH256434   0.444   6.544   3.106 -0.2360  0.3487  0.1387
11648TIP3    H156435   0.531   6.581   3.122 -1.0447  2.0917  0.6617
11648TIP3    H256436   0.399   6.549   3.190 -1.4170  1.0853 -0.5000
11649TIP3   OH256437   3.102   1.926  13.870 -0.1808 -0.3984  0.4102
11649TIP3    H156438   3.027   1.966  13.827 -0.0658  0.2751  0.8185
11649TIP3    H256439   3.151   1.885  13.800 -0.2334  0.2978 -0.0375
11650TIP3   OH256440   3.925   1.774   1.072 -0.5572  0.0192 -0.0784
11650TIP3    H156441   3.884   1.787   0.987 -0.0232  1.3017 -0.1774
11650TIP3    H256442   3.984   1.700   1.060  0.3182  0.8545 -1.1600
11651TIP3   OH256443   4.601   3.831   2.227 -0.2987  0.6267  0.4554
11651TIP3    H156444   4.543   3.799   2.158  1.3090 -1.7451  0.1036
11651TIP3    H256445   4.555   3.808   2.308 -1.0343  1.1579  0.2044
11652TIP3   OH256446   3.209   5.437  11.809  0.0563  0.1130  0.9568
11652TIP3    H156447   3.229   5.494  11.734 -1.0914 -2.1765 -1.2556
11652TIP3    H256448   3.281   5.451  11.870  0.8108  2.4339 -0.3330
11653TIP3   OH256449   2.077   6.162  15.457  0.1975 -0.2142 -0.8457
11653TIP3    H156450   2.090   6.164  15.552 -1.0325  0.6205 -0.6849
11653TIP3    H256451   2.156   6.204  15.422 -0.0192  0.8499 -0.1074
11654TIP3   OH256452   3.043   6.343   1.118  0.1441  0.0378 -0.0134
11654TIP3    H156453   3.129   6.337   1.075  0.5104 -0.9310  0.8196
11654TIP3    H256454   3.032   6.258   1.162 -1.8000 -0.3321 -1.1154
11655TIP3   OH256455   3.599   0.849   0.530 -0.4097 -0.0373 -0.0842
11655TIP3    H156456   3.607   0.935   0.489  0.0425  0.2124  0.4962
11655TIP3    H256457   3.635   0.788   0.466  1.2464  0.4618  0.2989
11656TIP3   OH256458   6.414   3.974   3.177 -0.9393  0.4587  0.5809
11656TIP3    H156459   6.468   3.984   3.255 -1.1465 -0.8401  0.9141
11656TIP3    H256460   6.413   4.061   3.137 -1.7276  1.4380  2.5910
11657TIP3   OH256461   6.397   0.773  13.056  0.5042 -0.3508  0.3984
11657TIP3    H156462   6.318   0.815  13.088  0.7113  0.3444  0.0219
11657TIP3    H256463   6.386   0.770  12.961  0.4452 -1.2514  0.4277
11658TIP3   OH256464   6.347   6.003  14.669  0.2674  0.0183  0.0769
11658TIP3    H156465   6.270   6.015  14.614 -1.1072 -1.8531  1.4785
11658TIP3    H256466   6.418   6.046  14.621 -1.3155  0.4206 -2.0194
11659TIP3   OH256467   5.096   5.087   0.300  0.1862  0.1411 -0.0277
11659TIP3    H156468   5.057   5.012   0.256  1.0780 -1.5553  1.8910
11659TIP3    H256469   5.034   5.158   0.285 -1.8796 -1.5499 -0.0128
11660TIP3   OH256470   4.530   5.298  16.487  0.0233 -0.0641  0.6909
11660TIP3    H156471   4.502   5.379  16.445  1.0825  0.2153  0.4940
11660TIP3    H256472   4.557   5.325  16.575  0.5167 -0.1782  0.5756
11661TIP3   OH256473   2.787   0.258   6.132 -0.4949 -0.2172 -0.5514
11661TIP3    H156474   2.872   0.215   6.133 -0.5344 -0.3299 -1.6322
11661TIP3    H256475   2.807   0.352   6.136 -0.3525 -0.2619 -0.1373
11662TIP3   OH256476   3.132   1.718  15.450 -0.3098  0.4236 -0.1454
11662TIP3    H156477   3.071   1.756  15.387 -0.8539  2.3382  1.4276
11662TIP3    H256478   3.192   1.666  15.397 -2.0357  0.1865 -1.9784
11663TIP3   OH256479   2.997   6.776   4.460  0.4855 -0.0887  0.4493
11663TIP3    H156480   2.994   6.847   4.525 -1.7065 -1.8278  2.4282
11663TIP3    H256481   3.040   6.704   4.507  0.5808 -0.7992 -0.7049
11664TIP3   OH256482   2.914   1.171   5.514 -0.0315  0.2589  0.0402
11664TIP3    H156483   2.922   1.123   5.596  1.0535 -1.2799 -0.8928
11664TIP3    H256484   2.896   1.103   5.449  0.0041  1.3245 -1.1167
11665TIP3   OH256485   4.088   2.601  16.155 -0.2899  0.0685 -0.0264
11665TIP3    H156486   4.100   2.688  16.192 -0.3121 -1.0000  2.6860
11665TIP3    H256487   4.001   2.604  16.113 -1.0238  0.8894  1.5055
11666TIP3   OH256488   1.204   3.470  15.107 -0.1244 -0.3498 -0.1150
11666TIP3    H156489   1.234   3.556  15.137 -0.4911 -0.0769 -0.5099
11666TIP3    H256490   1.112   3.466  15.136 -0.3283 -0.2993 -0.7274
11667TIP3   OH256491   5.622   2.217   1.413 -0.0407 -0.0188 -0.2171
11667TIP3    H156492   5.678   2.159   1.465  1.3282  2.2830  1.0342
11667TIP3    H256493   5.576   2.270   1.478  0.2781  1.6430 -1.2779
11668TIP3   OH256494   4.397   3.594   4.050 -0.1914 -0.0561  0.1897
11668TIP3    H156495   4.325   3.643   4.090 -0.1476  2.2745 -2.3398
11668TIP3    H256496   4.355   3.519   4.008 -0.6107 -0.7349  1.7262
11669TIP3   OH256497   1.933   3.158   0.673 -0.0082  0.7505  0.1788
11669TIP3    H156498   1.864   3.093   0.661  0.1195  0.7738 -0.7543
11669TIP3    H256499   1.971   3.169   0.586  1.9940 -0.1473  0.8934
11670TIP3   OH256500   3.447   1.142   0.067 -0.3178 -0.5009  0.2389
11670TIP3    H156501   3.502   1.212   0.102  0.0491 -0.1379 -1.0347
11670TIP3    H256502   3.484   1.123  -0.019 -4.0425  2.0496 -2.2113
11671TIP3   OH256503   3.692   2.578  13.968 -0.0699 -0.2710  0.5649
11671TIP3    H156504   3.781   2.614  13.977  0.0833 -0.7739  1.1413
11671TIP3    H256505   3.706   2.483  13.961 -0.3972 -0.2054 -1.8831
11672TIP3   OH256506   1.226   3.850   2.794  0.5113 -0.0368  0.5421
11672TIP3    H156507   1.137   3.875   2.768  0.1447 -0.0108  1.7690
11672TIP3    H256508   1.262   3.806   2.717 -1.1913 -1.6556  0.5857
11673TIP3   OH256509   5.405   5.168   2.374 -0.8397 -0.3729  0.0778
11673TIP3    H156510   5.316   5.185   2.404 -0.2475  0.6773  1.3379
11673TIP3    H256511   5.451   5.135   2.452 -0.5381 -2.6656 -0.9690
11674TIP3   OH256512   4.827   0.199   1.414 -0.4478  0.4232 -0.0979
11674TIP3    H156513   4.894   0.160   1.357  0.0357  2.0729 -0.7248
11674TIP3    H256514   4.770   0.247   1.354  0.0106  2.1188  0.7579
11675TIP3   OH256515   1.694   4.319   4.914 -0.6551 -0.4838  0.1858
11675TIP3    H156516   1.696   4.414   4.925  2.6842 -0.4183 -0.0849
11675TIP3    H256517   1.674   4.285   5.001  1.0952  0.4706  1.0100
11676TIP3   OH256518   3.992   4.411   3.730 -0.3796 -0.1573  0.5431
11676TIP3    H156519   4.081   4.441   3.711 -0.5640  0.4611  0.6345
11676TIP3    H256520   3.948   4.488   3.766 -2.0211  0.6386 -2.7594
11677TIP3   OH256521   0.835   3.908   2.198 -0.1398 -0.2412 -0.4816
11677TIP3    H156522   0.802   3.859   2.274 -0.1444  1.0592  0.3742
11677TIP3    H256523   0.777   3.882   2.127 -1.5150  0.1602  0.4531
11678TIP3   OH256524   1.989   0.181  13.628  0.5520  0.3038  0.5760
11678TIP3    H156525   2.041   0.118  13.678  2.0390  1.1479  0.1559
11678TIP3    H256526   2.009   0.161  13.536  1.0508  1.3709  0.4413
11679TIP3   OH256527   4.927   2.043   5.467 -0.0252 -0.2359 -0.3323
11679TIP3    H156528   5.011   2.031   5.510 -0.6410 -0.1571  0.9572
11679TIP3    H256529   4.878   2.101   5.526 -1.5089 -1.4509 -0.2971
11680TIP3   OH256530   5.576   0.299   3.637 -0.3358 -0.2540 -0.8479
11680TIP3    H156531   5.604   0.352   3.712  1.3401 -0.4582 -1.2886
11680TIP3    H256532   5.637   0.322   3.567  1.2984 -3.5916 -0.7239
11681TIP3   OH256533   2.729   4.263  13.726 -0.4148  0.5482 -0.3549
11681TIP3    H156534   2.680   4.247  13.808  1.9165 -0.2837  0.9652
11681TIP3    H256535   2.782   4.184  13.715  0.6552  1.4258 -1.6878
11682TIP3   OH256536   5.222   5.553  13.007 -0.0566 -1.0413  0.1049
11682TIP3    H156537   5.148   5.543  12.947 -0.6162 -0.8480  0.7502
11682TIP3    H256538   5.182   5.557  13.094  0.7556 -1.4643  0.5058
11683TIP3   OH256539   5.139   2.337  16.439  0.5222  0.1188  0.3328
11683TIP3    H156540   5.224   2.297  16.420 -0.3019 -1.2584 -0.6526
11683TIP3    H256541   5.111   2.373  16.355  1.4445  3.3147  1.2880
11684TIP3   OH256542   3.029   6.204   3.822 -0.1642  0.3582 -0.1540
11684TIP3    H156543   3.020   6.226   3.729 -0.3108  0.5670 -0.0932
11684TIP3    H256544   3.093   6.133   3.825 -2.8068 -2.2124 -0.7591
11685TIP3   OH256545   6.334   1.826  10.263  0.0524 -0.3573  0.0700
11685TIP3    H156546   6.306   1.888  10.330 -1.3914 -0.3670 -0.4718
11685TIP3    H256547   6.428   1.841  10.253  0.1339  0.2018  1.5025
11686TIP3   OH256548   0.518   0.911  13.909  0.0233 -0.4301 -0.0005
11686TIP3    H156549   0.571   0.866  13.843  0.1627 -0.9813  0.4785
11686TIP3    H256550   0.445   0.851  13.926 -0.3935  0.0280 -0.1742
11687TIP3   OH256551   1.724   6.236  12.517  0.5800  0.0646  0.5982
11687TIP3    H156552   1.660   6.258  12.585 -0.7906  0.9057 -0.9000
11687TIP3    H256553   1.681   6.169  12.464  1.0936  0.3617 -0.2042
11688TIP3   OH256554   3.244   5.786   6.244 -0.1114  0.0398 -0.8537
11688TIP3    H156555   3.152   5.785   6.273  0.6556  0.8136  1.9444
11688TIP3    H256556   3.261   5.879   6.225 -0.3523 -0.3448 -3.1933
11689TIP3   OH256557   2.172   3.123  11.735 -0.1204 -0.0216  0.3769
11689TIP3    H156558   2.137   3.134  11.824 -1.1468  1.2843 -0.1474
11689TIP3    H256559   2.139   3.038  11.707 -0.9747  0.1753  0.7497
11690TIP3   OH256560   2.699   5.257   4.582 -0.3700 -0.5973 -0.1815
11690TIP3    H156561   2.612   5.290   4.607 -0.1766 -0.6810  0.6222
11690TIP3    H256562   2.688   5.230   4.491 -1.5268 -1.7583  0.2680
11691TIP3   OH256563   2.774   0.728  10.903 -0.5656 -0.1409  0.2922
11691TIP3    H156564   2.854   0.719  10.956 -0.6979  0.7141  0.6508
11691TIP3    H256565   2.801   0.778  10.826 -0.8274  0.5075  0.6097
11692TIP3   OH256566   0.586   3.090  13.383  0.0091  0.0478 -0.4210
11692TIP3    H156567   0.536   3.092  13.464  1.6158 -0.7723  0.6486
11692TIP3    H256568   0.597   3.181  13.358  0.0753  0.3578  0.6884
11693TIP3   OH256569   0.923   6.219  12.876 -0.5345  0.0662 -0.3329
11693TIP3    H156570   0.933   6.261  12.961  0.9057  0.7560 -0.8033
11693TIP3    H256571   0.938   6.126  12.893  2.1311  0.4621 -0.1473
11694TIP3   OH256572   4.779   1.938   1.189 -0.1066  0.1334 -0.1875
11694TIP3    H156573   4.840   1.884   1.238  0.0433  0.7241  0.2886
11694TIP3    H256574   4.761   2.013   1.246 -0.1359  0.6993 -0.9144
11695TIP3   OH256575   0.796   1.646   5.082  0.2316 -0.2982  0.1660
11695TIP3    H156576   0.714   1.648   5.130  0.9784 -1.3800  1.5602
11695TIP3    H256577   0.836   1.562   5.105  1.4931 -0.0292 -0.8822
11696TIP3   OH256578   6.789   2.417  10.526  0.1890 -0.4143  0.4167
11696TIP3    H156579   6.835   2.410  10.442 -0.4754 -0.0470  0.0066
11696TIP3    H256580   6.781   2.327  10.556 -0.2925 -0.6345 -0.3348
11697TIP3   OH256581   1.069   0.592  13.402 -0.3038 -0.0788 -0.5247
11697TIP3    H156582   0.992   0.565  13.352  0.8208 -1.9266 -1.3860
11697TIP3    H256583   1.132   0.620  13.335 -0.4629  2.2902  0.2161
11698TIP3   OH256584   4.857   0.881  16.540  0.5237 -0.3104  0.6684
11698TIP3    H156585   4.894   0.846  16.459  1.2910 -1.6590  1.5614
11698TIP3    H256586   4.917   0.952  16.565  0.2639  0.1317  0.0521
11699TIP3   OH256587   6.178   4.678  12.810 -0.2448  0.2115  0.0494
11699TIP3    H156588   6.217   4.753  12.765  1.5617  0.3896  1.7899
11699TIP3    H256589   6.160   4.710  12.899 -3.6713 -0.1394 -0.3886
11700TIP3   OH256590   4.257   3.871  13.692 -0.1942  0.3566  0.1588
11700TIP3    H156591   4.351   3.877  13.707 -0.2031  1.3318 -0.1044
11700TIP3    H256592   4.228   3.961  13.682 -0.9556  0.0205 -0.9791
11701TIP3   OH256593   3.109   4.742   1.916  0.3448  0.0586 -0.2595
11701TIP3    H156594   3.066   4.673   1.966 -1.1881  1.3696  0.3384
11701TIP3    H256595   3.201   4.718   1.917 -0.1452 -2.0388 -0.2237
11702TIP3   OH256596   0.753   2.134  13.106  0.1496  0.1368 -0.0941
11702TIP3    H156597   0.683   2.069  13.111  1.8571 -1.9324 -1.4735
11702TIP3    H256598   0.831   2.088  13.137  1.5275  1.3806 -1.5623
11703TIP3   OH256599   0.654   3.448   1.067 -0.0443 -0.4123  0.6023
11703TIP3    H156600   0.628   3.378   1.127  2.4527 -0.3853  1.8435
11703TIP3    H256601   0.619   3.528   1.106 -1.5714 -0.7404 -0.0037
11704TIP3   OH256602   3.609   2.684   5.728  0.3027  0.2665  0.0938
11704TIP3    H156603   3.658   2.614   5.684 -2.2393 -1.3060 -0.4379
11704TIP3    H256604   3.580   2.645   5.810  0.5640  1.4291  0.7588
11705TIP3   OH256605   6.237   3.720   4.706 -0.5155 -0.3708  0.0470
11705TIP3    H156606   6.243   3.637   4.658 -1.9329  0.5596 -1.8778
11705TIP3    H256607   6.318   3.766   4.682 -1.0590 -0.0509 -1.2524
11706TIP3   OH256608   6.394   5.179  12.886  0.0430 -0.9817 -1.0506
11706TIP3    H156609   6.454   5.114  12.850  1.9619  0.8319 -1.2699
11706TIP3    H256610   6.449   5.254  12.907 -1.9858  0.3335 -0.1328
11707TIP3   OH256611   4.123   3.841  13.926  0.0775  0.0491  0.2832
11707TIP3    H156612   4.044   3.791  13.905  1.3731 -2.9051  1.8508
11707TIP3    H256613   4.184   3.822  13.855  0.4829 -0.4430  0.7490
11708TIP3   OH256614   0.844   2.796   4.558 -0.2153  0.5197  0.1293
11708TIP3    H156615   0.934   2.817   4.582 -0.1000 -0.7097  0.9130
11708TIP3    H256616   0.793   2.820   4.635 -0.5384  1.0696 -0.2552
11709TIP3   OH256617   5.289   2.981   6.538 -0.0678 -0.1020  0.1607
11709TIP3    H156618   5.331   2.934   6.610  2.4859  0.7802 -0.6233
11709TIP3    H256619   5.240   3.051   6.580 -0.0278 -0.6214  1.1063
11710TIP3   OH256620   3.348   3.544  15.757  0.2760 -0.0169  0.6393
11710TIP3    H156621   3.306   3.490  15.824  0.2770 -1.9786 -0.8280
11710TIP3    H256622   3.327   3.499  15.675  1.3031  1.6116 -0.5620
11711TIP3   OH256623   0.188   4.395   2.363  0.1988  0.3263  0.3547
11711TIP3    H156624   0.199   4.490   2.363  0.5058  0.2941  0.7782
11711TIP3    H256625   0.141   4.376   2.281 -0.5552  0.9212  0.6302
11712TIP3   OH256626   3.305   0.060   4.254 -0.1777 -0.4027 -0.3000
11712TIP3    H156627   3.368   0.082   4.323 -1.5221  1.1803  0.4917
11712TIP3    H256628   3.305   0.137   4.197 -4.1398  1.4842  1.8639
11713TIP3   OH256629   5.199   5.996   5.476  0.2387 -0.6411  0.9723
11713TIP3    H156630   5.294   6.006   5.467  0.1258 -0.8077 -0.7874
11713TIP3    H256631   5.182   5.906   5.450 -0.4876 -0.3763  0.5147
11714TIP3   OH256632   5.766   1.135  11.920  0.0380  0.1798 -0.0007
11714TIP3    H156633   5.698   1.180  11.870  0.1202 -0.0971 -0.3724
11714TIP3    H256634   5.725   1.115  12.004 -0.9252 -1.4774 -0.8035
11715TIP3   OH256635   4.727   5.712   0.500  0.0713 -0.0056 -0.0474
11715TIP3    H156636   4.698   5.777   0.565 -0.7671  0.8089 -1.1973
11715TIP3    H256637   4.804   5.751   0.460  1.0762 -0.8739  0.9924
11716TIP3   OH256638   2.974   6.348  16.019 -0.2749 -0.4102  0.5952
11716TIP3    H156639   2.988   6.427  15.967 -0.6206 -0.0912  0.9703
11716TIP3    H256640   2.885   6.358  16.053 -1.0455 -1.8767 -0.8938
11717TIP3   OH256641   3.507   5.466  16.630  0.4113  0.4268 -0.2144
11717TIP3    H156642   3.571   5.423  16.685 -1.3697 -1.7037  0.3434
11717TIP3    H256643   3.452   5.516  16.691 -1.0735 -1.2982 -0.0489
11718TIP3   OH256644   0.917   3.234  16.398 -0.4367  0.0160 -0.2049
11718TIP3    H156645   0.843   3.262  16.344 -0.6984  1.5484  0.8864
11718TIP3    H256646   0.876   3.199  16.477  0.0066  0.9708  0.4517
11719TIP3   OH256647   5.656   3.150   2.835  0.1630  0.3087  0.4990
11719TIP3    H156648   5.578   3.134   2.888  0.3740 -1.5702  0.2857
11719TIP3    H256649   5.624   3.153   2.745  0.1543  1.0430  0.5159
11720TIP3   OH256650   5.275   2.918   6.877  0.0710  0.1035  0.3090
11720TIP3    H156651   5.251   2.826   6.887 -1.1761  0.6173  2.7232
11720TIP3    H256652   5.347   2.917   6.814 -1.7685 -2.2233 -1.9871
11721TIP3   OH256653   6.354   3.266   6.136 -0.1621  0.0585 -0.1959
11721TIP3    H156654   6.337   3.358   6.118 -0.7856  0.3133  1.4781
11721TIP3    H256655   6.442   3.264   6.173 -1.5020  0.6348  3.4785
11722TIP3   OH256656   0.257   2.089  15.571 -0.6229  0.2570  0.3510
11722TIP3    H156657   0.164   2.085  15.594 -0.3169 -2.7349  1.4706
11722TIP3    H256658   0.284   2.177  15.598 -2.4690  0.1967  2.8164
11723TIP3   OH256659   6.548   3.946   1.234  0.5963 -0.1836 -0.2381
11723TIP3    H156660   6.594   3.925   1.315  0.6568  0.6169 -0.0550
11723TIP3    H256661   6.455   3.938   1.257  0.5684  1.2339  0.2822
11724TIP3   OH256662   5.314   3.258   1.675 -0.7071  0.1594 -0.5224
11724TIP3    H156663   5.379   3.205   1.627  0.7412  0.8621  0.5725
11724TIP3    H256664   5.280   3.199   1.742 -1.3095 -0.2402 -1.1580
11725TIP3   OH256665   1.193   3.826  11.596 -0.1237  0.1538 -0.0092
11725TIP3    H156666   1.193   3.833  11.500  0.5001  0.7919  0.0288
11725TIP3    H256667   1.106   3.792  11.617 -0.3893  0.3198 -0.7778
11726TIP3   OH256668   5.465   0.615   5.034  0.1898 -0.1340 -0.4416
11726TIP3    H156669   5.389   0.643   5.085  1.6446 -0.1491  1.8993
11726TIP3    H256670   5.508   0.696   5.008 -0.9098 -0.1076 -2.3363
11727TIP3   OH256671   1.136   3.834   1.103 -0.6768  0.1692 -0.0594
11727TIP3    H156672   1.196   3.852   1.175 -0.0818 -2.5212  0.2116
11727TIP3    H256673   1.167   3.890   1.032  0.1989  1.1137  1.0138
11728TIP3   OH256674   6.675   1.145   2.172  0.3272 -0.2567 -0.8745
11728TIP3    H156675   6.657   1.236   2.195 -0.9676 -0.9759  1.2936
11728TIP3    H256676   6.691   1.102   2.256  1.4318 -1.9506 -1.8908
11729TIP3   OH256677   5.709   2.762   5.486  0.2914  0.4141  0.6654
11729TIP3    H156678   5.626   2.787   5.526 -1.4108 -1.6636 -1.3223
11729TIP3    H256679   5.738   2.686   5.537 -0.2891 -0.3195 -0.0683
11730TIP3   OH256680   3.962   5.973  15.025 -0.1370 -0.2326  0.3357
11730TIP3    H156681   3.869   5.965  15.042 -0.2351  0.6959  0.2932
11730TIP3    H256682   3.991   6.043  15.083  1.1123 -2.3352  2.4249
11731TIP3   OH256683   0.128   2.429   4.093 -0.2525  0.0385 -0.6971
11731TIP3    H156684   0.211   2.419   4.139  0.1555  0.7557 -1.2578
11731TIP3    H256685   0.064   2.443   4.162  0.6107  2.9741 -0.3364
11732TIP3   OH256686   2.954   5.800  15.002 -0.1841  0.4927 -0.0383
11732TIP3    H156687   2.996   5.862  14.943 -1.7257 -0.2362 -2.0007
11732TIP3    H256688   2.870   5.841  15.024 -0.8066 -0.4616 -0.5944
11733TIP3   OH256689   4.101   1.325  11.406  0.5507 -0.4580 -0.9816
11733TIP3    H156690   4.086   1.255  11.342  1.4570 -2.7738  1.1791
11733TIP3    H256691   4.109   1.280  11.490 -0.4700  2.4273  0.8196
11734TIP3   OH256692   3.771   6.339   2.089  0.2828 -0.4411  0.0847
11734TIP3    H156693   3.813   6.311   2.170  2.6076  0.6176 -0.6643
11734TIP3    H256694   3.701   6.398   2.117 -0.3261 -1.7165  1.3667
11735TIP3   OH256695   2.403   6.000   2.741  0.4286  0.1748  0.6806
11735TIP3    H156696   2.477   6.054   2.716 -0.6736  1.3501 -0.1813
11735TIP3    H256697   2.435   5.910   2.737  0.9134  0.3641 -3.1360
11736TIP3   OH256698   5.631   5.366   1.173  0.1130  0.0254  0.2004
11736TIP3    H156699   5.599   5.422   1.243  1.2693 -0.3234  1.0431
11736TIP3    H256700   5.694   5.420   1.126 -0.1101  0.0176 -0.1080
11737TIP3   OH256701   3.031   2.018  15.352  0.3058  0.1665  0.6945
11737TIP3    H156702   3.068   2.106  15.360  1.0610 -0.1193  0.4252
11737TIP3    H256703   2.954   2.019  15.409 -0.9990  1.6696 -0.9961
11738TIP3   OH256704   5.897   6.412   2.469 -0.2818 -0.3496  0.0365
11738TIP3    H156705   5.920   6.346   2.535  0.9373  2.1570  2.3207
11738TIP3    H256706   5.802   6.406   2.462 -0.4397 -0.8552  1.9212
11739TIP3   OH256707   0.386   3.864   5.266 -0.0238  0.2368 -0.9893
11739TIP3    H156708   0.394   3.865   5.361  1.4245 -1.7458 -1.0093
11739TIP3    H256709   0.360   3.774   5.246 -0.7873  0.7570 -2.4533
11740TIP3   OH256710   1.476   4.586  11.651 -0.1996  0.2475  0.0617
11740TIP3    H156711   1.546   4.544  11.701 -2.1349 -2.6999  0.5411
11740TIP3    H256712   1.454   4.663  11.702  1.2449  0.0670  1.0425
11741TIP3   OH256713   2.379   2.783  13.584 -0.1287 -0.1826  0.1847
11741TIP3    H156714   2.340   2.743  13.662 -1.3199 -0.1717 -0.3803
11741TIP3    H256715   2.473   2.772  13.596 -0.3477 -1.5247  0.9173
11742TIP3   OH256716   2.595   6.072   2.386 -0.4122 -0.0431  0.1012
11742TIP3    H156717   2.579   6.162   2.357 -0.8626 -1.1335 -3.6629
11742TIP3    H256718   2.685   6.053   2.358 -0.4757 -0.8925  0.4343
11743TIP3   OH256719   4.341   6.603   0.794  0.9619  0.4028  0.1968
11743TIP3    H156720   4.311   6.512   0.790  1.4419  0.2231  0.6042
11743TIP3    H256721   4.408   6.604   0.862  0.6656  1.1559  0.4965
11744TIP3   OH256722   4.438   6.820   3.416 -0.3679  0.8058  0.5450
11744TIP3    H156723   4.434   6.796   3.508  1.0288 -0.7076  0.2516
11744TIP3    H256724   4.438   6.737   3.369  2.2472  1.3887 -0.6565
11745TIP3   OH256725   3.518   2.905  10.426 -0.4079  0.2248  0.8266
11745TIP3    H156726   3.463   2.850  10.482 -1.1605  1.6989  1.6145
11745TIP3    H256727   3.559   2.844  10.365 -2.0522 -1.0727  0.9380
11746TIP3   OH256728   3.199   1.196   4.961 -0.1437 -0.0744 -0.0399
11746TIP3    H156729   3.135   1.159   4.900 -0.4282  0.4463 -0.0604
11746TIP3    H256730   3.149   1.214   5.041  0.0423  0.0570  0.0475
11747TIP3   OH256731   2.056   4.809  16.579  0.3425  0.0431  0.0637
11747TIP3    H156732   2.077   4.900  16.601 -0.4297  0.1763  0.3051
11747TIP3    H256733   2.100   4.757  16.647 -1.6978  0.4245  1.8051
11748TIP3   OH256734   6.392   1.539  14.490 -0.1452  0.1768  0.1361
11748TIP3    H156735   6.311   1.522  14.444 -0.5937  4.3114 -1.0681
11748TIP3    H256736   6.460   1.532  14.423 -0.0966  0.8708  0.1033
11749TIP3   OH256737   3.389   4.392  14.934  0.1834  0.1569 -0.1931
11749TIP3    H156738   3.391   4.328  14.863 -1.1825  0.7862 -0.8319
11749TIP3    H256739   3.458   4.454  14.913 -0.2693  0.3904 -1.0400
11750TIP3   OH256740   2.176   0.712  13.277  0.0402 -0.0677  0.1235
11750TIP3    H156741   2.192   0.706  13.371 -0.1197  0.7569  0.2072
11750TIP3    H256742   2.209   0.798  13.252  1.9706 -1.0679 -0.9819
11751TIP3   OH256743   3.208   3.378   2.729 -0.0650 -0.1384  0.3395
11751TIP3    H156744   3.266   3.306   2.705  1.4814  0.6908  1.3874
11751TIP3    H256745   3.123   3.337   2.745  0.3965 -1.4908 -0.5410
11752TIP3   OH256746   5.309   5.578   3.199 -0.0387 -0.5450  0.3346
11752TIP3    H156747   5.379   5.639   3.222 -0.1370 -0.1682 -0.3529
11752TIP3    H256748   5.285   5.537   3.283  0.0797  0.2908  0.7872
11753TIP3   OH256749   0.891   4.592  14.612  0.2515 -0.3005 -0.4809
11753TIP3    H156750   0.944   4.517  14.585 -0.0211 -0.1979 -1.3492
11753TIP3    H256751   0.858   4.569  14.698  0.8997 -0.7865 -0.3531
11754TIP3   OH256752   3.374   6.459  16.287 -0.6254  0.0760  0.7703
11754TIP3    H156753   3.469   6.471  16.287 -0.1536 -2.7484 -1.5120
11754TIP3    H256754   3.354   6.426  16.375  0.3102  1.4913  1.5531
11755TIP3   OH256755   0.390   4.773  12.636  0.0907  0.4711  0.2297
11755TIP3    H156756   0.415   4.720  12.560 -0.6213  0.3935  0.0403
11755TIP3    H256757   0.429   4.859  12.618  1.5037 -0.0476  0.6844
11756TIP3   OH256758   2.015   4.695   1.685 -0.2278  0.0551  0.2669
11756TIP3    H156759   2.025   4.653   1.600  1.9314  0.0200  0.4970
11756TIP3    H256760   1.970   4.630   1.740 -2.4557  0.3954 -1.0104
11757TIP3   OH256761   2.556   3.310   5.930 -0.0204  0.4116 -0.0493
11757TIP3    H156762   2.601   3.361   5.997  0.5306  0.6201 -0.5648
11757TIP3    H256763   2.480   3.363   5.906 -0.1366  0.4055  0.3042
11758TIP3   OH256764   1.161   5.624  11.680 -0.1345  0.4225  0.3268
11758TIP3    H156765   1.218   5.701  11.674 -0.0390  0.2796 -0.8004
11758TIP3    H256766   1.157   5.590  11.590 -0.3085 -0.7955  0.7834
11759TIP3   OH256767   3.333   5.714  11.867  0.7233 -0.0685 -0.6144
11759TIP3    H156768   3.408   5.654  11.877  1.0438  0.4667  0.3561
11759TIP3    H256769   3.316   5.715  11.773  1.4173 -0.8339 -0.7678
11760TIP3   OH256770   5.996   6.358  13.943  0.6583  0.0545  0.0729
11760TIP3    H156771   6.022   6.289  13.881 -1.5431 -1.3717  0.6219
11760TIP3    H256772   5.937   6.414  13.893  0.8595  0.3835  0.1994
11761TIP3   OH256773   0.348   1.935   1.276 -0.8058  0.2308 -0.0073
11761TIP3    H156774   0.352   1.851   1.231 -0.5955 -0.7245  1.7430
11761TIP3    H256775   0.255   1.949   1.293 -0.7418 -0.3012  0.8462
11762TIP3   OH256776   3.995   3.563  11.119  0.4477 -0.4912  0.2042
11762TIP3    H156777   4.067   3.595  11.065 -0.0769 -0.4237 -0.4644
11762TIP3    H256778   3.918   3.610  11.087 -0.1665 -1.6799 -0.1286
11763TIP3   OH256779   3.640   5.159  16.889  0.0383  0.3476 -0.0524
11763TIP3    H156780   3.616   5.089  16.828  1.0396  0.0670 -0.1379
11763TIP3    H256781   3.673   5.230  16.833  0.7031  0.1937  0.1358
11764TIP3   OH256782   2.616   1.987  11.640  0.3385 -0.5356  0.6578
11764TIP3    H156783   2.642   2.056  11.701  1.2692  0.6261 -0.9609
11764TIP3    H256784   2.522   1.999  11.629  0.9349  3.2278 -2.5782
11765TIP3   OH256785   2.311   6.420   1.487 -0.1412  0.3823  0.1380
11765TIP3    H156786   2.372   6.427   1.414 -1.6293  2.5335 -0.9867
11765TIP3    H256787   2.249   6.352   1.461  1.0041 -0.9645  0.7714
11766TIP3   OH256788   0.082   3.443  15.988 -0.0640  0.1739 -0.2869
11766TIP3    H156789   0.072   3.519  16.044 -0.4700  0.0772 -0.2313
11766TIP3    H256790  -0.001   3.396  15.995  0.7437 -1.1313  0.9436
11767TIP3   OH256791   3.661   6.149  14.468  0.2891  0.2104 -0.4590
11767TIP3    H156792   3.572   6.184  14.470  0.7367  1.3875 -0.3483
11767TIP3    H256793   3.650   6.057  14.444 -0.9678  0.2837 -0.2370
11768TIP3   OH256794   5.748   5.667  13.069 -0.1563  0.0689  0.3112
11768TIP3    H156795   5.812   5.685  13.137 -0.6395 -0.2680  0.8585
11768TIP3    H256796   5.664   5.658  13.115 -0.5935  0.4489 -0.3859
11769TIP3   OH256797   4.398   0.651  15.005 -0.6171  0.1349 -0.0557
11769TIP3    H156798   4.326   0.590  14.993  1.4670 -2.3161 -0.9668
11769TIP3    H256799   4.450   0.614  15.077  0.0145  1.5690  0.2692
11770TIP3   OH256800   5.367   6.008  16.846 -1.0667  0.6535 -0.0600
11770TIP3    H156801   5.366   5.997  16.941  0.1720  2.4677  0.2264
11770TIP3    H256802   5.293   6.066  16.827 -2.3403 -1.0235 -0.4627
11771TIP3   OH256803   2.555   1.047   0.598 -0.7668  0.7173 -0.0362
11771TIP3    H156804   2.610   1.051   0.676 -1.8053 -1.3214  0.8582
11771TIP3    H256805   2.609   1.088   0.529  1.8862 -1.0998  0.7878
11772TIP3   OH256806   3.141   4.575   6.070 -0.2187  0.2227 -0.0374
11772TIP3    H156807   3.163   4.539   6.156 -0.4616  0.9408  0.3247
11772TIP3    H256808   3.046   4.578   6.069 -0.2143  0.2679 -0.3140
11773TIP3   OH256809   3.969   2.483  12.994  0.4689  0.1525 -0.0719
11773TIP3    H156810   3.951   2.404  13.045 -0.0002  1.3085  1.6375
11773TIP3    H256811   4.059   2.506  13.017  0.1984  0.7736  0.4039
11774TIP3   OH256812   5.360   0.627   0.459  0.3807  0.4225  0.1405
11774TIP3    H156813   5.428   0.674   0.411  0.7206 -1.0686 -0.9074
11774TIP3    H256814   5.406   0.556   0.504 -0.4327 -0.5252 -0.4712
11775TIP3   OH256815   6.072   4.231   5.167  0.3688  0.1014 -0.2048
11775TIP3    H156816   6.167   4.234   5.166  0.4112 -0.8462 -0.1659
11775TIP3    H256817   6.046   4.304   5.224  1.0682  0.3214 -0.1648
11776TIP3   OH256818   0.275   5.658  12.884 -0.2416  0.5417 -0.3660
11776TIP3    H156819   0.283   5.725  12.953 -0.8339  0.3126 -0.0732
11776TIP3    H256820   0.355   5.668  12.832 -0.3397  1.5152 -0.3554
11777TIP3   OH256821   2.191   2.691  15.167 -0.1785 -0.2852  0.6219
11777TIP3    H156822   2.106   2.678  15.210  0.1189 -1.0951  0.9652
11777TIP3    H256823   2.186   2.638  15.088  0.8698 -2.2697  1.8084
11778TIP3   OH256824   0.518   4.835   5.172  0.1884 -0.1201  0.0223
11778TIP3    H156825   0.432   4.853   5.132 -0.5701 -2.3588  0.4802
11778TIP3    H256826   0.574   4.813   5.097  0.4495  1.4588 -0.2901
11779TIP3   OH256827   6.043   6.694  10.853  0.0208  0.1573  0.5899
11779TIP3    H156828   6.052   6.600  10.833 -0.4218 -0.1173  1.6115
11779TIP3    H256829   5.978   6.697  10.924  0.3763  1.1965  0.8848
11780TIP3   OH256830   6.204   1.052  12.194 -0.5175 -0.5135 -0.2157
11780TIP3    H156831   6.121   1.085  12.160  0.0574 -0.7780 -1.9813
11780TIP3    H256832   6.216   0.967  12.151  1.3723  0.1995 -1.2412
11781TIP3   OH256833   0.830   4.561  16.546  0.2865 -0.0406 -0.3627
11781TIP3    H156834   0.738   4.534  16.540  0.7048 -1.3728 -1.5315
11781TIP3    H256835   0.879   4.482  16.521  1.7100  1.0001 -0.9821
11782TIP3   OH256836   2.994   4.325   1.966  0.3277 -0.2019  0.5289
11782TIP3    H156837   3.065   4.294   1.909  1.5913  0.9829  1.3870
11782TIP3    H256838   2.983   4.256   2.031  0.0644 -0.8000 -0.1493
11783TIP3   OH256839   4.096   2.869  16.263 -0.1462  0.3731 -0.2550
11783TIP3    H156840   4.075   2.959  16.239  0.4078  0.3426 -0.8784
11783TIP3    H256841   4.162   2.877  16.332  0.1765  0.4474 -0.5690
11784TIP3   OH256842   4.839   0.909   5.705  0.4341  0.1501  0.0351
11784TIP3    H156843   4.790   0.988   5.682 -0.4175  0.0526  1.4288
11784TIP3    H256844   4.781   0.860   5.763  1.5479 -0.7634  0.4199
11785TIP3   OH256845   5.345   5.509   5.095  0.6194 -0.4183 -0.0740
11785TIP3    H156846   5.306   5.494   5.009  0.8253  0.4178 -0.3145
11785TIP3    H256847   5.301   5.587   5.129 -0.6423 -1.6584  1.2965
11786TIP3   OH256848   2.332   3.155  15.521  0.3110 -0.5237 -0.1286
11786TIP3    H156849   2.372   3.207  15.451 -1.8954 -1.4439 -2.2075
11786TIP3    H256850   2.322   3.068  15.483 -0.9355 -1.0836  1.3779
11787TIP3   OH256851   3.143   4.982   4.222  0.2599 -0.0418 -0.2946
11787TIP3    H156852   3.120   4.928   4.146 -1.5607  0.2814 -0.0221
11787TIP3    H256853   3.223   5.027   4.196 -0.7226  0.6309 -2.3422
11788TIP3   OH256854   4.775   1.612   1.764 -0.4625 -0.1737  0.2530
11788TIP3    H156855   4.852   1.588   1.816  1.2138  0.0488 -1.9666
11788TIP3    H256856   4.739   1.529   1.734 -0.4873 -0.2474  0.4892
11789TIP3   OH256857   1.510   3.662  14.030 -0.6090  0.0325  0.4674
11789TIP3    H156858   1.597   3.666  14.069 -1.0687 -1.6853  1.7380
11789TIP3    H256859   1.506   3.575  13.989 -1.6810  0.1599  0.2858
11790TIP3   OH256860   6.209   5.549   1.810 -0.1635  0.0854 -0.3535
11790TIP3    H156861   6.279   5.513   1.754 -0.4107  0.6948 -1.0746
11790TIP3    H256862   6.255   5.576   1.890  0.2739 -0.3616 -0.4410
11791TIP3   OH256863   5.024   5.206  13.380 -0.5570 -0.0831 -0.0215
11791TIP3    H156864   5.087   5.176  13.445 -0.0684  0.3854 -0.2647
11791TIP3    H256865   5.036   5.148  13.305 -1.8294 -1.2668  0.6638
11792TIP3   OH256866   1.914   4.245  11.917  0.3279 -0.3520  0.1590
11792TIP3    H156867   1.837   4.208  11.876  0.9414 -1.1862 -0.2681
11792TIP3    H256868   1.922   4.198  12.001 -1.3218  1.8221  1.6494
11793TIP3   OH256869   2.201   2.253  16.397 -0.3012  0.3045 -0.1336
11793TIP3    H156870   2.235   2.340  16.417  1.7653 -0.4670 -0.0865
11793TIP3    H256871   2.278   2.201  16.375 -1.4101 -1.6676  0.3635
11794TIP3   OH256872   5.752   1.583  16.306 -0.2618 -0.2092  0.2963
11794TIP3    H156873   5.817   1.513  16.303 -0.1102 -0.0503 -0.5869
11794TIP3    H256874   5.804   1.664  16.300 -0.3887  0.0267  1.8966
11795TIP3   OH256875   5.768   6.537   4.874 -0.2466  0.0914  0.2964
11795TIP3    H156876   5.789   6.545   4.780 -1.0458  0.8546  0.1717
11795TIP3    H256877   5.853   6.523   4.916  0.4166  1.9534 -0.3240
11796TIP3   OH256878   5.662   6.418  10.216  0.1741  0.4202 -0.1911
11796TIP3    H156879   5.569   6.442  10.218  0.5005  1.7760 -0.5576
11796TIP3    H256880   5.661   6.323  10.205 -1.1705  0.2351  1.0908
11797TIP3   OH256881   2.679   0.487  10.791  0.5273 -0.1295 -0.5983
11797TIP3    H156882   2.697   0.571  10.833  1.5441 -1.2797  1.4415
11797TIP3    H256883   2.730   0.489  10.710 -0.3206  1.6122 -1.1189
11798TIP3   OH256884   3.464   3.965  12.573  0.2291  0.3818 -0.2832
11798TIP3    H156885   3.497   3.983  12.485  1.4995  0.6581  0.2232
11798TIP3    H256886   3.515   4.022  12.630  0.8890 -1.2399  0.8502
11799TIP3   OH256887   0.005   5.436  13.353 -0.4740 -0.4105  0.1868
11799TIP3    H156888   0.075   5.478  13.303 -0.5944  1.4232  1.4423
11799TIP3    H256889   0.046   5.412  13.436 -0.9104 -0.9043  0.2600
11800TIP3   OH256890   5.103   1.203   0.672  0.1484  0.1328 -0.6182
11800TIP3    H156891   5.031   1.266   0.669  0.5722  0.6629 -0.0163
11800TIP3    H256892   5.160   1.236   0.742 -1.0242 -2.4094  1.7261
11801TIP3   OH256893   0.413   5.822   4.850 -0.1572 -0.2314 -0.1170
11801TIP3    H156894   0.365   5.740   4.855  0.1642 -0.5821 -1.8839
11801TIP3    H256895   0.502   5.796   4.825  0.0557  0.6135 -0.2856
11802TIP3   OH256896   2.811   1.440   0.948  0.2568  0.9461  0.2963
11802TIP3    H156897   2.829   1.388   1.026  2.3698  1.3980  0.1582
11802TIP3    H256898   2.719   1.464   0.957  0.0587 -0.2006  1.9102
11803TIP3   OH256899   5.075   6.762   1.046 -0.0035 -0.0404 -0.4509
11803TIP3    H156900   5.168   6.768   1.026 -0.0257 -1.1602 -0.9668
11803TIP3    H256901   5.033   6.823   0.985  0.3643  0.2805 -0.3871
11804TIP3   OH256902   6.349   0.720   5.596 -0.1524  0.5856  0.2931
11804TIP3    H156903   6.382   0.678   5.675  0.2795  0.1914 -0.0903
11804TIP3    H256904   6.315   0.648   5.542 -1.9619  0.9936  0.8005
11805TIP3   OH256905   0.379   3.284  10.669 -0.0728 -0.0441 -0.4901
11805TIP3    H156906   0.408   3.278  10.760 -0.6178 -1.0474 -0.3801
11805TIP3    H256907   0.371   3.379  10.653  2.6664  0.3088 -0.3506
11806TIP3   OH256908   6.815   3.065  14.979  1.1161 -0.0184 -0.3270
11806TIP3    H156909   6.862   3.123  15.038 -0.0256  0.8039 -0.1937
11806TIP3    H256910   6.723   3.086  14.993  0.7439 -0.9853 -1.1934
11807TIP3   OH256911   5.715   1.925   0.335  0.1151 -0.1522  0.1481
11807TIP3    H156912   5.681   1.835   0.331  0.9079 -0.5544  1.4718
11807TIP3    H256913   5.637   1.980   0.342 -0.3819 -0.7270 -0.6895
11808TIP3   OH256914   4.545   5.738  16.544  0.0034 -0.1110 -0.0622
11808TIP3    H156915   4.459   5.702  16.568  0.4945 -0.6575  0.9527
11808TIP3    H256916   4.570   5.792  16.619  0.4707  0.1909 -0.4324
11809TIP3   OH256917   3.040   4.443  11.451  0.2823  0.4527  0.3066
11809TIP3    H156918   2.980   4.485  11.389  1.2867  1.9608  0.3037
11809TIP3    H256919   3.085   4.376  11.399 -2.2467 -1.6547  0.6097
11810TIP3   OH256920   5.624   3.873  13.031 -0.0176  0.4048 -0.2392
11810TIP3    H156921   5.646   3.862  12.939  2.2061 -2.4171  0.4577
11810TIP3    H256922   5.535   3.840  13.039  0.3655 -0.9834 -1.1861
11811TIP3   OH256923   5.226   0.845   6.175  1.1720  0.0368 -0.2429
11811TIP3    H156924   5.236   0.883   6.262  2.6682 -1.9805  0.5516
11811TIP3    H256925   5.157   0.897   6.134  0.2085  0.8671  2.2385
11812TIP3   OH256926   0.467   1.627   3.395 -0.4250  0.0836 -0.0383
11812TIP3    H156927   0.470   1.582   3.311  0.6849 -1.4270  0.7680
11812TIP3    H256928   0.374   1.629   3.419 -0.7800  0.8084 -1.4181
11813TIP3   OH256929   3.380   4.722   1.886  0.1201  0.0312  0.8551
11813TIP3    H156930   3.380   4.809   1.846 -2.3862  1.0062  2.6905
11813TIP3    H256931   3.466   4.715   1.926  0.9215  0.9982 -0.5862
11814TIP3   OH256932   4.776   2.663  14.480  0.3597 -0.4520  0.2030
11814TIP3    H156933   4.685   2.643  14.501 -0.4395 -0.4217 -2.7658
11814TIP3    H256934   4.786   2.755  14.503 -0.4553 -0.3731  0.2735
11815TIP3   OH256935   1.079   4.088  11.870 -0.8806 -0.5150 -0.4489
11815TIP3    H156936   1.082   4.157  11.804 -0.8300  0.3487  0.4258
11815TIP3    H256937   1.012   4.118  11.932  0.8168 -0.0274  1.2387
11816TIP3   OH256938   3.613   6.523  15.768 -0.4256  0.5430 -0.9487
11816TIP3    H156939   3.655   6.553  15.848 -0.8274  1.0527 -0.9213
11816TIP3    H256940   3.525   6.561  15.771 -0.1765  1.2671 -2.0211
11817TIP3   OH256941   0.475   6.211  12.033  0.2323  0.2300  0.1520
11817TIP3    H156942   0.540   6.281  12.025  2.2152 -1.6726 -1.5347
11817TIP3    H256943   0.395   6.249  11.996  0.4518  2.3886  1.6258
11818TIP3   OH256944   5.763   0.676   4.002  0.6602 -1.1378 -0.5182
11818TIP3    H156945   5.807   0.740   4.057 -1.0069  0.6112 -1.0934
11818TIP3    H256946   5.793   0.591   4.034  1.8126 -0.1165  1.2560
11819TIP3   OH256947   1.002   4.861  10.681  0.1731  0.1087 -0.4927
11819TIP3    H156948   1.013   4.834  10.590  2.2141  0.2502 -0.3295
11819TIP3    H256949   1.038   4.789  10.732 -0.1729  0.4075  0.1925
11820TIP3   OH256950   1.203   0.992   3.439 -0.5945  0.4850  0.3246
11820TIP3    H156951   1.115   0.969   3.467 -0.7998  2.1411  1.1833
11820TIP3    H256952   1.191   1.074   3.390  0.4299  0.5445  0.1548
11821TIP3   OH256953   0.085   2.191  12.773  0.4135  0.6587  0.3233
11821TIP3    H156954   0.004   2.218  12.815  0.1279 -0.8954  0.8455
11821TIP3    H256955   0.094   2.249  12.698 -2.2522 -0.3641 -0.9347
11822TIP3   OH256956   4.558   2.160   2.839  0.4673  0.4659  0.0454
11822TIP3    H156957   4.513   2.197   2.915  0.7105  0.0292  0.4096
11822TIP3    H256958   4.527   2.211   2.765  1.3477  1.8912  0.6197
11823TIP3   OH256959   6.742   1.114  15.163 -0.2838  0.2176  0.3801
11823TIP3    H156960   6.814   1.171  15.135 -0.6517  1.7097  2.2844
11823TIP3    H256961   6.723   1.060  15.086  1.1919  1.5076 -0.9611
11824TIP3   OH256962   4.439   2.034   3.246  0.2400  0.3604  0.5915
11824TIP3    H156963   4.484   1.981   3.180  0.1972 -0.4129  1.1719
11824TIP3    H256964   4.397   2.104   3.196  0.6667  0.1086 -0.1370
11825TIP3   OH256965   0.668   1.901  10.599  0.6606  0.0408 -0.0045
11825TIP3    H156966   0.592   1.951  10.630  1.6436  0.1466  2.5139
11825TIP3    H256967   0.737   1.966  10.587  1.0293 -0.3126  0.1527
11826TIP3   OH256968   3.747   3.077   2.169  1.0526 -0.2390  0.3591
11826TIP3    H156969   3.826   3.033   2.138 -0.7060 -1.6820 -2.4856
11826TIP3    H256970   3.719   3.131   2.095 -0.3801  0.6124  1.4647
11827TIP3   OH256971   3.354   4.952   5.808 -0.6737 -0.3032  0.0680
11827TIP3    H156972   3.317   5.040   5.805 -0.3798 -0.1132  1.4755
11827TIP3    H256973   3.296   4.903   5.867 -0.3280 -0.8090  0.0011
11828TIP3   OH256974   4.109   6.725  14.324 -0.2396 -1.5115  0.1206
11828TIP3    H156975   4.143   6.763  14.405 -0.6801 -1.2689  0.1935
11828TIP3    H256976   4.031   6.677  14.352 -2.0174  0.8425 -0.5297
11829TIP3   OH256977   1.900   5.559   2.056 -0.3530 -0.1948 -0.2057
11829TIP3    H156978   1.852   5.517   1.985 -0.9581 -0.5254  0.3948
11829TIP3    H256979   1.990   5.565   2.024 -0.4045 -1.2899 -0.5893
11830TIP3   OH256980   4.039   3.621  11.951  0.4982  0.1268 -0.0925
11830TIP3    H156981   3.997   3.704  11.972  1.0919  0.5224 -0.4596
11830TIP3    H256982   4.111   3.643  11.892 -0.5694 -0.8688 -1.8459
11831TIP3   OH256983   5.622   6.441  13.567 -0.4098  0.3729 -0.3022
11831TIP3    H156984   5.570   6.373  13.525 -1.9616  1.5947 -0.4483
11831TIP3    H256985   5.623   6.513  13.504  0.5661  0.7814  0.1551
11832TIP3   OH256986   5.525   4.884   3.202  0.1159  0.0591  0.3088
11832TIP3    H156987   5.584   4.842   3.140 -0.8567 -0.1980 -0.4613
11832TIP3    H256988   5.582   4.934   3.260  1.5311 -3.3313  2.1472
11833TIP3   OH256989   6.672   2.489   1.787 -0.1088 -0.0331  0.4415
11833TIP3    H156990   6.686   2.540   1.867 -0.3575  1.5708 -0.4998
11833TIP3    H256991   6.581   2.505   1.763  0.3613  0.7257 -0.9610
11834TIP3   OH256992   1.470   5.226   5.293  0.0283  0.2777  0.0873
11834TIP3    H156993   1.555   5.214   5.335  0.9239 -1.4447 -2.0219
11834TIP3    H256994   1.421   5.147   5.315 -0.7097  0.8275  0.4913
11835TIP3   OH256995   0.798   5.323   3.050 -0.0914  0.4741  0.5977
11835TIP3    H156996   0.755   5.264   2.988 -0.7792 -0.7186  2.1540
11835TIP3    H256997   0.728   5.351   3.110  0.8031  0.5187  1.6560
11836TIP3   OH256998   0.274   6.680  15.155 -0.1711 -0.0602  0.0793
11836TIP3    H156999   0.342   6.683  15.088  0.2237  1.0884  0.4974
11836TIP3    H257000   0.284   6.594  15.197  0.2610 -0.3560 -0.6262
11837TIP3   OH257001   5.667   2.578  14.754 -0.3514  0.4818 -0.4399
11837TIP3    H157002   5.583   2.537  14.734  0.0961  0.3650 -2.2440
11837TIP3    H257003   5.665   2.662  14.708  1.1307 -0.2279 -1.9260
11838TIP3   OH257004   1.766   6.033  11.508 -0.4924  0.4718 -0.4654
11838TIP3    H157005   1.839   6.068  11.458 -0.0116  0.9003  0.5184
11838TIP3    H257006   1.750   5.946  11.470 -1.0867  1.3339 -2.2915
11839TIP3   OH257007   0.319   1.230   2.700  0.6090  0.6119 -0.0572
11839TIP3    H157008   0.306   1.141   2.731  0.8664 -0.4655 -2.8303
11839TIP3    H257009   0.405   1.255   2.735  2.1638 -1.5775 -2.0551
11840TIP3   OH257010   1.892   6.359  11.287  1.1602 -0.4325 -0.2827
11840TIP3    H157011   1.862   6.450  11.290 -0.6639 -0.9358 -1.2672
11840TIP3    H257012   1.983   6.364  11.258  1.1694  1.0945 -0.0385
11841TIP3   OH257013   0.969   0.066  13.278 -0.2911  0.1553 -0.4387
11841TIP3    H157014   1.012   0.050  13.194 -0.8059 -1.3970 -0.4395
11841TIP3    H257015   0.879   0.089  13.256 -0.5586 -0.7463 -0.2999
11842TIP3   OH257016   5.554   6.002  16.641 -0.1054 -0.2266  0.4974
11842TIP3    H157017   5.497   5.972  16.570  0.3696  2.9869 -1.4685
11842TIP3    H257018   5.493   6.026  16.712 -0.7328 -1.8085  0.5268
11843TIP3   OH257019   1.938   2.413  16.724  0.3543  0.6929 -0.7963
11843TIP3    H157020   1.896   2.472  16.787  1.2568  0.7410 -0.2365
11843TIP3    H257021   1.914   2.450  16.638  0.4803  1.5809 -0.4619
11844TIP3   OH257022   0.038   2.783  15.128  0.3592  0.6382 -0.1238
11844TIP3    H157023   0.100   2.829  15.071  1.8458 -0.8697  0.2225
11844TIP3    H257024   0.033   2.838  15.207  0.7833  1.0689 -0.3915
11845TIP3   OH257025   6.755   4.516  13.379  0.4254 -0.4277 -0.2230
11845TIP3    H157026   6.726   4.445  13.435 -0.1502  0.4108  0.5696
11845TIP3    H257027   6.706   4.504  13.297 -0.7737 -0.1178  0.4290
11846TIP3   OH257028   5.224   6.208  15.172  1.0511  0.4520  0.0031
11846TIP3    H157029   5.269   6.148  15.232  1.2092  0.7448  0.1804
11846TIP3    H257030   5.283   6.283  15.165  1.9614 -0.3898 -2.0630
11847TIP3   OH257031   1.110   5.963   0.663  0.2916 -0.2668 -0.7040
11847TIP3    H157032   1.075   6.041   0.705  2.2365 -1.0733  2.7565
11847TIP3    H257033   1.126   5.990   0.572 -0.5173  2.8498 -0.0328
11848TIP3   OH257034   4.434   5.608  14.126 -0.1141  0.0022 -0.2004
11848TIP3    H157035   4.411   5.690  14.082 -0.7396 -0.5034 -0.8432
11848TIP3    H257036   4.482   5.558  14.060  0.4995 -0.0504  0.2736
11849TIP3   OH257037   4.333   0.793  12.105  0.1955  0.3469  0.2425
11849TIP3    H157038   4.376   0.726  12.051  1.0410  0.1761  1.1016
11849TIP3    H257039   4.315   0.865  12.044  1.3527  0.2656 -0.2198
11850TIP3   OH257040   1.516   6.487  14.749  0.2611  0.6852 -0.3712
11850TIP3    H157041   1.464   6.554  14.793 -1.8216  0.4925 -2.3503
11850TIP3    H257042   1.588   6.535  14.708  0.4038  1.2850  0.5558
11851TIP3   OH257043   2.419   5.203  10.813  0.0209 -0.8478  0.3599
11851TIP3    H157044   2.426   5.286  10.766  2.1988 -1.3211 -0.2557
11851TIP3    H257045   2.467   5.218  10.894 -0.9017 -1.0570  0.9550
11852TIP3   OH257046   1.521   1.855   5.171 -0.1417 -0.1855 -0.3235
11852TIP3    H157047   1.548   1.848   5.079 -1.1641 -0.0322 -0.6421
11852TIP3    H257048   1.426   1.847   5.169 -0.3203  1.3885  0.5579
11853TIP3   OH257049   2.281   5.784  13.294  0.0625 -0.2138 -0.3370
11853TIP3    H157050   2.210   5.818  13.348 -0.2117 -1.2975  0.0248
11853TIP3    H257051   2.293   5.850  13.225 -1.5367 -0.1590 -0.6138
11854TIP3   OH257052   3.691   6.585   2.759 -0.4128  0.6551  0.0867
11854TIP3    H157053   3.597   6.585   2.773 -0.5254 -2.3175  0.0000
11854TIP3    H257054   3.703   6.637   2.679 -2.0662  0.4721 -0.3180
11855TIP3   OH257055   3.053   4.794  11.613  0.2140 -0.9254 -0.0040
11855TIP3    H157056   3.025   4.735  11.683 -1.8830  2.9468  2.7371
11855TIP3    H257057   2.974   4.842  11.589  2.1850  2.5221 -0.1922
11856TIP3   OH257058   3.824   5.042   4.576 -0.0704 -0.6035  0.5068
11856TIP3    H157059   3.799   5.134   4.582  0.1032 -0.5714  0.7776
11856TIP3    H257060   3.912   5.044   4.539 -0.5411 -0.7265 -0.6541
11857TIP3   OH257061   0.704   1.936  12.275  0.4958  0.5152  0.2176
11857TIP3    H157062   0.636   1.948  12.341  1.7373  0.9250  1.4879
11857TIP3    H257063   0.658   1.939  12.191 -0.8574  2.2736  0.9603
11858TIP3   OH257064   2.574   1.484   4.814 -0.3468  0.0524 -0.1970
11858TIP3    H157065   2.485   1.514   4.835 -0.3819  0.5347 -0.9725
11858TIP3    H257066   2.608   1.450   4.897 -0.9309  0.6867  0.3207
11859TIP3   OH257067   0.878   6.717   5.320 -0.2636  0.0900 -0.2548
11859TIP3    H157068   0.963   6.755   5.299 -0.4088 -0.3832 -1.9126
11859TIP3    H257069   0.827   6.730   5.239 -0.7408 -2.4030 -0.4086
11860TIP3   OH257070   6.177   3.741  12.912 -0.6282  0.4556 -0.1328
11860TIP3    H157071   6.128   3.730  12.994  0.7257  0.9618  0.7822
11860TIP3    H257072   6.242   3.808  12.932  1.9540 -1.7409 -0.5678
11861TIP3   OH257073   4.051   0.391   1.665  0.4244  0.0459 -0.1437
11861TIP3    H157074   3.956   0.404   1.668  0.3753 -0.2298 -0.4419
11861TIP3    H257075   4.086   0.454   1.729 -0.0664 -0.9409  1.1380
11862TIP3   OH257076   4.489   1.919   4.075 -0.9569 -0.1875 -0.7071
11862TIP3    H157077   4.396   1.936   4.087 -0.7569  1.4218 -1.2312
11862TIP3    H257078   4.494   1.825   4.055 -2.3239 -0.5466  0.4977
11863TIP3   OH257079   6.303   6.790  13.174  0.4240  0.4603 -0.0209
11863TIP3    H157080   6.391   6.816  13.149 -0.5727  3.2158 -1.0794
11863TIP3    H257081   6.315   6.729  13.248  3.1435  1.8854  0.8337
11864TIP3   OH257082   5.010   3.115  16.107  0.1917 -0.4389 -0.0670
11864TIP3    H157083   5.062   3.060  16.165  0.0851  0.4123  0.8473
11864TIP3    H257084   5.037   3.204  16.126  1.6189 -0.1831 -2.7528
11865TIP3   OH257085   4.980   1.341   3.281  0.3566 -0.0788 -0.0373
11865TIP3    H157086   4.976   1.417   3.223 -0.9964 -1.1598 -1.4359
11865TIP3    H257087   4.951   1.375   3.366  0.2939  1.0785 -0.4940
11866TIP3   OH257088   3.556   2.951   3.761 -0.1083  0.6488 -0.3492
11866TIP3    H157089   3.550   3.016   3.691 -0.7947  0.3141 -0.6147
11866TIP3    H257090   3.648   2.954   3.789  0.8875 -1.0622 -3.0477
11867TIP3   OH257091   5.158   5.945   6.212 -0.0995  0.7033 -0.3128
11867TIP3    H157092   5.188   6.010   6.276  1.5281  0.7738 -1.1235
11867TIP3    H257093   5.181   5.861   6.251 -1.1055  0.6365  0.1751
11868TIP3   OH257094   2.235   5.257  14.177 -0.1585 -0.2427 -0.1801
11868TIP3    H157095   2.258   5.221  14.263 -0.8809 -1.0950 -0.3225
11868TIP3    H257096   2.146   5.290  14.187 -0.0412  0.1677 -0.4576
11869TIP3   OH257097   1.730   5.922   4.672 -1.0394  0.2180 -0.5860
11869TIP3    H157098   1.788   5.855   4.636 -0.6829 -0.4332  1.0948
11869TIP3    H257099   1.761   6.004   4.633 -0.4756 -0.3939 -1.4639
11870TIP3   OH257100   1.502   2.135   3.160 -1.2198  0.2243  0.2562
11870TIP3    H157101   1.489   2.045   3.188 -0.4194 -0.1663 -0.5753
11870TIP3    H257102   1.597   2.147   3.157 -1.3099  1.0225  0.1486
11871TIP3   OH257103   5.990   5.924   2.245  0.3050 -0.0526  0.4386
11871TIP3    H157104   6.033   5.955   2.324  0.9727  1.8870 -0.6253
11871TIP3    H257105   6.020   5.833   2.236  2.9644  0.7234  0.6109
11872TIP3   OH257106   6.763   0.043   5.513 -0.4761 -0.1415 -0.0245
11872TIP3    H157107   6.800  -0.045   5.525  0.4680  0.2681  0.1549
11872TIP3    H257108   6.700   0.052   5.584 -1.7903 -1.2749 -0.9825
11873TIP3   OH257109   0.621   5.197   2.438 -0.4034  0.4180  0.8182
11873TIP3    H157110   0.662   5.185   2.353 -0.0414 -1.5790  1.2316
11873TIP3    H257111   0.568   5.277   2.428  0.0887  0.5524 -1.0699
11874TIP3   OH257112   1.583   1.887   4.516 -0.1136  0.3406  0.1261
11874TIP3    H157113   1.672   1.879   4.551  0.4510  1.3783 -1.0083
11874TIP3    H257114   1.578   1.978   4.487 -1.7055  0.4078  0.5592
11875TIP3   OH257115   2.006   4.086  14.871  0.4666 -0.4189 -0.4020
11875TIP3    H157116   2.028   4.177  14.890 -1.2435 -0.2915  1.1715
11875TIP3    H257117   1.917   4.089  14.836 -0.2506 -1.5885  1.2008
11876TIP3   OH257118   0.804   1.584  16.782  0.2904  0.1132  0.3597
11876TIP3    H157119   0.740   1.520  16.751  0.4210 -0.3984  1.1335
11876TIP3    H257120   0.832   1.552  16.867  0.0326  1.4271  0.9739
11877TIP3   OH257121   4.289   5.323   5.289 -0.4063  0.1673 -0.5240
11877TIP3    H157122   4.305   5.284   5.375  0.3304  2.1638  0.2977
11877TIP3    H257123   4.217   5.271   5.252 -0.2314 -1.2024  0.9641
11878TIP3   OH257124   1.316   5.305   5.095 -0.1445  0.4598 -0.4419
11878TIP3    H157125   1.390   5.273   5.147  0.5240  1.2681 -0.8712
11878TIP3    H257126   1.251   5.331   5.160  0.3442  0.6645 -0.0252
11879TIP3   OH257127   5.801   5.742   3.954  0.4858 -0.0840 -0.0837
11879TIP3    H157128   5.821   5.726   3.862  2.7424 -0.8926  0.4934
11879TIP3    H257129   5.831   5.832   3.969 -3.9920  1.8955 -1.1039
11880TIP3   OH257130   4.572   3.472  12.260 -0.2685  0.0026  0.3648
11880TIP3    H157131   4.492   3.427  12.234  0.3062 -0.6049 -0.4124
11880TIP3    H257132   4.596   3.524  12.183  0.7702 -0.8163  0.1143
11881TIP3   OH257133   4.270   1.139  16.422 -0.4719 -0.5698  0.5896
11881TIP3    H157134   4.281   1.096  16.507  0.1587 -1.0683  0.2673
11881TIP3    H257135   4.287   1.231  16.439  0.7315 -0.8161  0.8080
11882TIP3   OH257136   3.758   4.404  13.837  0.0788 -0.4797  0.0349
11882TIP3    H157137   3.663   4.399  13.825  0.1586  0.5238 -1.2344
11882TIP3    H257138   3.769   4.460  13.914 -0.3540 -0.6473  0.2239
11883TIP3   OH257139   4.566   0.162   4.398  0.2634  0.0074  0.1810
11883TIP3    H157140   4.527   0.170   4.485  3.2915 -0.0867  1.7067
11883TIP3    H257141   4.642   0.221   4.400  1.6904 -1.6041 -1.5768
11884TIP3   OH257142   1.813   5.473   4.825 -0.1011  0.2035  0.1634
11884TIP3    H157143   1.903   5.479   4.792 -0.0658  1.0246  0.3856
11884TIP3    H257144   1.791   5.562   4.850 -1.3212  0.1896 -0.7662
11885TIP3   OH257145   5.493   4.793  16.847  0.6916 -0.1205  0.4431
11885TIP3    H157146   5.581   4.755  16.846  0.2027 -1.3004 -0.7174
11885TIP3    H257147   5.439   4.725  16.887 -0.2612 -0.8885 -1.9793
11886TIP3   OH257148   4.769   1.318   2.204  0.1501 -0.4295  0.0838
11886TIP3    H157149   4.700   1.379   2.178  1.7776  2.3979  1.8574
11886TIP3    H257150   4.810   1.292   2.121  1.3273  3.4430 -0.7372
11887TIP3   OH257151   0.555   0.580  16.711  0.5166  0.2580  0.2158
11887TIP3    H157152   0.603   0.501  16.686  0.6156 -0.2006  1.7579
11887TIP3    H257153   0.573   0.642  16.640  4.1724  0.4219  1.1062
11888TIP3   OH257154   6.100   0.105  13.092  0.0915 -0.0902  0.1207
11888TIP3    H157155   6.167   0.037  13.086 -0.8102 -1.0650  0.5494
11888TIP3    H257156   6.025   0.060  13.132 -0.5056  1.1930  0.4904
11889TIP3   OH257157   4.619   4.800   1.158 -0.7811 -0.0600  0.0106
11889TIP3    H157158   4.648   4.722   1.111 -0.3933  0.2204 -0.2238
11889TIP3    H257159   4.557   4.843   1.099 -0.2138  0.3481 -0.2919
11890TIP3   OH257160   4.927   1.310   5.526  0.2072 -0.1698  0.2044
11890TIP3    H157161   4.914   1.335   5.435  1.4817  0.6702  0.2368
11890TIP3    H257162   4.887   1.223   5.533 -0.9557  0.2525 -0.8435
11891TIP3   OH257163   3.668   4.279  16.238  0.1021 -0.3624  0.4253
11891TIP3    H157164   3.579   4.269  16.274  1.6246 -1.0758  4.5319
11891TIP3    H257165   3.715   4.203  16.271  2.8595  1.2809  0.5410
11892TIP3   OH257166   3.112   4.822   3.488  0.5287  0.0890 -0.3907
11892TIP3    H157167   3.112   4.915   3.466  1.0461 -0.2495 -1.8934
11892TIP3    H257168   3.023   4.804   3.516  0.9242  1.5029  2.1378
11893TIP3   OH257169   3.258   0.713  14.328  0.0959  0.2743  0.6223
11893TIP3    H157170   3.330   0.721  14.390  0.2298  2.0193  0.3049
11893TIP3    H257171   3.273   0.784  14.265 -1.6433  0.4028  0.2937
11894TIP3   OH257172   2.802   1.235  12.673  0.1580 -0.1721  0.5085
11894TIP3    H157173   2.770   1.324  12.659  0.3133 -0.1072  0.5633
11894TIP3    H257174   2.722   1.182  12.683  0.0690 -0.0103  0.6552
11895TIP3   OH257175   5.380   1.934   4.354  0.2292  0.4735 -0.2458
11895TIP3    H157176   5.355   1.992   4.426  1.5420  2.5585 -1.3787
11895TIP3    H257177   5.446   1.877   4.392  2.0612  2.5655 -0.0915
11896TIP3   OH257178   5.209   5.699   5.700  0.3176 -0.2793  0.3551
11896TIP3    H157179   5.177   5.722   5.612 -1.3074  0.0067  0.9744
11896TIP3    H257180   5.196   5.605   5.706 -0.1448 -0.2132  0.4832
11897TIP3   OH257181   5.689   1.120   3.901 -0.1504 -0.4653 -1.0461
11897TIP3    H157182   5.771   1.147   3.943 -0.6033 -1.2629  0.4438
11897TIP3    H257183   5.633   1.197   3.907  0.3998  0.0183 -1.8879
11898TIP3   OH257184   2.763   1.575   1.316  0.1137  0.1676  0.0980
11898TIP3    H157185   2.805   1.576   1.402  1.9195 -0.2308 -0.7219
11898TIP3    H257186   2.783   1.488   1.281  0.2819  0.6792 -1.1176
11899TIP3   OH257187   3.092   3.693   3.633  0.0734  0.0764 -0.4013
11899TIP3    H157188   3.129   3.606   3.621 -1.9614 -0.9940  0.5186
11899TIP3    H257189   3.004   3.686   3.596 -0.1093  1.7630 -0.3499
11900TIP3   OH257190   1.127   3.568  16.268 -0.6170 -0.0571 -0.2588
11900TIP3    H157191   1.150   3.647  16.219 -1.0885 -1.7635 -3.5273
11900TIP3    H257192   1.035   3.579  16.289  0.1492  1.8203  2.8213
11901TIP3   OH257193   6.799   0.813  13.250  0.2910  0.2432  0.0658
11901TIP3    H157194   6.719   0.794  13.298  0.1000  1.3914  0.2434
11901TIP3    H257195   6.770   0.854  13.169  0.6962  0.9920  0.2870
11902TIP3   OH257196   6.237   3.196   0.307  0.2791  0.0749  0.4316
11902TIP3    H157197   6.270   3.279   0.270  1.4966 -0.0427  1.1791
11902TIP3    H257198   6.305   3.132   0.286 -0.3983 -0.6196  0.3377
11903TIP3   OH257199   3.106   5.369   5.549 -0.4195 -0.0245 -0.1425
11903TIP3    H157200   3.173   5.438   5.556  1.0420 -1.3017 -0.8638
11903TIP3    H257201   3.051   5.381   5.625  2.2437 -0.5266  2.0208
11904TIP3   OH257202   0.941   2.135  12.552 -0.0045 -0.2563  0.2920
11904TIP3    H157203   1.002   2.156  12.623  0.1477  0.1299  0.0512
11904TIP3    H257204   0.873   2.081  12.593  0.7839 -1.1576  0.4475
11905TIP3   OH257205   0.451   5.775   5.297 -0.5818 -0.8274 -0.1989
11905TIP3    H157206   0.485   5.843   5.240 -1.5710 -1.3427 -1.4503
11905TIP3    H257207   0.362   5.759   5.266 -0.8166 -1.7999  0.8796
11906TIP3   OH257208   1.078   4.004  14.660 -0.0919  0.1691 -0.3856
11906TIP3    H157209   1.044   3.915  14.668  0.5543 -0.4069 -3.0279
11906TIP3    H257210   1.000   4.060  14.667 -1.0173 -0.8511 -2.0029
11907TIP3   OH257211   0.466   2.336  13.203  0.0215 -0.4730 -0.2707
11907TIP3    H157212   0.447   2.307  13.292 -1.7150 -0.2363 -0.5310
11907TIP3    H257213   0.411   2.414  13.190 -0.0688 -0.7316 -1.6645
11908TIP3   OH257214   0.040   0.847   5.396 -0.2561  0.5536  0.3741
11908TIP3    H157215   0.128   0.886   5.402 -0.5764  1.4311 -0.3990
11908TIP3    H257216  -0.008   0.906   5.338 -0.5441 -1.4352 -1.5439
11909TIP3   OH257217   1.176   1.868  13.359 -0.0982  0.5540 -0.2195
11909TIP3    H157218   1.092   1.826  13.380  0.1474 -0.2037 -0.7560
11909TIP3    H257219   1.187   1.934  13.428 -0.4674 -0.2813  0.6538
11910TIP3   OH257220   2.954   4.680  11.995 -0.5251  0.1560  0.7859
11910TIP3    H157221   2.957   4.613  11.926 -2.6899 -1.3600  2.0292
11910TIP3    H257222   3.035   4.668  12.044  0.7286  0.8128 -1.0611
11911TIP3   OH257223   4.714   0.167   2.894 -0.3804 -0.2704  0.2237
11911TIP3    H157224   4.807   0.147   2.910 -0.6745 -1.3576  0.6251
11911TIP3    H257225   4.674   0.166   2.981 -0.5620  1.3882  0.1895
11912TIP3   OH257226   1.668   3.553  16.854  0.2058 -0.1170  0.1721
11912TIP3    H157227   1.738   3.490  16.837 -1.5992 -2.3196  0.4984
11912TIP3    H257228   1.713   3.637  16.862  2.8875 -1.5314  1.1088
11913TIP3   OH257229   5.729   1.921  12.860  0.5690 -0.6348  0.2008
11913TIP3    H157230   5.734   2.011  12.827 -1.4424 -0.5303  0.0576
11913TIP3    H257231   5.693   1.930  12.948 -1.1157 -1.3621 -0.3785
11914TIP3   OH257232   4.365   6.133   2.898 -0.4786 -0.8265  1.0435
11914TIP3    H157233   4.408   6.057   2.937  1.2634  0.0648  0.9423
11914TIP3    H257234   4.383   6.205   2.958 -0.0422  0.0085 -0.0578
11915TIP3   OH257235   6.671   2.020   4.504 -0.1767  0.0572 -0.0159
11915TIP3    H157236   6.716   1.961   4.565 -0.4320 -1.3341 -1.1398
11915TIP3    H257237   6.598   2.055   4.555 -0.5654 -1.3160  0.4209
11916TIP3   OH257238   5.027   5.587   3.073 -0.0041  0.3532  0.6025
11916TIP3    H157239   5.107   5.588   3.126  1.1323 -1.8471 -0.9089
11916TIP3    H257240   5.053   5.627   2.990 -0.6645  0.2191  0.3245
11917TIP3   OH257241   2.252   4.508  16.697 -0.4648  0.0575  0.0646
11917TIP3    H157242   2.296   4.425  16.716 -1.4191 -0.1822  1.3132
11917TIP3    H257243   2.262   4.519  16.602  1.0811 -0.6606  0.1124
11918TIP3   OH257244   1.979   2.155   2.754  0.8038 -0.7909  0.0683
11918TIP3    H157245   1.888   2.175   2.778  0.8378 -1.9653  1.2179
11918TIP3    H257246   1.986   2.187   2.663 -0.6912 -0.5134  0.0169
11919TIP3   OH257247   4.585   6.001   3.337 -0.7602  0.8061  0.1232
11919TIP3    H157248   4.572   5.908   3.320 -2.7348  1.2503 -1.0898
11919TIP3    H257249   4.661   6.004   3.395  0.1374 -1.4542 -0.8308
11920TIP3   OH257250   0.143   0.495   0.192 -0.2336  0.1614  0.0736
11920TIP3    H157251   0.193   0.534   0.121 -1.8429 -1.0921 -1.8574
11920TIP3    H257252   0.201   0.428   0.228  0.2511  0.1388 -0.7226
11921TIP3   OH257253   1.246   5.192   0.879  0.1786  0.3046  0.0415
11921TIP3    H157254   1.319   5.214   0.937  0.1167 -2.5452  1.3709
11921TIP3    H257255   1.168   5.210   0.932  0.0385  0.0005 -0.0615
11922TIP3   OH257256   0.209   0.460  16.364  0.3036  0.0844 -0.1453
11922TIP3    H157257   0.262   0.506  16.300  1.7825  0.8784  1.5588
11922TIP3    H257258   0.192   0.374  16.324 -0.0706  1.0519 -2.1606
11923TIP3   OH257259   1.493   0.451  12.660  0.0363  0.1182 -0.2742
11923TIP3    H157260   1.506   0.464  12.566 -1.4090  0.0597 -0.5145
11923TIP3    H257261   1.450   0.365  12.666 -0.2432  0.2991  0.3958
11924TIP3   OH257262   0.800   6.639   1.805 -0.6157  0.1021  0.4131
11924TIP3    H157263   0.763   6.583   1.873  0.2077  0.8321  1.4838
11924TIP3    H257264   0.888   6.660   1.836 -0.5907  1.2701 -0.4007
11925TIP3   OH257265   6.783   2.866   6.001 -0.4092  0.2177 -0.0565
11925TIP3    H157266   6.749   2.934   5.942  1.2768  1.2500  0.1077
11925TIP3    H257267   6.813   2.797   5.942 -1.6612 -0.2066 -0.2423
11926TIP3   OH257268   5.686   2.726  11.761 -0.2769  0.5455 -0.4719
11926TIP3    H157269   5.765   2.779  11.749 -0.4547  1.0268  0.3978
11926TIP3    H257270   5.717   2.645  11.803  0.0350 -0.1967 -2.0591
11927TIP3   OH257271   0.657   4.168  13.833  0.4533  0.0718  0.1289
11927TIP3    H157272   0.569   4.168  13.872 -0.6243  2.6217 -1.9601
11927TIP3    H257273   0.716   4.184  13.906 -0.8095 -1.3888  1.5390
11928TIP3   OH257274   3.976   2.644  12.109 -0.3127 -0.3649 -0.1788
11928TIP3    H157275   4.044   2.605  12.164 -0.7171  0.7259  1.1653
11928TIP3    H257276   3.995   2.738  12.111  0.9069 -0.3828 -3.6761
11929TIP3   OH257277   6.700   2.906  13.608 -0.1469  0.3291 -0.5937
11929TIP3    H157278   6.643   2.919  13.532 -0.5580 -1.4089 -0.6153
11929TIP3    H257279   6.693   2.813  13.628  0.8695  0.5343  0.8686
11930TIP3   OH257280   4.500   4.643   5.628 -0.6325 -0.4836 -0.2178
11930TIP3    H157281   4.471   4.684   5.709  1.6238  0.2106  0.3033
11930TIP3    H257282   4.534   4.558   5.654 -0.7936 -0.6654 -0.5848
11931TIP3   OH257283   5.097   4.088  13.735  0.3015 -0.2350  0.2857
11931TIP3    H157284   5.166   4.153  13.723 -0.2036  0.2740  0.0853
11931TIP3    H257285   5.143   4.008  13.759  0.8493  0.5870  2.1355
11932TIP3   OH257286   1.616   4.715   2.891 -0.1193 -0.1065 -0.0109
11932TIP3    H157287   1.707   4.699   2.916  0.8740  2.4977 -1.6330
11932TIP3    H257288   1.580   4.764   2.965 -0.1398 -0.8676  0.4965
11933TIP3   OH257289   0.036   0.118  16.769 -0.8230 -0.4899 -0.1458
11933TIP3    H157290   0.065   0.207  16.750 -1.9495 -0.0306  0.1869
11933TIP3    H257291   0.045   0.110  16.864 -1.5224 -0.4223 -0.0674
11934TIP3   OH257292   4.957   4.807   2.666  0.3238 -0.2084 -0.2112
11934TIP3    H157293   4.873   4.809   2.620  1.2035 -2.1397 -2.0456
11934TIP3    H257294   5.005   4.882   2.632 -0.5922  0.8836  0.8195
11935TIP3   OH257295   2.579   4.182   4.742  0.8917  0.1143 -0.0904
11935TIP3    H157296   2.647   4.246   4.763 -0.6881  2.1933 -0.9966
11935TIP3    H257297   2.583   4.172   4.647  0.0765  0.0987 -0.1307
11936TIP3   OH257298   5.853   1.378  11.430  0.3509  0.0980 -0.4209
11936TIP3    H157299   5.894   1.330  11.502  1.7816  0.2867 -1.0905
11936TIP3    H257300   5.901   1.460  11.425 -1.0382  0.9521 -0.3308
11937TIP3   OH257301   1.455   6.763   4.393 -0.5303 -0.4697  0.4708
11937TIP3    H157302   1.487   6.807   4.314  0.4312 -1.2779  0.3956
11937TIP3    H257303   1.523   6.699   4.415 -0.5615  0.0560  2.2353
11938TIP3   OH257304   0.662   5.216  11.559  0.3857  0.2781  0.0945
11938TIP3    H157305   0.725   5.262  11.503  0.8083  0.4699  0.7211
11938TIP3    H257306   0.588   5.198  11.501  0.7241  0.6672 -0.4729
11939TIP3   OH257307   2.873   1.437  14.599  0.0516  0.4938  0.1556
11939TIP3    H157308   2.897   1.423  14.507 -0.1549 -1.8613  0.4067
11939TIP3    H257309   2.834   1.525  14.600  0.7193  0.8767 -1.8502
11940TIP3   OH257310   0.995   6.412   4.829 -0.3666 -0.4157 -0.2182
11940TIP3    H157311   1.044   6.338   4.866  1.4481 -0.1782 -1.9348
11940TIP3    H257312   0.997   6.478   4.897 -1.3935 -1.6808  1.0770
11941TIP3   OH257313   5.775   4.688   5.295 -0.4892 -0.7570 -0.4000
11941TIP3    H157314   5.699   4.638   5.326 -1.4841  0.4436 -0.7838
11941TIP3    H257315   5.736   4.757   5.241  0.8502  0.3396  0.0136
11942TIP3   OH257316   4.863   5.251   2.406  0.5645  0.3904  0.5296
11942TIP3    H157317   4.812   5.183   2.450  0.1501  0.4548  0.1600
11942TIP3    H257318   4.873   5.320   2.471  0.7353  0.1004  0.8128
11943TIP3   OH257319   5.693   0.405  16.400 -0.5882 -0.0028  0.3369
11943TIP3    H157320   5.627   0.423  16.332 -2.6873 -0.2146  2.1902
11943TIP3    H257321   5.670   0.318  16.433  0.6410 -0.0773  1.0388
11944TIP3   OH257322   5.964   6.313  11.308  0.4982 -0.4112  0.0722
11944TIP3    H157323   5.939   6.320  11.216  2.1247  0.9463 -0.2976
11944TIP3    H257324   5.956   6.402  11.342  3.4901 -0.1113  0.2253
11945TIP3   OH257325   2.599   5.181   4.355 -0.5327 -0.1671  0.0882
11945TIP3    H157326   2.511   5.148   4.373 -0.4251 -0.4326  0.1329
11945TIP3    H257327   2.588   5.241   4.281 -0.8754  0.4239  0.6110
11946TIP3   OH257328   5.461   6.490  14.933 -0.0078 -0.7727  0.5655
11946TIP3    H157329   5.518   6.415  14.911  0.5835 -0.2619  0.3134
11946TIP3    H257330   5.376   6.467  14.896 -0.0522 -1.6832  1.2034
11947TIP3   OH257331   5.453   2.553  14.304  0.0729 -0.0621  0.6171
11947TIP3    H157332   5.372   2.510  14.278 -0.3522  0.9192  0.3072
11947TIP3    H257333   5.522   2.495  14.271 -0.4773 -1.1686  1.3286
11948TIP3   OH257334   6.118   2.561  13.749  1.3789 -0.0734  0.1556
11948TIP3    H157335   6.059   2.636  13.751  0.2386 -0.9521 -0.0285
11948TIP3    H257336   6.203   2.598  13.773  1.2785  1.6472 -1.8245
11949TIP3   OH257337   4.665   5.177  15.327  0.7210  0.3097  0.1664
11949TIP3    H157338   4.731   5.231  15.371 -0.0636  1.6340 -0.2401
11949TIP3    H257339   4.585   5.230  15.329 -0.0386 -0.7764 -0.3923
11950TIP3   OH257340   4.984   4.475  11.808 -0.0583  0.5995  0.3921
11950TIP3    H157341   5.030   4.424  11.741  0.7811  1.3817  0.3464
11950TIP3    H257342   4.898   4.434  11.816  0.2846 -0.2679 -0.2689
11951TIP3   OH257343   6.606   3.114  16.586  0.5126  0.1998  0.0798
11951TIP3    H157344   6.590   3.019  16.583 -0.1940  0.3162  0.0339
11951TIP3    H257345   6.700   3.122  16.576  0.7870 -0.5761  1.7205
11952TIP3   OH257346   0.044   5.827   1.439 -0.6963  0.4827 -0.2444
11952TIP3    H157347  -0.017   5.884   1.393  0.4956  1.2381 -0.9325
11952TIP3    H257348   0.095   5.886   1.494  1.7207  0.3938 -2.2331
11953TIP3   OH257349   5.027   6.466   3.961  0.2954 -0.0642 -0.4213
11953TIP3    H157350   5.026   6.398   4.028 -0.2586 -0.0047 -0.3588
11953TIP3    H257351   4.934   6.487   3.948  0.4194  0.1551 -0.9700
11954TIP3   OH257352   0.805   0.054  16.380  0.0216 -0.0811 -0.5680
11954TIP3    H157353   0.723   0.030  16.424  1.0952 -0.3097  1.4272
11954TIP3    H257354   0.787   0.140  16.341 -0.2317  1.6346  2.8807
11955TIP3   OH257355   3.582   4.703  14.376 -0.1063  0.2307  1.0342
11955TIP3    H157356   3.621   4.626  14.418 -2.4926 -0.5763  1.9288
11955TIP3    H257357   3.610   4.777  14.429  2.9017  0.1871 -0.3033
11956TIP3   OH257358   0.475   2.753  16.303 -0.2007 -0.5788  0.1163
11956TIP3    H157359   0.440   2.667  16.324  1.2266 -0.9995  0.8982
11956TIP3    H257360   0.455   2.806  16.381 -1.7067  0.0295 -0.6437
11957TIP3   OH257361   5.764   4.975  11.574  0.1518  0.0424  0.1964
11957TIP3    H157362   5.703   5.011  11.510 -0.1991 -0.1148  0.4390
11957TIP3    H257363   5.792   4.892  11.538  1.6105  0.9117 -0.7689
11958TIP3   OH257364   0.019   2.628  13.284 -0.5782 -0.2030  0.1012
11958TIP3    H157365  -0.076   2.640  13.279 -0.4845  1.2169  1.1358
11958TIP3    H257366   0.055   2.713  13.261  0.3691 -0.1759  1.5510
11959TIP3   OH257367   4.458   2.569   6.010 -0.1340 -0.0223 -0.3714
11959TIP3    H157368   4.483   2.517   6.087  0.1004  1.7968  0.8458
11959TIP3    H257369   4.495   2.655   6.027 -1.5210  0.8934 -1.7553
11960TIP3   OH257370   1.430   6.841   6.078  0.7053 -0.3650  0.0950
11960TIP3    H157371   1.460   6.916   6.128  0.1288  0.3656 -0.6383
11960TIP3    H257372   1.466   6.765   6.126  3.3613  0.4054 -0.4934
11961TIP3   OH257373   0.554   0.020   4.788 -0.4502 -0.2457  0.1998
11961TIP3    H157374   0.493  -0.033   4.840  2.1654 -2.3427  1.3937
11961TIP3    H257375   0.639  -0.020   4.804  1.1439  1.9197 -2.1482
11962TIP3   OH257376   4.090   1.941   5.787 -0.4680  0.1369  0.0252
11962TIP3    H157377   4.094   1.856   5.831  0.9199  0.2087  0.0615
11962TIP3    H257378   4.079   1.920   5.694 -0.7391 -0.0641  0.1013
11963TIP3   OH257379   5.454   6.543  13.799  0.8382  0.1617  0.8804
11963TIP3    H157380   5.411   6.458  13.792 -1.0944  1.1232  0.1267
11963TIP3    H257381   5.512   6.546  13.723 -0.0454  0.0022  0.1801
11964TIP3   OH257382   6.368   6.055   1.211  0.3259  0.0154  0.4634
11964TIP3    H157383   6.382   6.149   1.202  2.0941 -0.2855 -0.2311
11964TIP3    H257384   6.337   6.044   1.302 -0.5937  1.3043  0.3393
11965TIP3   OH257385   3.142   1.847  11.324 -0.5317 -0.1595 -0.2901
11965TIP3    H157386   3.146   1.903  11.247 -0.0895  0.0306 -0.1338
11965TIP3    H257387   3.232   1.846  11.358 -0.4587 -1.2148 -0.4678
11966TIP3   OH257388   2.601   2.143   0.797 -0.0761  0.2656  0.2049
11966TIP3    H157389   2.604   2.150   0.702  1.2926 -2.4849 -0.0710
11966TIP3    H257390   2.541   2.069   0.813 -1.9076  1.9604  1.6445
11967TIP3   OH257391   1.423   5.065   2.868  0.2837 -0.3051  0.6191
11967TIP3    H157392   1.507   5.060   2.913 -0.5310  0.0892  2.2346
11967TIP3    H257393   1.418   4.983   2.819  1.5141 -0.4195  0.6509
11968TIP3   OH257394   1.751   5.945   5.808 -0.1786 -0.4521  0.2029
11968TIP3    H157395   1.717   6.005   5.741  1.8599  2.1949  1.3379
11968TIP3    H257396   1.706   5.971   5.889  1.9242  0.8396  1.0495
11969TIP3   OH257397   0.342   6.050  10.922  0.4877 -0.3754  0.6007
11969TIP3    H157398   0.288   6.057  10.844  1.5722  0.6711 -0.0848
11969TIP3    H257399   0.325   6.132  10.970 -1.7640 -1.8671  2.5854
11970TIP3   OH257400   1.744   0.664  12.233  0.2476 -0.7586 -0.4660
11970TIP3    H157401   1.691   0.651  12.154 -0.1905 -0.6231 -0.1995
11970TIP3    H257402   1.835   0.655  12.203  0.1236  0.1065 -1.1509
11971TIP3   OH257403   2.463   5.141  12.018 -0.3973 -0.3102  0.1354
11971TIP3    H157404   2.406   5.197  11.966 -1.1403  0.1060  1.3670
11971TIP3    H257405   2.414   5.059  12.027 -1.7555  0.6711  2.7826
11972TIP3   OH257406   6.042   6.791   4.537 -0.3631 -0.4392  0.7246
11972TIP3    H157407   6.008   6.720   4.592 -1.9954 -0.1118  0.2031
11972TIP3    H257408   5.982   6.864   4.554 -1.7861 -0.7271 -2.4739
11973TIP3   OH257409   2.416   0.838  14.535  0.1217  0.1261  0.0807
11973TIP3    H157410   2.349   0.810  14.472  1.2740  1.2083 -1.7289
11973TIP3    H257411   2.488   0.776  14.523  0.6347  0.7628 -0.2413
11974TIP3   OH257412   3.694   0.240   3.351  0.4894  0.0083 -0.1783
11974TIP3    H157413   3.735   0.238   3.264  0.6444  1.0944 -0.1518
11974TIP3    H257414   3.750   0.185   3.405  1.3715  0.6866 -0.3800
11975TIP3   OH257415   4.676   6.629   5.360  0.4087  0.4113  0.6068
11975TIP3    H157416   4.618   6.580   5.418  2.4901  0.2279  2.6946
11975TIP3    H257417   4.655   6.721   5.377 -0.4928  0.3388 -0.0397
11976TIP3   OH257418   6.233   2.871  13.598 -0.4325  0.4860 -0.5995
11976TIP3    H157419   6.140   2.852  13.585 -0.3429 -0.3028 -0.1392
11976TIP3    H257420   6.234   2.956  13.640 -0.9435  0.5272 -0.6567
11977TIP3   OH257421   4.618   4.692  14.494  0.0972  0.0209 -0.2649
11977TIP3    H157422   4.695   4.650  14.532 -0.3497 -1.5065 -0.9727
11977TIP3    H257423   4.576   4.623  14.442  0.2234  1.7684 -2.8520
11978TIP3   OH257424   2.559   1.649  11.685 -0.0164 -0.4905  0.3107
11978TIP3    H157425   2.587   1.577  11.742  1.7988 -0.4599 -0.4878
11978TIP3    H257426   2.635   1.706  11.680  0.1083 -0.7752 -2.5651
11979TIP3   OH257427   5.082   0.478  15.324  0.0892  0.0614  0.3000
11979TIP3    H157428   5.130   0.444  15.400  1.8922  0.6223 -0.5260
11979TIP3    H257429   5.117   0.566  15.311  1.8058 -0.8762 -2.6556
11980TIP3   OH257430   1.761   5.977  10.496 -0.3140 -0.4490 -0.3813
11980TIP3    H157431   1.737   5.884  10.505  0.3743 -0.6535 -0.5888
11980TIP3    H257432   1.851   5.975  10.464 -0.1406  0.3024  0.0569
11981TIP3   OH257433   5.770   5.953   0.347  0.1512 -0.1876  0.0385
11981TIP3    H157434   5.857   5.913   0.358  0.9907  1.4854 -0.1622
11981TIP3    H257435   5.715   5.910   0.412  1.4645 -0.3750  1.0636
11982TIP3   OH257436   3.526   5.646   3.237  0.6441  0.3163  0.0051
11982TIP3    H157437   3.546   5.581   3.305  0.9513  0.6424  0.2338
11982TIP3    H257438   3.597   5.710   3.244  0.2743  0.7447 -0.1270
11983TIP3   OH257439   5.189   3.238   5.188  0.3358  0.1760  0.6701
11983TIP3    H157440   5.182   3.145   5.210 -2.9505 -0.2066 -1.2958
11983TIP3    H257441   5.152   3.283   5.264 -2.0739 -0.5057 -0.0030
11984TIP3   OH257442   1.967   5.703   4.300 -0.2326  0.4389  0.2142
11984TIP3    H157443   1.995   5.701   4.391 -1.8929  0.4258  0.7709
11984TIP3    H257444   2.008   5.780   4.263  0.5062  0.4081  0.9580
11985TIP3   OH257445   3.743   6.286  15.453  0.3583 -0.2657 -0.0736
11985TIP3    H157446   3.717   6.365  15.406  2.6015  0.8701  0.4869
11985TIP3    H257447   3.675   6.276  15.521 -0.6854  0.3875 -0.9844
11986TIP3   OH257448   3.800   3.211   2.931  0.0034 -0.7173  0.1907
11986TIP3    H157449   3.812   3.165   3.014  0.5108  0.5738  0.8742
11986TIP3    H257450   3.886   3.248   2.912 -0.5742  0.6581  0.1335
11987TIP3   OH257451   6.740   2.578  15.012 -0.3538  0.3015 -0.3855
11987TIP3    H157452   6.653   2.576  15.051  0.5463  0.2263  1.7186
11987TIP3    H257453   6.801   2.571  15.086  1.4525 -0.4541 -1.8400
11988TIP3   OH257454   0.730   1.652  15.742  0.0724  0.2817 -0.8277
11988TIP3    H157455   0.696   1.710  15.810 -1.9536 -0.2644 -1.3085
11988TIP3    H257456   0.738   1.708  15.664  0.8583  0.5361 -0.5760
11989TIP3   OH257457   4.825   3.788  16.321  0.3434 -0.0699 -0.2389
11989TIP3    H157458   4.761   3.858  16.334 -0.9159 -1.0710 -0.8466
11989TIP3    H257459   4.892   3.827  16.265  0.7333  1.2515  1.0837
11990TIP3   OH257460   4.948   2.256   2.955 -0.4482 -0.3356 -0.8360
11990TIP3    H157461   4.992   2.181   2.914 -1.2632 -1.5435  0.3935
11990TIP3    H257462   4.873   2.217   3.001 -0.2658  1.0839  0.7666
11991TIP3   OH257463   6.187   3.417   4.893  0.3365 -0.4203 -0.2655
11991TIP3    H157464   6.145   3.484   4.946  0.0235  0.7602 -1.9417
11991TIP3    H257465   6.124   3.396   4.825  1.4181 -0.5456 -1.2637
11992TIP3   OH257466   0.027   4.499  11.369 -0.3025  0.1295 -0.8334
11992TIP3    H157467   0.052   4.413  11.334 -1.1087  0.2357 -1.6917
11992TIP3    H257468  -0.054   4.521  11.324 -1.9024 -0.1138  1.7415
11993TIP3   OH257469   5.864   5.068   0.756  0.0730  0.1972 -0.0166
11993TIP3    H157470   5.874   4.988   0.808 -0.6538 -1.1943 -1.8990
11993TIP3    H257471   5.783   5.107   0.789  0.3253  0.0643  0.7877
11994TIP3   OH257472   6.451   5.624   2.315 -0.3469 -0.6034  0.0364
11994TIP3    H157473   6.524   5.678   2.286 -0.4130 -1.0358 -1.0047
11994TIP3    H257474   6.401   5.681   2.374  0.9537 -0.3973  0.9666
11995TIP3   OH257475   3.598   2.802   5.208  0.2104  0.6620 -0.5010
11995TIP3    H157476   3.673   2.745   5.226 -1.0508 -0.6329  0.9675
11995TIP3    H257477   3.558   2.764   5.129 -0.7780 -0.7338  0.6201
11996TIP3   OH257478   6.167   6.171  11.685  0.2519 -0.0760 -0.0734
11996TIP3    H157479   6.097   6.170  11.620  0.2315  1.6161 -0.1269
11996TIP3    H257480   6.129   6.128  11.762 -0.4733 -0.1377 -0.4612
11997TIP3   OH257481   1.695   6.246   3.545 -0.8282 -0.5430 -0.1711
11997TIP3    H157482   1.697   6.338   3.517  1.9618  0.1175  1.7943
11997TIP3    H257483   1.786   6.224   3.562 -1.5120 -3.4784  0.1798
11998TIP3   OH257484   6.738   5.980   0.859 -0.0967  0.6285  0.3862
11998TIP3    H157485   6.785   6.036   0.798 -0.2538  1.3933  0.9527
11998TIP3    H257486   6.673   5.935   0.804 -1.0989  2.2571  0.1506
11999TIP3   OH257487   1.845   4.284  15.057 -0.3837  0.5918  0.2517
11999TIP3    H157488   1.823   4.345  15.127 -2.5583 -0.6043  0.7069
11999TIP3    H257489   1.764   4.275  15.007  0.5607 -0.1296 -1.2135
12000TIP3   OH257490   1.313   4.229   0.033 -0.0458  0.2429 -0.1606
12000TIP3    H157491   1.338   4.141   0.005  2.2325  0.1614  1.7685
12000TIP3    H257492   1.223   4.219   0.064  0.1492 -1.4300 -0.0091
12001TIP3   OH257493   6.826   4.280  13.031 -0.5532 -0.0999 -0.1780
12001TIP3    H157494   6.875   4.201  13.005  0.4671  0.7654 -1.0016
12001TIP3    H257495   6.881   4.321  13.097 -2.8667 -1.9812  3.2047
12002TIP3   OH257496   0.925   0.852   0.198  0.3917 -0.2740  0.1892
12002TIP3    H157497   1.017   0.872   0.215  0.7546 -2.1155  0.6322
12002TIP3    H257498   0.927   0.791   0.124 -0.7766  2.7112 -2.5452
12003TIP3   OH257499   4.386   4.737  10.955  0.0774  0.3208  0.0894
12003TIP3    H157500   4.322   4.808  10.957 -0.7395 -0.4014  1.7421
12003TIP3    H257501   4.447   4.761  10.885 -1.4934  1.4638 -0.9529
12004TIP3   OH257502   4.529   5.750   1.184 -0.0923 -0.7253  0.0167
12004TIP3    H157503   4.584   5.725   1.109  1.3862  0.4168  0.6750
12004TIP3    H257504   4.472   5.819   1.150 -0.2988 -1.0883 -0.3753
12005TIP3   OH257505   0.780   5.530  16.182 -0.2560  0.3611 -0.0933
12005TIP3    H157506   0.857   5.572  16.220  1.1598 -1.2843 -1.0000
12005TIP3    H257507   0.781   5.557  16.090 -1.5437  1.3589  0.1532
12006TIP3   OH257508   0.415   4.686  14.300  0.0555 -0.2404  0.0965
12006TIP3    H157509   0.329   4.661  14.332  0.3224 -0.9150  0.3052
12006TIP3    H257510   0.474   4.618  14.332  0.8054  0.6347  0.6420
12007TIP3   OH257511   2.479   3.707  11.002 -0.1217  0.4375  0.5245
12007TIP3    H157512   2.533   3.636  10.968 -0.7669  0.0985  0.2011
12007TIP3    H257513   2.542   3.776  11.024  0.4622 -0.0347  0.3633
12008TIP3   OH257514   6.819   3.714   4.661  0.4872 -0.0409  0.0114
12008TIP3    H157515   6.744   3.693   4.605  1.1006  1.1006 -1.2963
12008TIP3    H257516   6.871   3.634   4.663  0.6092 -0.0198 -1.3412
12009TIP3   OH257517   3.579   4.702   6.286  0.3700 -0.1950 -0.0763
12009TIP3    H157518   3.515   4.634   6.265 -0.0599  0.4792 -0.9883
12009TIP3    H257519   3.661   4.654   6.301  0.2067 -0.8770 -1.2442
12010TIP3   OH257520   4.921   0.923  13.871  0.0365 -0.3549 -0.5203
12010TIP3    H157521   4.956   0.842  13.909 -1.9470 -0.3371  1.5900
12010TIP3    H257522   4.930   0.988  13.941 -2.2720  0.1111 -0.5556
12011TIP3   OH257523   6.091   3.490   0.166  0.3252  0.1032 -0.5028
12011TIP3    H157524   6.097   3.463   0.258 -3.3078 -1.8998 -0.6622
12011TIP3    H257525   6.032   3.565   0.167 -0.8109 -0.7546 -1.2572
12012TIP3   OH257526   6.567   3.480   1.320 -0.2882  0.4054 -0.1205
12012TIP3    H157527   6.490   3.531   1.295 -0.0651  0.5031 -0.6329
12012TIP3    H257528   6.640   3.541   1.309 -0.0713  0.1189 -0.2732
12013TIP3   OH257529   4.345   2.673  11.918  0.2545 -0.0959 -0.7908
12013TIP3    H157530   4.369   2.621  11.841 -1.2721 -0.8702 -0.7662
12013TIP3    H257531   4.379   2.623  11.992 -1.8719 -1.5422 -0.7098
12014TIP3   OH257532   1.465   4.698  11.066  0.4909  0.2221  0.0235
12014TIP3    H157533   1.549   4.744  11.068  0.0998  0.9386  0.8689
12014TIP3    H257534   1.487   4.608  11.092  0.8137  0.7754  1.8277
12015TIP3   OH257535   4.318   2.684  10.382 -0.2745  0.1028  0.4869
12015TIP3    H157536   4.388   2.625  10.356 -1.0036 -0.9203  0.7745
12015TIP3    H257537   4.241   2.652  10.335 -0.3856  1.7613 -0.5429
12016TIP3   OH257538   6.328   0.839  12.779 -0.1946  0.2868  0.0319
12016TIP3    H157539   6.387   0.825  12.704 -0.1212 -1.7128  0.4011
12016TIP3    H257540   6.242   0.813  12.746 -0.3831  0.5830  0.2937
12017TIP3   OH257541   5.945   0.011   4.906  0.0074 -0.4615 -0.1168
12017TIP3    H157542   6.037  -0.001   4.885  0.3215 -1.0334  1.4938
12017TIP3    H257543   5.945   0.068   4.983 -1.0652  0.8434 -1.0358
12018TIP3   OH257544   2.700   3.630   4.097  0.1307  0.2062  0.5556
12018TIP3    H157545   2.706   3.564   4.028  0.7690  0.6092  0.2169
12018TIP3    H257546   2.630   3.599   4.154 -0.3931 -0.1318 -0.2685
12019TIP3   OH257547   2.861   1.961   2.980  0.1459 -0.0202  0.1769
12019TIP3    H157548   2.835   1.904   3.052  0.1635  0.8102  0.8553
12019TIP3    H257549   2.912   1.905   2.922 -0.7059 -0.9444  0.2961
12020TIP3   OH257550   1.898   2.407   3.090  0.0074  0.4281  0.1460
12020TIP3    H157551   1.960   2.375   3.155 -0.8318  1.2080  1.3771
12020TIP3    H257552   1.926   2.497   3.071  2.2836 -0.7788 -3.2066
12021TIP3   OH257553   3.878   4.619   2.522  0.1390  0.5160 -0.9011
12021TIP3    H157554   3.932   4.697   2.510  1.6613 -0.1605  0.9411
12021TIP3    H257555   3.819   4.642   2.594 -1.9196  1.1317 -2.6788
12022TIP3   OH257556   0.500   0.178  13.157 -0.1313 -0.0508  0.0188
12022TIP3    H157557   0.468   0.268  13.156 -0.8808 -0.3149  0.0352
12022TIP3    H257558   0.477   0.143  13.071  1.6308  0.2693 -0.6400
12023TIP3   OH257559   4.040   5.163   4.167 -0.1720 -0.3511  0.0303
12023TIP3    H157560   3.955   5.190   4.131 -0.0280 -1.7579 -1.4871
12023TIP3    H257561   4.022   5.080   4.210 -0.0957  0.7441  2.3524
12024TIP3   OH257562   6.533   1.594   4.835  0.2009 -0.3467 -0.0938
12024TIP3    H157563   6.624   1.579   4.811  0.5184 -2.9897  2.2121
12024TIP3    H257564   6.482   1.538   4.777  0.3935 -1.5661  0.8788
12025TIP3   OH257565   6.788   2.082  14.882 -0.0779 -0.5221  0.0978
12025TIP3    H157566   6.836   2.038  14.812 -0.1569  0.4311 -0.5758
12025TIP3    H257567   6.761   2.011  14.941 -1.4281 -1.5780 -1.6843
12026TIP3   OH257568   1.991   5.185   1.723  0.0076  0.1237  0.1098
12026TIP3    H157569   2.086   5.188   1.711 -0.1527 -0.4833 -1.6197
12026TIP3    H257570   1.967   5.095   1.699 -1.0780  0.4625 -0.1246
12027TIP3   OH257571   2.128   2.712  13.802  0.1877  0.3486 -0.3445
12027TIP3    H157572   2.093   2.769  13.734  0.8164  0.0685 -0.9157
12027TIP3    H257573   2.117   2.761  13.883  0.3714  1.1135 -0.7777
12028TIP3   OH257574   6.191   3.831  14.185  0.2450 -0.0634 -0.0354
12028TIP3    H157575   6.139   3.757  14.213  0.6908  0.6609  3.0199
12028TIP3    H257576   6.143   3.908  14.217 -0.5773  1.1512 -3.6987
12029TIP3   OH257577   6.591   3.158   5.524  0.4053 -0.1055 -0.3178
12029TIP3    H157578   6.679   3.183   5.495 -0.0193  0.6501 -1.0026
12029TIP3    H257579   6.534   3.222   5.482 -0.6162 -1.4887 -1.1085
12030TIP3   OH257580   6.281   2.724   1.687 -0.6095 -0.4647  0.2278
12030TIP3    H157581   6.294   2.778   1.610 -1.4281 -0.0005  0.4086
12030TIP3    H257582   6.229   2.778   1.746 -2.3933 -1.8208 -0.0273
12031TIP3   OH257583   0.013   3.557   5.558  0.1688 -0.5693  0.6030
12031TIP3    H157584  -0.055   3.623   5.571  1.1574  0.3854  1.1582
12031TIP3    H257585   0.046   3.572   5.469  0.3890 -0.3102  0.7270
12032TIP3   OH257586   2.143   3.718   1.831  0.2921  0.0120  0.1791
12032TIP3    H157587   2.189   3.782   1.777 -1.1632 -0.0829 -1.2542
12032TIP3    H257588   2.181   3.634   1.807 -0.0376  0.0174 -0.3757
12033TIP3   OH257589   5.209   2.995  13.798 -0.2873  0.4155 -0.6053
12033TIP3    H157590   5.127   2.950  13.780 -0.6131  0.8769 -0.3193
12033TIP3    H257591   5.259   2.935  13.854 -1.1633  0.8288  0.6670
12034TIP3   OH257592   4.003   4.175   2.190 -0.3013  0.3606 -0.1604
12034TIP3    H157593   3.939   4.125   2.241 -1.8169  2.5903  0.2795
12034TIP3    H257594   4.052   4.224   2.257  0.0754  0.6594 -0.6536
12035TIP3   OH257595   0.370   3.533  12.487  0.4378  0.1229 -0.0254
12035TIP3    H157596   0.462   3.556  12.498  0.6798  0.0241 -1.6145
12035TIP3    H257597   0.352   3.550  12.395 -1.1460  0.1581  0.2707
12036TIP3   OH257598   0.405   4.174  15.152  0.0619 -0.0018 -0.6724
12036TIP3    H157599   0.486   4.209  15.189 -0.5846 -0.1009  0.9157
12036TIP3    H257600   0.336   4.217  15.202 -0.8059 -1.7207 -0.3538
12037TIP3   OH257601   5.421   3.626   5.948 -0.3961  0.1610  0.2667
12037TIP3    H157602   5.455   3.545   5.986  2.4755  0.4916 -1.3250
12037TIP3    H257603   5.338   3.601   5.908  1.2442 -2.5021 -1.7540
12038TIP3   OH257604   3.415   3.781  15.905  0.5578  0.1057  0.3158
12038TIP3    H157605   3.386   3.702  15.860  0.7075 -0.2382  0.8102
12038TIP3    H257606   3.445   3.839  15.835 -1.3345  0.5042 -0.2406
12039TIP3   OH257607   3.670   1.890   3.851  0.2627  0.5346  0.0512
12039TIP3    H157608   3.660   1.796   3.837 -0.2192  0.4380  0.9513
12039TIP3    H257609   3.659   1.901   3.945  0.6471  1.4555 -0.0058
12040TIP3   OH257610   5.255   5.137  11.937 -0.4925 -0.4011 -0.6979
12040TIP3    H157611   5.339   5.093  11.949 -0.7345 -0.6744 -0.0110
12040TIP3    H257612   5.277   5.216  11.887  0.3603  0.1663  0.5337
12041TIP3   OH257613   1.982   5.765  16.816 -0.1645 -0.1058 -0.1335
12041TIP3    H157614   1.924   5.707  16.864  1.2341 -0.5896  1.0499
12041TIP3    H257615   1.958   5.752  16.724 -1.8114 -0.3611  0.2960
12042TIP3   OH257616   5.586   5.749   2.237 -0.9528 -0.2824 -0.2812
12042TIP3    H157617   5.584   5.805   2.160 -1.0451 -0.9525 -0.7768
12042TIP3    H257618   5.549   5.803   2.307 -0.4944  0.4659 -0.6104
12043TIP3   OH257619   1.216   1.951   3.936 -0.0902 -0.3179  0.1212
12043TIP3    H157620   1.265   1.975   4.014 -0.7889  1.0493  0.1811
12043TIP3    H257621   1.125   1.944   3.966 -0.6671  1.9519 -0.8075
12044TIP3   OH257622   2.774   3.363  16.865  0.1582  0.3596 -0.5612
12044TIP3    H157623   2.749   3.411  16.786  1.4337  1.1427 -0.5276
12044TIP3    H257624   2.702   3.302  16.881  0.0158 -0.0517 -2.5190
12045TIP3   OH257625   3.565   3.922  13.002  0.6785  0.4665  0.0448
12045TIP3    H157626   3.563   3.953  13.093 -0.0065  1.7818 -0.3890
12045TIP3    H257627   3.589   3.999  12.951  0.7800 -0.1877 -0.9217
12046TIP3   OH257628   0.502   4.892   6.101 -0.3060  0.0102 -0.4584
12046TIP3    H157629   0.462   4.919   6.183  0.1788 -0.0782 -0.1902
12046TIP3    H257630   0.431   4.898   6.036 -0.3836  1.2775 -0.2767
12047TIP3   OH257631   4.699   4.452  11.780  0.0841 -0.2401  0.3630
12047TIP3    H157632   4.704   4.416  11.869 -0.0408 -2.8865 -0.6240
12047TIP3    H257633   4.616   4.420  11.746  0.6332 -0.2144 -1.0754
12048TIP3   OH257634   6.546   6.232  17.089  0.1238 -0.0556 -0.2035
12048TIP3    H157635   6.630   6.265  17.057 -0.8358  0.8494 -1.9284
12048TIP3    H257636   6.514   6.176  17.019  0.0382 -1.8102  1.1679
12049TIP3   OH257637   6.784   6.055  15.751 -0.0571 -0.2702 -0.0244
12049TIP3    H157638   6.805   6.117  15.681 -0.0376 -2.5133 -2.1100
12049TIP3    H257639   6.718   6.101  15.804  0.1284  1.6157 -1.3141
12050TIP3   OH257640   6.453   1.220   3.025  0.6161  0.0364  0.3245
12050TIP3    H157641   6.541   1.198   2.994  0.8320  3.3328 -1.9884
12050TIP3    H257642   6.460   1.311   3.054 -1.4115 -0.5781  3.1399
12051TIP3   OH257643   5.962   1.797  16.331  0.4482  0.2202  1.0085
12051TIP3    H157644   5.965   1.871  16.391  1.7698 -0.5866  2.0222
12051TIP3    H257645   6.050   1.795  16.292  0.2109 -0.3894  0.4905
12052TIP3   OH257646   2.773   1.582   5.413  0.4072  0.0843  0.3778
12052TIP3    H157647   2.744   1.673   5.416  0.7128  0.1852  0.3774
12052TIP3    H257648   2.696   1.531   5.437  0.8708  0.4812  3.0463
12053TIP3   OH257649   3.470   2.833   1.340  0.4949 -0.1161  0.7477
12053TIP3    H157650   3.501   2.916   1.377  0.9732  0.1267 -0.1839
12053TIP3    H257651   3.391   2.813   1.391 -0.1047  1.3298  0.4406
12054TIP3   OH257652   1.929   3.877  13.086  0.0116 -0.0241  0.0598
12054TIP3    H157653   1.994   3.810  13.107 -0.7127 -0.8702 -0.3789
12054TIP3    H257654   1.940   3.893  12.993 -0.4758 -0.2433 -0.0372
12055TIP3   OH257655   6.665   6.826  12.420 -0.0306  0.5079 -0.1233
12055TIP3    H157656   6.625   6.775  12.489  0.2674 -0.1416 -0.4188
12055TIP3    H257657   6.618   6.909  12.420 -1.5801 -0.3268 -0.6491
12056TIP3   OH257658   4.793   6.523  15.833 -0.3753  0.6179 -0.0112
12056TIP3    H157659   4.861   6.588  15.850 -0.5065  0.5955  0.5980
12056TIP3    H257660   4.797   6.510  15.738  0.7968  0.2461  0.0729
12057TIP3   OH257661   4.254   3.857   0.254  0.2170  0.0920  0.2225
12057TIP3    H157662   4.315   3.788   0.227  0.0173  0.1182 -0.3068
12057TIP3    H257663   4.298   3.938   0.230  0.4670  0.1546  0.8766
12058TIP3   OH257664   5.420   2.939  15.761 -0.3302  0.2652 -0.5962
12058TIP3    H157665   5.342   2.927  15.816 -0.5273 -0.8512 -1.1010
12058TIP3    H257666   5.490   2.894  15.809 -0.2271  0.3681 -0.6511
12059TIP3   OH257667   1.954   1.758   6.147 -0.3888 -0.0279 -0.4808
12059TIP3    H157668   1.903   1.677   6.161  0.2202 -0.4092 -0.4467
12059TIP3    H257669   1.986   1.781   6.234 -0.1813 -0.0056 -0.5625
12060TIP3   OH257670   4.215   5.773   1.064 -0.7074 -0.2820 -0.4322
12060TIP3    H157671   4.223   5.713   1.137 -0.1555  0.6939  0.3403
12060TIP3    H257672   4.237   5.721   0.987  0.8644 -0.8010  0.3312
12061TIP3   OH257673   3.892   0.057  14.058 -0.5890  0.1427  0.2718
12061TIP3    H157674   3.858  -0.029  14.085  1.6129 -0.4259  1.4630
12061TIP3    H257675   3.886   0.056  13.962  0.0663 -1.6673  0.2108
12062TIP3   OH257676   2.495   4.476   0.929 -0.1067  0.2256 -0.4400
12062TIP3    H157677   2.564   4.507   0.987 -0.9912  1.4325  0.0060
12062TIP3    H257678   2.477   4.387   0.959  1.7986 -0.4411 -1.1094
12063TIP3   OH257679   1.753   5.598  13.453  0.2206  0.3784 -0.1032
12063TIP3    H157680   1.742   5.632  13.542 -1.2507 -0.7269  0.1724
12063TIP3    H257681   1.847   5.607  13.436  0.3986  1.4036  1.2214
12064TIP3   OH257682   5.872   6.795  16.355 -0.3391 -0.5826 -0.2200
12064TIP3    H157683   5.810   6.743  16.304 -0.9220 -1.2609  1.1200
12064TIP3    H257684   5.828   6.808  16.439  1.4828 -1.4451  0.9336
12065TIP3   OH257685   6.256   2.698   4.117 -0.1448 -1.0184 -0.8952
12065TIP3    H157686   6.273   2.776   4.169 -1.3347  0.9885 -3.2600
12065TIP3    H257687   6.342   2.658   4.105  0.5897  0.2094 -0.0097
12066TIP3   OH257688   6.716   4.788   4.956  0.2279  0.3851  0.0945
12066TIP3    H157689   6.692   4.696   4.969  2.4551 -0.4971 -1.3402
12066TIP3    H257690   6.812   4.788   4.956  0.3148  2.9401  1.3085
12067TIP3   OH257691   1.709   1.070   0.722  0.5180  0.2111  0.1791
12067TIP3    H157692   1.693   1.039   0.811 -0.3686  1.2102  0.3927
12067TIP3    H257693   1.791   1.120   0.728  1.1723 -0.8403  0.1384
12068TIP3   OH257694   3.697   3.505   5.296 -0.5794  0.0300  0.0042
12068TIP3    H157695   3.628   3.570   5.293  0.8755  1.8569  2.1879
12068TIP3    H257696   3.777   3.556   5.310  0.7216 -2.1747  1.2042
12069TIP3   OH257697   2.343   2.330  15.505 -0.0831  0.0345  0.2673
12069TIP3    H157698   2.299   2.406  15.467 -1.3878 -0.9261 -0.2144
12069TIP3    H257699   2.375   2.361  15.590  0.3617  1.4026 -0.3642
12070TIP3   OH257700   3.237   5.299   5.294 -0.4445 -0.5709  0.4178
12070TIP3    H157701   3.305   5.365   5.283 -1.0209 -0.0230  0.0325
12070TIP3    H257702   3.184   5.332   5.367 -1.4331  0.0274 -0.5374
12071TIP3   OH257703   0.871   1.621   6.403 -0.2780  0.1683  0.2809
12071TIP3    H157704   0.775   1.612   6.398 -0.3859  1.2462  0.2135
12071TIP3    H257705   0.885   1.707   6.442  0.6718  0.4120 -0.5489
12072TIP3   OH257706   4.757   6.475   1.403 -0.1755 -0.1167  1.0253
12072TIP3    H157707   4.766   6.568   1.382 -0.1786 -0.7683 -2.5544
12072TIP3    H257708   4.847   6.442   1.406 -0.1420 -0.7987 -2.8437
12073TIP3   OH257709   3.732   3.053   6.077  0.3019  0.0927  0.0284
12073TIP3    H157710   3.756   3.113   6.007 -0.8085 -0.0058 -0.4593
12073TIP3    H257711   3.772   2.970   6.052  0.4028  0.2068 -0.1884
12074TIP3   OH257712   2.268   1.140   2.171  0.5472 -0.4886 -0.4564
12074TIP3    H157713   2.297   1.152   2.261  0.6053  1.0378 -0.6557
12074TIP3    H257714   2.210   1.214   2.154 -0.0778 -1.1778 -1.4312
12075TIP3   OH257715   2.987   6.482   2.778  0.2981 -0.0408 -0.4365
12075TIP3    H157716   2.964   6.447   2.865 -0.6818 -1.0277 -1.0607
12075TIP3    H257717   3.082   6.479   2.775  0.3108 -0.7798  0.3055
12076TIP3   OH257718   4.145   2.106  13.571 -0.0380 -0.6185  0.1969
12076TIP3    H157719   4.062   2.059  13.576 -0.0608 -0.5527  0.5156
12076TIP3    H257720   4.185   2.077  13.490 -0.7607 -0.0016 -0.3908
12077TIP3   OH257721   2.183   4.438  11.361 -0.5375 -0.1782  0.4971
12077TIP3    H157722   2.090   4.452  11.346  0.0097  1.2928 -2.3027
12077TIP3    H257723   2.199   4.349  11.330 -0.7997  0.0800 -0.4090
12078TIP3   OH257724   1.095   5.073   0.162  0.3972 -0.2313  0.1370
12078TIP3    H157725   1.131   4.986   0.178 -0.0750 -0.5454 -0.4931
12078TIP3    H257726   1.011   5.073   0.206 -0.1847 -0.5508 -0.9274
12079TIP3   OH257727   2.310   2.172   0.870 -0.4828 -0.3332  0.2551
12079TIP3    H157728   2.353   2.149   0.787 -2.1504 -2.0243 -0.2201
12079TIP3    H257729   2.269   2.256   0.853  0.8444  0.2934  0.0437
12080TIP3   OH257730   5.768   3.474  15.882 -0.2884 -0.0248  0.0198
12080TIP3    H157731   5.828   3.409  15.919  1.1030  1.0766 -0.2117
12080TIP3    H257732   5.749   3.442  15.794 -0.0222 -0.3788  0.0901
12081TIP3   OH257733   0.545   3.148   0.061  0.6858  0.5452  0.3564
12081TIP3    H157734   0.533   3.234   0.103 -0.2416  1.4368 -1.6174
12081TIP3    H257735   0.596   3.098   0.125 -2.2840  1.1000  3.4800
12082TIP3   OH257736   3.555   1.195   2.293 -0.0455  0.0220  0.7546
12082TIP3    H157737   3.627   1.141   2.261 -0.7855 -0.4025 -0.2528
12082TIP3    H257738   3.586   1.285   2.283  0.3242 -0.1533  0.2526
12083TIP3   OH257739   0.839   4.029  11.418  0.1302 -0.2046  0.0162
12083TIP3    H157740   0.764   3.977  11.390 -0.5228  1.2841 -1.1245
12083TIP3    H257741   0.884   3.973  11.482 -0.5197 -2.1407 -1.1295
12084TIP3   OH257742   2.427   3.651   3.277 -0.1481  0.3131  0.5071
12084TIP3    H157743   2.338   3.677   3.253  0.6160  0.5152 -2.5507
12084TIP3    H257744   2.431   3.558   3.258  0.3642  0.3603  0.3687
12085TIP3   OH257745   4.315   2.071   5.510 -0.0474 -0.1891 -0.6881
12085TIP3    H157746   4.373   2.086   5.435  0.6238  0.3229 -0.0831
12085TIP3    H257747   4.351   1.994   5.553 -0.7276 -0.7835 -1.1556
12086TIP3   OH257748   5.117   6.787  11.890 -0.5964 -0.3566  0.2467
12086TIP3    H157749   5.211   6.768  11.895  0.2426  3.1094 -0.2236
12086TIP3    H257750   5.090   6.798  11.981  0.7226  3.4105  0.3539
12087TIP3   OH257751   6.510   0.728   1.749  0.1752  0.5691  0.0397
12087TIP3    H157752   6.597   0.766   1.738 -0.4513  1.8389 -0.7951
12087TIP3    H257753   6.506   0.703   1.841  1.3685  0.5976  0.1146
12088TIP3   OH257754   4.188   3.926  13.319  0.4526 -0.0422 -0.1236
12088TIP3    H157755   4.283   3.934  13.309  0.3688  0.8935 -0.2920
12088TIP3    H257756   4.167   3.982  13.394 -0.0223  0.1677 -0.4056
12089TIP3   OH257757   1.186   1.394  14.055  0.2372 -0.0346 -0.2209
12089TIP3    H157758   1.232   1.414  14.136  1.5209  1.3238 -1.2379
12089TIP3    H257759   1.225   1.313  14.024 -2.0503 -2.0581  1.7507
12090TIP3   OH257760   3.666   4.673  13.250  0.1605 -0.1720 -0.5554
12090TIP3    H157761   3.580   4.716  13.244  0.1940 -0.1458 -0.8372
12090TIP3    H257762   3.715   4.706  13.175  0.4995 -0.0151 -0.2683
12091TIP3   OH257763   3.490   2.625  14.163 -0.3831  0.0081  0.1563
12091TIP3    H157764   3.428   2.580  14.105  0.4305 -3.5213  1.7259
12091TIP3    H257765   3.576   2.598  14.131  0.2412  1.7970  0.2553
12092TIP3   OH257766   6.751   1.010   0.534  0.1551 -0.6470  0.1060
12092TIP3    H157767   6.756   1.049   0.622 -0.0471 -1.0239  0.2883
12092TIP3    H257768   6.688   0.939   0.543 -0.0056 -0.5714 -0.3947
12093TIP3   OH257769   1.387   3.454   6.068 -0.5606  0.2590 -0.6945
12093TIP3    H157770   1.311   3.469   6.124  0.3111  0.6623  0.4021
12093TIP3    H257771   1.414   3.542   6.040 -1.2674  0.0431 -2.1694
12094TIP3   OH257772   4.419   5.475   4.885  0.1461 -0.2032  0.0844
12094TIP3    H157773   4.456   5.432   4.963  1.3028  1.3331  0.4361
12094TIP3    H257774   4.335   5.509   4.914  1.1571  1.5537  1.1430
12095TIP3   OH257775   6.554   5.930   4.423 -0.1272  0.2163  0.0112
12095TIP3    H157776   6.523   5.945   4.512  0.3334 -0.2836  0.2529
12095TIP3    H257777   6.611   6.005   4.405 -0.5287  0.5240 -0.0141
12096TIP3   OH257778   4.449   0.220  15.821 -0.1689 -0.3775  0.5771
12096TIP3    H157779   4.401   0.285  15.873  1.1402  2.7316 -1.7187
12096TIP3    H257780   4.421   0.237  15.731  1.7149 -1.6925 -0.3116
12097TIP3   OH257781   0.854   6.407  16.086  0.9876  0.1736  0.1415
12097TIP3    H157782   0.835   6.313  16.092 -0.3659  0.3384 -0.8877
12097TIP3    H257783   0.868   6.435  16.177 -1.2370 -0.5520  0.7768
12098TIP3   OH257784   6.782   1.214  14.293  0.3873 -0.2332 -0.6436
12098TIP3    H157785   6.725   1.162  14.349  0.8708  0.1102  0.1820
12098TIP3    H257786   6.806   1.290  14.347  0.7443  0.1757 -1.3667
12099TIP3   OH257787   6.085   3.234  14.063 -0.3150  0.0926 -0.0316
12099TIP3    H157788   6.149   3.304  14.053 -0.0512  0.0203  1.0213
12099TIP3    H257789   6.009   3.263  14.013  0.4834  0.2415 -1.1873
12100TIP3   OH257790   0.678   2.977   0.244 -0.4521  0.3060  0.0747
12100TIP3    H157791   0.653   3.009   0.330  0.7516  0.5502  0.3555
12100TIP3    H257792   0.763   2.935   0.258 -1.4454 -2.0162 -0.5050
12101TIP3   OH257793   6.502   6.295   3.430  0.1782 -0.1095  0.0338
12101TIP3    H157794   6.418   6.249   3.434 -0.2733  0.7349  0.3733
12101TIP3    H257795   6.490   6.363   3.364  0.6947 -0.1743 -0.1376
12102TIP3   OH257796   4.001   2.353   1.123 -0.1356 -0.7145 -0.2003
12102TIP3    H157797   3.951   2.357   1.205 -2.0056  3.0871 -1.2990
12102TIP3    H257798   4.068   2.421   1.134  0.1016 -0.7211 -1.5243
12103TIP3   OH257799   0.308   3.571   1.175 -0.5419  0.1742  0.3143
12103TIP3    H157800   0.298   3.644   1.235 -0.5722 -0.2510  0.8397
12103TIP3    H257801   0.355   3.607   1.100  1.1050  0.3269  1.3588
12104TIP3   OH257802   1.436   4.228   0.886 -0.0398  0.1782  0.3828
12104TIP3    H157803   1.366   4.289   0.909 -0.3833  0.4448 -1.2872
12104TIP3    H257804   1.414   4.148   0.933  0.6147  1.3652  2.9104
12105TIP3   OH257805   6.695   3.421   4.603 -0.3842 -0.4537 -0.3409
12105TIP3    H157806   6.699   3.441   4.510  0.6101  2.0599  0.1686
12105TIP3    H257807   6.608   3.449   4.630 -1.3973 -2.9026 -0.7786
12106TIP3   OH257808   4.954   1.486   3.524 -0.0782  0.1044 -0.7147
12106TIP3    H157809   4.968   1.580   3.516  2.6829 -0.0738  0.8911
12106TIP3    H257810   4.863   1.478   3.553 -0.5229  2.2268 -1.3530
12107TIP3   OH257811   3.667   5.784   1.989  0.2112  0.2129  0.0730
12107TIP3    H157812   3.590   5.730   1.975  0.3795  0.0843 -0.3483
12107TIP3    H257813   3.633   5.874   1.994  0.0141  0.1371  0.0772
12108TIP3   OH257814   6.488   4.425   5.199  0.2861  0.1103  0.1735
12108TIP3    H157815   6.473   4.509   5.156  0.3311  0.4442  0.7929
12108TIP3    H257816   6.559   4.385   5.149 -0.3708  0.0263 -0.6952
12109TIP3   OH257817   2.786   0.256   0.496  0.4560  0.1401 -0.1123
12109TIP3    H157818   2.876   0.250   0.525  0.6340  1.3136 -0.3692
12109TIP3    H257819   2.787   0.222   0.407  0.0270 -2.8494  0.9327
12110TIP3   OH257820   1.566   0.368   3.436 -0.3044  0.0386  0.1199
12110TIP3    H157821   1.614   0.437   3.391 -0.6235  0.1355 -0.0698
12110TIP3    H257822   1.476   0.400   3.443 -0.1324  0.3135  1.3984
12111TIP3   OH257823   1.552   3.415   2.887  0.4007 -0.0750 -1.0907
12111TIP3    H157824   1.620   3.365   2.842  0.2776  1.2163 -2.8132
12111TIP3    H257825   1.484   3.429   2.821  0.1031  1.7119 -0.4741
12112TIP3   OH257826   1.583   4.705   0.433  0.0776 -0.4194  0.2445
12112TIP3    H157827   1.526   4.773   0.398  1.1811  0.4359  0.0385
12112TIP3    H257828   1.640   4.681   0.359  0.2645 -0.9480  0.5540
12113TIP3   OH257829   5.533   6.352   3.075  0.1441 -0.5118  0.1750
12113TIP3    H157830   5.478   6.416   3.119 -1.3015  0.1702 -2.4380
12113TIP3    H257831   5.617   6.398   3.063  0.1770 -0.3006  1.0742
12114TIP3   OH257832   5.967   4.036  11.789 -0.3646  0.3029 -0.1127
12114TIP3    H157833   5.980   4.067  11.699 -1.2164 -0.5791 -0.5581
12114TIP3    H257834   6.040   4.074  11.838  1.0206 -0.4354 -1.4953
12115TIP3   OH257835   2.091   4.868   1.357  0.6605  0.3580 -0.1223
12115TIP3    H157836   2.103   4.783   1.400 -1.4640 -0.1690 -0.4794
12115TIP3    H257837   2.172   4.881   1.308  1.8322 -0.5145  1.4595
12116TIP3   OH257838   5.511   6.402  16.861 -0.0121  0.4747 -0.3027
12116TIP3    H157839   5.469   6.382  16.777 -1.3846  0.4953  0.3482
12116TIP3    H257840   5.443   6.386  16.926  0.6941  1.4934  0.7307
12117TIP3   OH257841   0.444   0.224  14.393 -0.1077  0.3996 -0.1620
12117TIP3    H157842   0.463   0.301  14.339  2.4735 -0.0091  0.0222
12117TIP3    H257843   0.432   0.259  14.481 -1.0863  0.7681 -0.4315
12118TIP3   OH257844   0.567   1.145  14.981 -0.5521  0.7014  0.0808
12118TIP3    H157845   0.618   1.085  15.036 -0.5576  0.4096 -0.2318
12118TIP3    H257846   0.633   1.192  14.930 -0.6402 -0.7880 -1.4796
12119TIP3   OH257847   1.634   2.367  15.584  0.0459 -0.2067  0.0955
12119TIP3    H157848   1.581   2.404  15.514  0.9904 -0.5064 -0.8058
12119TIP3    H257849   1.700   2.434  15.603 -0.7422  0.2518  1.3519
12120TIP3   OH257850   4.161   0.001  14.080  0.7982 -0.0147  0.2908
12120TIP3    H157851   4.067   0.015  14.072  0.9977  0.7970 -0.8814
12120TIP3    H257852   4.177   0.000  14.175 -0.3930 -0.3215  0.5071
12121TIP3   OH257853   1.366   3.123   6.159  0.0342 -0.3365  0.1412
12121TIP3    H157854   1.273   3.145   6.150  0.3171  3.1378  3.3148
12121TIP3    H257855   1.408   3.170   6.087 -0.4402  0.6177  0.4693
12122TIP3   OH257856   5.647   2.192  13.384 -0.0291 -0.1640 -0.1803
12122TIP3    H157857   5.569   2.245  13.404 -0.0109  0.0373 -0.6379
12122TIP3    H257858   5.692   2.183  13.468 -0.2143  0.2528 -0.0333
12123TIP3   OH257859   6.143   4.118  14.318  0.2639 -0.3605 -0.1501
12123TIP3    H157860   6.140   4.191  14.380  1.7048  0.7294 -1.3104
12123TIP3    H257861   6.152   4.159  14.232  1.1300 -1.9092 -0.8418
12124TIP3   OH257862   4.336   5.473   4.339 -0.1161  0.5768  0.0901
12124TIP3    H157863   4.402   5.480   4.408  0.2520 -1.2731 -0.0215
12124TIP3    H257864   4.384   5.438   4.264 -0.6342  2.0085 -0.9597
12125TIP3   OH257865   5.362   6.527   3.898 -0.1359  0.0190  0.6052
12125TIP3    H157866   5.412   6.453   3.932 -2.4224 -0.9722  2.1274
12125TIP3    H257867   5.358   6.589   3.970 -0.9273  0.1303  0.4840
12126TIP3   OH257868   5.210   5.270   4.854  0.6228  0.2770  0.0532
12126TIP3    H157869   5.225   5.244   4.945  1.3934 -0.3931 -0.2509
12126TIP3    H257870   5.269   5.215   4.803 -2.2186 -1.8924 -1.1957
12127TIP3   OH257871   2.173   5.161  16.080  0.1763  0.5097  1.0199
12127TIP3    H157872   2.078   5.150  16.078  0.3856 -1.5794  0.2699
12127TIP3    H257873   2.189   5.235  16.021 -0.9694  0.8414  1.0852
12128TIP3   OH257874   4.445   1.106   1.640  0.5481  0.7877  0.1902
12128TIP3    H157875   4.425   1.154   1.721 -0.0921 -1.2991  1.3451
12128TIP3    H257876   4.456   1.175   1.574  0.5026  2.5483  1.9005
12129TIP3   OH257877   4.491   6.023   1.138 -0.1582 -0.3166 -0.2996
12129TIP3    H157878   4.422   6.076   1.178 -0.1744 -1.3330  1.1027
12129TIP3    H257879   4.572   6.069   1.161 -0.2178 -0.5003  0.3068
12130TIP3   OH257880   1.707   1.674  14.105  0.5897  0.3034 -0.4203
12130TIP3    H157881   1.722   1.640  14.017  0.4901 -0.6905 -0.0585
12130TIP3    H257882   1.764   1.751  14.110 -1.7980  2.4281 -2.5238
12131TIP3   OH257883   6.167   6.331   1.272 -0.1148  0.0140  0.1306
12131TIP3    H157884   6.151   6.407   1.328 -1.2478  0.7584 -1.1221
12131TIP3    H257885   6.246   6.291   1.307 -0.2769  0.9745  1.6721
12132TIP3   OH257886   0.853   0.121  12.275  0.2130 -0.9154 -0.7158
12132TIP3    H157887   0.822   0.156  12.358  0.8382 -0.8929 -0.4840
12132TIP3    H257888   0.847   0.026  12.284  0.6147 -0.9248 -0.5042
12133TIP3   OH257889   4.503   4.124   4.104 -0.0911 -0.5681  0.5084
12133TIP3    H157890   4.442   4.051   4.106  0.5748 -1.2307 -1.1069
12133TIP3    H257891   4.587   4.086   4.129  0.2046 -0.3137 -0.0611
12134TIP3   OH257892   0.823   1.456  17.073 -0.0591 -0.0041 -0.0886
12134TIP3    H157893   0.918   1.442  17.071  0.0326  0.4310  0.7314
12134TIP3    H257894   0.799   1.443  17.165 -0.6423  0.8180 -0.1098
12135TIP3   OH257895   0.527   1.705   0.862  0.3042 -0.6415 -0.1287
12135TIP3    H157896   0.516   1.732   0.953 -2.1418 -0.1741 -0.4984
12135TIP3    H257897   0.548   1.612   0.867 -2.0329 -1.1918  0.9208
12136TIP3   OH257898   2.163   5.737  16.294  0.0529 -0.2578  0.0855
12136TIP3    H157899   2.153   5.797  16.220 -0.7031 -1.1703 -0.5761
12136TIP3    H257900   2.074   5.714  16.319  0.3070 -2.2254 -0.6275
12137TIP3   OH257901   1.214   5.440   2.594  0.7642  0.1342  0.2456
12137TIP3    H157902   1.166   5.372   2.641  0.6182  0.5540  0.7140
12137TIP3    H257903   1.306   5.413   2.599  0.5013 -1.3025 -1.6930
12138TIP3   OH257904   3.808   5.756  14.598  0.3003  0.1267 -0.3694
12138TIP3    H157905   3.844   5.766  14.510 -3.0588  0.2449 -1.8959
12138TIP3    H257906   3.792   5.845  14.628 -2.0146  0.1348 -1.3550
12139TIP3   OH257907   3.137   1.377  14.651  0.1019 -0.2443  0.3267
12139TIP3    H157908   3.156   1.371  14.745  0.1840  1.9373  0.4991
12139TIP3    H257909   3.043   1.392  14.646  0.1486 -0.0257  0.0822
12140TIP3   OH257910   6.029   0.503  12.639  0.3279  0.2227 -0.0249
12140TIP3    H157911   5.975   0.440  12.686  1.1705 -0.4498  0.0461
12140TIP3    H257912   6.112   0.458  12.624  0.0224  0.3185 -2.3550
12141TIP3   OH257913   0.891   1.885  15.251  0.1154 -0.0818 -0.1819
12141TIP3    H157914   0.981   1.871  15.223  0.2876 -0.7232  0.6415
12141TIP3    H257915   0.837   1.846  15.182  0.5432 -2.7969  0.8691
12142TIP3   OH257916   3.899   6.416  16.006  0.0504  0.3452 -0.1821
12142TIP3    H157917   3.958   6.436  16.079 -0.9965 -0.2078  0.8445
12142TIP3    H257918   3.951   6.361  15.947  0.5285 -0.2251  0.7510
12143TIP3   OH257919   4.376   0.010   3.125  0.0270 -0.1954 -0.2297
12143TIP3    H157920   4.453   0.067   3.120  1.6219 -2.2132  0.0014
12143TIP3    H257921   4.315   0.056   3.182  0.7955  1.7200 -0.8684
12144TIP3   OH257922   2.849   3.050  10.598 -0.1290 -0.2760 -1.4322
12144TIP3    H157923   2.922   3.028  10.540  1.7368 -0.6791  0.8795
12144TIP3    H257924   2.858   2.989  10.671 -0.5886  1.9981  0.6514
12145TIP3   OH257925   2.523   0.583  11.428 -0.1695  0.5883 -0.3142
12145TIP3    H157926   2.498   0.535  11.506 -2.0715 -0.6858 -1.6241
12145TIP3    H257927   2.612   0.614  11.446  0.1924 -1.3290  1.5567
12146TIP3   OH257928   2.506   4.856   4.334 -0.2320  0.2966  0.0332
12146TIP3    H157929   2.497   4.782   4.394  2.7743 -1.6199 -1.6405
12146TIP3    H257930   2.588   4.898   4.359  0.1642  0.5363 -1.5711
12147TIP3   OH257931   5.375   5.187   0.260 -0.3212 -0.9775  0.5798
12147TIP3    H157932   5.283   5.163   0.271 -0.5882 -0.6680 -0.8175
12147TIP3    H257933   5.419   5.104   0.245 -0.3855 -1.1050  1.0553
12148TIP3   OH257934   1.443   6.211   0.505 -0.4190  0.0631 -1.0302
12148TIP3    H157935   1.411   6.177   0.422  0.5934 -0.7269 -1.1093
12148TIP3    H257936   1.481   6.135   0.550 -0.3880  0.5991 -0.1104
12149TIP3   OH257937   3.067   3.609   4.593 -0.1148 -0.3948  0.1597
12149TIP3    H157938   3.123   3.618   4.517  0.0730 -3.6929 -0.2438
12149TIP3    H257939   2.991   3.664   4.574 -0.6540 -2.0160 -3.0482
12150TIP3   OH257940   0.978   0.297  13.911 -0.2046  0.1572 -0.4960
12150TIP3    H157941   0.995   0.243  13.833  1.5323  1.0266 -0.7835
12150TIP3    H257942   0.922   0.368  13.879  1.4315  1.1572 -1.2956
12151TIP3   OH257943   2.623   6.013   5.121 -0.1976 -0.0479 -0.1740
12151TIP3    H157944   2.577   6.082   5.169  0.6458 -0.4334  1.2014
12151TIP3    H257945   2.660   5.957   5.188  0.0303 -1.2610 -1.2814
12152TIP3   OH257946   4.001   1.165   0.859  0.1977  0.3521 -0.6285
12152TIP3    H157947   4.093   1.182   0.880  0.6282 -0.5494 -1.6968
12152TIP3    H257948   4.000   1.073   0.830 -1.0971  0.2539 -0.3081
12153TIP3   OH257949   4.808   0.273  11.759 -0.1433  0.6315  0.3724
12153TIP3    H157950   4.889   0.313  11.727  0.9246 -0.8547  1.1434
12153TIP3    H257951   4.767   0.342  11.811  0.1391  1.7130 -0.7870
12154TIP3   OH257952   6.280   2.285  14.647 -0.0830 -0.0457  0.7354
12154TIP3    H157953   6.252   2.202  14.686 -0.0194 -0.8783 -0.9199
12154TIP3    H257954   6.208   2.346  14.666  0.3760 -0.1191  2.9565
12155TIP3   OH257955   4.647   4.921   1.898 -0.0360 -0.2916 -0.4763
12155TIP3    H157956   4.698   4.996   1.867  0.4960 -0.2640  0.4283
12155TIP3    H257957   4.641   4.863   1.822  0.6278  0.0946 -0.8296
12156TIP3   OH257958   1.841   2.588  16.258 -0.5146 -0.0968 -0.6666
12156TIP3    H157959   1.853   2.681  16.278  1.1820  0.3706 -3.3812
12156TIP3    H257960   1.760   2.585  16.207 -0.2934  0.0053 -1.0335
12157TIP3   OH257961   3.251   4.868  15.137 -0.2651  0.5849  0.0626
12157TIP3    H157962   3.273   4.815  15.061 -1.6021  1.8489 -1.2624
12157TIP3    H257963   3.190   4.934  15.104 -1.4265  0.7696  2.3578
12158TIP3   OH257964   1.467   5.848   3.419  0.1101 -0.0759  0.0557
12158TIP3    H157965   1.482   5.760   3.452 -0.9606  0.1874  1.3121
12158TIP3    H257966   1.372   5.855   3.410 -0.0180  1.6371  2.0691
12159TIP3   OH257967   0.857   2.419  10.621  0.0108  0.0081 -0.5177
12159TIP3    H157968   0.899   2.343  10.581  0.8469 -0.5124  1.2594
12159TIP3    H257969   0.842   2.394  10.712  2.4545  2.7485  0.8051
12160TIP3   OH257970   4.070   4.807   3.155  0.2068  0.2760  0.2478
12160TIP3    H157971   4.006   4.781   3.090 -2.0079  1.9975  1.5946
12160TIP3    H257972   4.087   4.899   3.137  2.1430 -0.0719  0.1012
12161TIP3   OH257973   3.196   3.783  13.969  0.3316  0.0823  0.2526
12161TIP3    H157974   3.267   3.775  14.033 -0.1954 -2.3386  0.6386
12161TIP3    H257975   3.154   3.697  13.969  0.2039  0.0047 -3.2408
12162TIP3   OH257976   0.950   1.112   0.602  0.7625  0.5580  0.5345
12162TIP3    H157977   0.978   1.156   0.682 -0.1938  1.6252  0.3110
12162TIP3    H257978   0.927   1.183   0.542  1.6726 -0.2143 -0.7852
12163TIP3   OH257979   0.059   4.836   5.392 -0.1495 -0.6610 -0.3434
12163TIP3    H157980   0.014   4.875   5.317 -1.4797 -1.5821 -0.0659
12163TIP3    H257981   0.043   4.896   5.465  0.6372 -0.0685 -0.6482
12164TIP3   OH257982   0.629   4.066   1.219  0.0233 -0.6807 -0.4496
12164TIP3    H157983   0.699   4.041   1.279  0.5199  0.7694 -0.4025
12164TIP3    H257984   0.572   4.123   1.270 -1.5886 -2.3224 -0.2957
12165TIP3   OH257985   0.208   4.010   6.040 -0.0351  0.0873 -0.0815
12165TIP3    H157986   0.277   4.076   6.038  0.6788 -0.6392  0.1342
12165TIP3    H257987   0.253   3.928   6.058 -1.0903 -0.2246  1.3670
12166TIP3   OH257988   6.492   1.107  16.000  0.4694  0.2262  0.0625
12166TIP3    H157989   6.495   1.162  16.079 -1.2432  1.6286 -0.7711
12166TIP3    H257990   6.400   1.080  15.995  0.1832  1.4065 -2.2126
12167TIP3   OH257991   4.754   1.688   2.498 -0.3733  0.2100  0.4142
12167TIP3    H157992   4.686   1.709   2.434 -0.3182  2.3358  0.9662
12167TIP3    H257993   4.834   1.728   2.463  0.0970 -0.3049  0.8717
12168TIP3   OH257994   3.200   5.382  15.876  0.2171 -0.1449  0.1190
12168TIP3    H157995   3.266   5.430  15.926 -0.0292  1.4637 -1.0053
12168TIP3    H257996   3.122   5.437  15.881 -0.1866 -0.5913 -0.9187
12169TIP3   OH257997   3.649   2.755   0.305  0.0394 -0.2105  0.0767
12169TIP3    H157998   3.686   2.796   0.384 -1.7061 -2.6321  2.3193
12169TIP3    H257999   3.710   2.685   0.284  0.5745  0.5172 -0.8737
12170TIP3   OH258000   2.514   1.611  16.541  0.2131 -0.9887  0.4436
12170TIP3    H158001   2.467   1.611  16.624  1.2788 -0.9987  1.0521
12170TIP3    H258002   2.461   1.668  16.484 -0.1229 -0.3791  1.3425
12171TIP3   OH258003   5.939   4.200   0.274  0.3029 -0.2978  0.6295
12171TIP3    H158004   5.999   4.195   0.349  0.7149 -0.1356  0.3146
12171TIP3    H258005   5.852   4.190   0.312  0.4061  1.0479  1.2999
12172TIP3   OH258006   0.498   3.695   0.636  0.0008 -0.6121  0.8090
12172TIP3    H158007   0.459   3.633   0.698  1.4393 -0.9832  1.3909
12172TIP3    H258008   0.493   3.651   0.551 -2.7422  0.2446  0.4480
12173TIP3   OH258009   0.362   2.591  15.762  0.2906 -0.4607  0.3165
12173TIP3    H158010   0.315   2.661  15.809 -0.3006  0.7181 -1.9085
12173TIP3    H258011   0.292   2.536  15.727  0.7052 -0.9784  0.2981
12174TIP3   OH258012   5.976   3.905   5.040 -0.0448 -0.1016 -0.3489
12174TIP3    H158013   5.976   3.998   5.063  0.8207  0.0403 -0.8696
12174TIP3    H258014   5.887   3.876   5.058 -0.1471  0.6652  0.4742
12175TIP3   OH258015   4.447   4.164  16.342  0.1453 -0.1997 -0.0843
12175TIP3    H158016   4.354   4.181  16.355 -0.0809  1.2896 -2.9787
12175TIP3    H258017   4.491   4.241  16.379 -0.0995  0.9721 -2.0714
12176TIP3   OH258018   1.745   4.100   0.755  0.0053  0.2521  0.2743
12176TIP3    H158019   1.710   4.188   0.741 -1.2146 -0.6069 -3.0537
12176TIP3    H258020   1.693   4.064   0.828 -0.7180  1.6523  0.4797
12177TIP3   OH258021   4.038   2.059  14.356  0.3642 -0.4429  0.0705
12177TIP3    H158022   4.025   2.106  14.273 -0.1803 -0.2986  0.2381
12177TIP3    H258023   4.115   2.101  14.395  0.3888 -0.2553 -0.1777
12178TIP3   OH258024   6.586   2.214  16.402 -0.3260  0.1455  0.2524
12178TIP3    H158025   6.585   2.154  16.327 -1.0376 -0.4060  0.6807
12178TIP3    H258026   6.678   2.230  16.419 -0.1473  0.9026 -1.2162
12179TIP3   OH258027   5.744   1.124  15.599  0.3489 -0.1119 -0.6101
12179TIP3    H158028   5.799   1.124  15.678 -0.6964 -0.7373  0.1557
12179TIP3    H258029   5.734   1.031  15.577 -0.3796 -0.0073 -0.7361
12180TIP3   OH258030   1.934   5.882  14.856 -0.0566 -0.1056  0.0240
12180TIP3    H158031   1.880   5.839  14.922  1.4905 -0.3686  1.1943
12180TIP3    H258032   1.998   5.932  14.907 -1.9270  3.9918 -1.1992
12181TIP3   OH258033   1.933   1.634   2.286  0.0998  0.1559 -0.6651
12181TIP3    H158034   1.983   1.614   2.207  1.3820 -0.9454  0.3969
12181TIP3    H258035   1.985   1.700   2.332 -0.2676  0.2391 -0.3625
12182TIP3   OH258036   0.372   0.171   1.488  0.1295 -0.3242  0.1749
12182TIP3    H158037   0.405   0.134   1.406  1.5980 -0.7146  0.9013
12182TIP3    H258038   0.370   0.265   1.473  1.2578 -0.3175 -0.0427
12183TIP3   OH258039   1.367   2.320  11.466  0.1119 -0.1965  0.2041
12183TIP3    H158040   1.316   2.240  11.466 -1.6805  0.8692 -1.2574
12183TIP3    H258041   1.414   2.319  11.382 -0.7471  0.7443 -0.3087
12184TIP3   OH258042   6.631   1.681   0.231  0.3958 -0.6364  0.2483
12184TIP3    H158043   6.546   1.726   0.232  1.2408  1.0531  0.2641
12184TIP3    H258044   6.659   1.686   0.140  0.3889 -1.3877  0.2014
12185TIP3   OH258045   0.484   2.417   4.578  0.8399 -0.1612  0.6796
12185TIP3    H158046   0.419   2.367   4.627 -0.9816 -0.5488 -1.8896
12185TIP3    H258047   0.566   2.371   4.593  0.0886 -1.0812  2.1851
12186TIP3   OH258048   5.719   0.795  16.375  0.7666 -0.0755  0.8506
12186TIP3    H158049   5.789   0.766  16.316  1.0082  0.6437  0.7773
12186TIP3    H258050   5.739   0.753  16.458 -0.2565 -2.0970  0.1379
12187TIP3   OH258051   5.367   1.625   2.264 -0.4535 -0.2451 -0.0391
12187TIP3    H158052   5.282   1.636   2.306 -0.1196  0.4960  0.4547
12187TIP3    H258053   5.428   1.675   2.318  0.6279 -2.1538  0.6064
12188TIP3   OH258054   6.377   0.109   3.767 -0.0488  0.1681 -0.1916
12188TIP3    H158055   6.417   0.086   3.851  1.1780  0.7233 -0.6045
12188TIP3    H258056   6.445   0.091   3.702 -1.0677 -0.4925 -1.1035
12189TIP3   OH258057   1.985   0.151  11.344 -0.4026  0.2241  0.0736
12189TIP3    H158058   1.956   0.212  11.412 -0.9583 -1.6620  1.5885
12189TIP3    H258059   1.981   0.203  11.263  0.9534  2.7560  1.5017
12190TIP3   OH258060   0.659   6.278  10.390  0.1515  0.8770  0.2496
12190TIP3    H158061   0.633   6.250  10.478 -0.6767 -0.7607 -0.4842
12190TIP3    H258062   0.753   6.263  10.387 -0.2705 -2.2932 -0.1943
12191TIP3   OH258063   1.389   1.899  11.954 -0.2866 -0.2780 -0.5947
12191TIP3    H158064   1.356   1.977  11.909  0.2992 -0.3529 -1.1819
12191TIP3    H258065   1.411   1.929  12.042 -1.4301 -0.1215 -0.3571
12192TIP3   OH258066   1.880   2.001   0.097  0.6188 -0.7347 -0.3788
12192TIP3    H158067   1.919   1.939   0.035  1.4011  0.1175 -0.7644
12192TIP3    H258068   1.786   1.997   0.079  0.9431  0.8043 -2.9405
12193TIP3   OH258069   1.559   1.213   4.831  0.4144 -0.7305  0.1426
12193TIP3    H158070   1.511   1.281   4.783  1.3376  0.2336  0.5548
12193TIP3    H258071   1.491   1.165   4.879 -0.1314  0.9006  1.0906
12194TIP3   OH258072   2.207   3.804   4.109 -0.0024 -0.1225  0.3754
12194TIP3    H158073   2.185   3.892   4.141 -1.8874  0.0286 -1.1280
12194TIP3    H258074   2.183   3.746   4.181 -0.4445  0.4754  0.7300
12195TIP3   OH258075   5.357   5.306  13.706 -0.6595 -0.0522 -0.1868
12195TIP3    H158076   5.384   5.355  13.629 -1.5572  0.6578 -0.0725
12195TIP3    H258077   5.436   5.300  13.760  0.3294 -1.6754 -1.6920
12196TIP3   OH258078   0.854   6.697   0.433 -0.4655  0.9533 -0.0490
12196TIP3    H158079   0.826   6.658   0.350 -0.9163  2.7547 -0.8026
12196TIP3    H258080   0.949   6.686   0.434 -0.3771  1.3963 -1.1151
12197TIP3   OH258081   0.039   2.072   5.582 -0.0223  0.2091 -0.1263
12197TIP3    H158082   0.128   2.077   5.617 -0.1102  0.5788  0.0480
12197TIP3    H258083  -0.000   1.997   5.627  0.4586 -0.4775 -0.8120
12198TIP3   OH258084   0.879   1.653  12.256 -0.2596  0.2158  0.4399
12198TIP3    H158085   0.895   1.643  12.350  2.0249  0.1055  0.1139
12198TIP3    H258086   0.932   1.728  12.231 -0.9185  0.3072 -0.7537
12199TIP3   OH258087   1.955   5.356   1.489  0.1378 -0.1799  0.3556
12199TIP3    H158088   1.987   5.292   1.553  1.6277 -0.4010 -0.5679
12199TIP3    H258089   1.900   5.305   1.430  1.4492 -0.6957 -0.4715
12200TIP3   OH258090   5.565   4.524  15.310  0.2465 -0.1988 -0.8371
12200TIP3    H158091   5.615   4.597  15.273  2.5069 -2.2138 -2.0391
12200TIP3    H258092   5.486   4.519  15.257  1.0689  0.1039 -2.1286
12201TIP3   OH258093   6.273   1.012  13.441 -0.2259 -0.1421 -0.0743
12201TIP3    H158094   6.299   1.055  13.359 -2.3478  0.3917 -0.5339
12201TIP3    H258095   6.254   1.084  13.501 -0.5282 -0.4876  0.2507
12202TIP3   OH258096   0.542   2.530  15.584 -0.0884 -0.1190 -0.6016
12202TIP3    H158097   0.620   2.479  15.608  0.5076  0.8757 -0.3707
12202TIP3    H258098   0.505   2.556  15.668 -0.5968 -0.4669 -0.7155
12203TIP3   OH258099   2.311   1.622   0.775  0.3256 -0.1999 -0.1515
12203TIP3    H158100   2.249   1.671   0.830  0.3837 -1.2524  0.8829
12203TIP3    H258101   2.256   1.580   0.709 -0.2896 -2.2259  1.5643
12204TIP3   OH258102   2.163   6.208   5.484 -0.0807 -0.1002 -0.4244
12204TIP3    H158103   2.228   6.192   5.552 -1.1000  0.9619  0.8618
12204TIP3    H258104   2.123   6.291   5.508 -1.9747 -0.7533 -1.0970
12205TIP3   OH258105   2.683   6.375   0.319 -0.0494 -0.6284  0.8911
12205TIP3    H158106   2.736   6.298   0.342 -0.0453 -0.7440  0.4995
12205TIP3    H258107   2.742   6.449   0.333 -0.7399 -0.4771  3.5057
12206TIP3   OH258108   2.170   6.631  12.268 -0.2961  0.1069  0.1009
12206TIP3    H158109   2.136   6.634  12.178  0.1142  1.0963 -0.0368
12206TIP3    H258110   2.162   6.539  12.293  0.1472 -0.3111 -1.1808
12207TIP3   OH258111   4.577   5.998  13.801 -0.6902 -0.0326 -0.1328
12207TIP3    H158112   4.550   6.015  13.891 -1.8321  1.5263 -0.7370
12207TIP3    H258113   4.645   5.931  13.809 -0.9370 -0.1033  1.8561
12208TIP3   OH258114   2.482   1.683   5.144 -0.0334 -0.3082 -0.2354
12208TIP3    H158115   2.460   1.728   5.225 -2.0616  0.1442 -0.9806
12208TIP3    H258116   2.541   1.743   5.098  2.8534 -1.4517  1.7213
12209TIP3   OH258117   2.207   5.225  12.265  0.4654 -0.1536 -0.0004
12209TIP3    H158118   2.247   5.184  12.342 -0.2665  1.6870  1.4454
12209TIP3    H258119   2.233   5.317  12.272 -2.5640  0.7770  0.0634
12210TIP3   OH258120   4.085   3.287  15.356  0.0428 -0.8026 -0.0208
12210TIP3    H158121   4.002   3.326  15.327  0.7928 -0.5056 -1.9034
12210TIP3    H258122   4.127   3.356  15.407 -0.5332 -0.6920  0.3154
12211TIP3   OH258123   0.697   1.812  14.189 -0.2070  0.0267  0.3817
12211TIP3    H158124   0.679   1.905  14.201 -0.2179  0.0361  0.2887
12211TIP3    H258125   0.790   1.808  14.166 -0.2376  0.0235  0.2620
12212TIP3   OH258126   6.774   6.125  12.088  0.1576 -0.5050 -0.2322
12212TIP3    H158127   6.773   6.121  11.992 -0.7368 -0.9851 -0.2194
12212TIP3    H258128   6.864   6.148  12.111  0.1049  0.7944 -1.2328
12213TIP3   OH258129   3.965   1.444   2.242  0.2819 -0.2215 -0.6185
12213TIP3    H158130   3.936   1.420   2.154  0.3559 -0.9721 -0.4392
12213TIP3    H258131   3.915   1.524   2.262  1.8212  1.2424 -2.1898
12214TIP3   OH258132   5.870   2.711  14.092  0.6503  0.0924 -0.1640
12214TIP3    H158133   5.780   2.681  14.099  0.7113  0.2534  1.8210
12214TIP3    H258134   5.869   2.774  14.020 -0.7527 -0.0524 -0.2921
12215TIP3   OH258135   6.749   1.517   5.637 -0.7210  0.4700 -1.1296
12215TIP3    H158136   6.658   1.499   5.617 -0.7610 -0.0749 -0.4851
12215TIP3    H258137   6.763   1.479   5.723  0.2935 -0.0501 -1.5093
12216TIP3   OH258138   4.440   5.869   4.653  0.4745  0.3900  0.3621
12216TIP3    H158139   4.447   5.874   4.748  0.3585  0.6980  0.3551
12216TIP3    H258140   4.349   5.893   4.634  0.0048 -1.2711  0.2907
12217TIP3   OH258141   0.413   0.003   5.337  0.3360 -0.6242 -0.3424
12217TIP3    H158142   0.417  -0.092   5.354  0.8684 -0.4521  0.5292
12217TIP3    H258143   0.334   0.032   5.384  0.2083 -0.6225 -0.5569
12218TIP3   OH258144   2.049   5.083  11.408  0.0574 -0.5738  0.0220
12218TIP3    H158145   2.012   5.165  11.374 -0.2362 -0.1288  1.3398
12218TIP3    H258146   2.111   5.055  11.341 -0.3726  0.3358 -0.7920
12219TIP3   OH258147   4.271   1.940  16.889  0.2731 -0.5197  0.0987
12219TIP3    H158148   4.224   1.934  16.973  0.8120 -2.9110  0.3060
12219TIP3    H258149   4.319   1.857  16.883  1.3696  0.2058 -1.9364
12220TIP3   OH258150   0.565   1.634  12.242  0.0183  0.1600  0.1670
12220TIP3    H158151   0.627   1.566  12.219 -0.5928 -0.7198  1.0093
12220TIP3    H258152   0.618   1.705  12.276  0.5656 -0.6980  1.1612
12221TIP3   OH258153   0.039   0.985   1.536  0.1012  0.1409 -0.1351
12221TIP3    H158154   0.080   0.920   1.593 -2.9377 -2.5931 -0.7654
12221TIP3    H258155   0.084   0.975   1.452  1.3230  0.6902  0.4329
12222TIP3   OH258156   0.455   0.955   0.147 -0.8087  0.5057 -0.1232
12222TIP3    H158157   0.548   0.973   0.137 -1.0811  2.8884  1.0193
12222TIP3    H258158   0.414   0.990   0.068 -0.7215 -1.4037 -1.0908
12223TIP3   OH258159   0.440   2.820  13.396  0.1055  0.4307 -0.0918
12223TIP3    H158160   0.446   2.796  13.303 -0.3784 -1.1634  0.2525
12223TIP3    H258161   0.348   2.839  13.410  0.0348 -0.1001  0.2137
12224TIP3   OH258162   2.958   4.171  15.290 -0.0877  0.3506  0.1741
12224TIP3    H158163   2.990   4.129  15.370  2.4424  0.8147 -0.5108
12224TIP3    H258164   2.882   4.222  15.319  0.4902  0.1499  2.1998
12225TIP3   OH258165   5.898   4.975   0.502 -0.5711 -0.2240 -0.3132
12225TIP3    H158166   5.953   4.898   0.512 -1.7186 -1.0152  0.0681
12225TIP3    H258167   5.877   5.002   0.592 -0.9461 -0.0340 -0.4542
12226TIP3   OH258168   0.613   1.706  17.119 -0.3725  0.5958  0.1795
12226TIP3    H158169   0.660   1.649  17.180  1.6705  0.1505 -1.6609
12226TIP3    H258170   0.529   1.723  17.161  0.9197  0.3412  3.0751
12227TIP3   OH258171   2.657   3.472   0.719 -0.2192  0.0389  0.4450
12227TIP3    H158172   2.649   3.562   0.688 -0.7596 -0.3744 -0.6639
12227TIP3    H258173   2.609   3.470   0.801  0.1740  0.8693  0.6996
12228TIP3   OH258174   6.189   2.598   0.209  0.0913  0.6422 -0.6031
12228TIP3    H158175   6.150   2.654   0.276  1.9775  0.9817  0.2678
12228TIP3    H258176   6.231   2.528   0.258 -1.2471 -0.9563 -1.6324
12229TIP3   OH258177   1.203   1.375   4.940  0.0668 -0.4053  0.6380
12229TIP3    H158178   1.217   1.393   5.033  0.1357  1.0104  0.3670
12229TIP3    H258179   1.125   1.425   4.916 -1.5974 -2.8864  0.5271
12230TIP3   OH258180   1.005   6.296  15.505  0.4301 -0.2472  0.2995
12230TIP3    H158181   1.047   6.309  15.420 -0.3476 -0.1502 -0.0763
12230TIP3    H258182   0.912   6.310  15.488  0.0660 -1.8752  0.8287
12231TIP3   OH258183   1.110   0.654   2.074 -0.2039  0.1186 -0.3635
12231TIP3    H158184   1.103   0.741   2.113  1.6441 -0.0697  0.4897
12231TIP3    H258185   1.020   0.621   2.073 -0.7943  1.5935  0.3001
12232TIP3   OH258186   5.043   1.147  14.438  0.1010 -0.2187  0.5370
12232TIP3    H158187   4.976   1.080  14.451 -0.3402  0.0374 -0.3090
12232TIP3    H258188   5.106   1.133  14.509  0.9233 -2.6167 -0.5632
12233TIP3   OH258189   0.678   6.254  12.731  0.1095  0.0017 -0.5866
12233TIP3    H158190   0.684   6.337  12.683 -1.3757  0.1365 -0.5938
12233TIP3    H258191   0.756   6.253  12.786  0.8438  0.7692 -1.5589
12234TIP3   OH258192   6.754   6.491   1.769  0.3581 -0.4715  0.8250
12234TIP3    H158193   6.831   6.458   1.815  0.4334 -0.4230  0.7361
12234TIP3    H258194   6.771   6.470   1.677  0.9100  0.7567  0.6185
12235TIP3   OH258195   5.783   2.307  11.222 -0.6063  0.4084  0.1499
12235TIP3    H158196   5.825   2.246  11.161  0.6514  1.8000 -0.4358
12235TIP3    H258197   5.856   2.353  11.263 -1.4908  0.5815  1.5808
12236TIP3   OH258198   6.577   5.692  16.676 -0.7067 -0.0724 -0.2456
12236TIP3    H158199   6.561   5.782  16.645 -0.0657 -0.3138 -1.3254
12236TIP3    H258200   6.497   5.668  16.722 -0.6800  1.2557  0.5560
12237TIP3   OH258201   3.701   2.003   3.612 -0.4175  0.2440 -0.6279
12237TIP3    H158202   3.642   1.997   3.687  0.5274  0.1945  0.1378
12237TIP3    H258203   3.651   1.969   3.538 -0.9045 -1.0345  0.2615
12238TIP3   OH258204   2.227   2.216   0.046  0.3258 -0.2161 -0.1560
12238TIP3    H158205   2.287   2.225  -0.029  0.8540 -0.0049  0.2839
12238TIP3    H258206   2.141   2.237   0.010  0.7510  1.2060 -0.4152
12239TIP3   OH258207   3.008   4.312  12.613  0.0725 -0.0517 -0.4063
12239TIP3    H158208   3.045   4.258  12.543  1.7867 -0.0288  0.4486
12239TIP3    H258209   3.080   4.369  12.640 -0.9552  0.8526  0.4932
12240TIP3   OH258210   4.255   5.413  15.097 -0.0391 -0.1303 -0.3542
12240TIP3    H158211   4.176   5.463  15.077  0.0888 -0.6379 -2.3438
12240TIP3    H258212   4.324   5.479  15.106 -0.8027  0.4204  2.5479
12241TIP3   OH258213   5.892   5.227   3.386 -0.0243 -0.1746  0.0988
12241TIP3    H158214   5.891   5.155   3.449  0.4235  0.8481  1.3054
12241TIP3    H258215   5.983   5.257   3.385 -0.0278 -0.1465 -1.0315
12242TIP3   OH258216   0.361   3.070   1.197  0.7801 -0.1183 -0.5924
12242TIP3    H158217   0.389   3.065   1.289 -1.8394  0.9162  0.3601
12242TIP3    H258218   0.315   2.987   1.182  1.5644 -0.4692 -1.1591
12243TIP3   OH258219   2.916   4.196  16.038 -0.2630 -0.2679  0.2988
12243TIP3    H158220   2.990   4.136  16.049  0.0713  0.4069  1.9974
12243TIP3    H258221   2.954   4.283  16.041 -0.9736  0.0766 -0.2288
12244TIP3   OH258222   6.327   2.056   2.791  0.1795 -0.1120  0.7994
12244TIP3    H158223   6.295   2.099   2.871 -1.4653  1.1805 -0.4734
12244TIP3    H258224   6.258   1.993   2.769 -1.9411  2.8969 -2.1316
12245TIP3   OH258225   2.491   5.373  14.949 -0.2564  0.3850  0.0194
12245TIP3    H158226   2.414   5.387  15.003 -0.2083  1.5334 -0.1979
12245TIP3    H258227   2.524   5.461  14.929  1.0916 -0.0764  0.0882
12246TIP3   OH258228   1.958   3.053  16.169  0.0290 -0.4128 -0.3353
12246TIP3    H158229   1.961   2.965  16.208  2.7193 -0.5109 -0.6039
12246TIP3    H258230   1.959   3.113  16.243 -0.5682 -0.5846 -0.1808
12247TIP3   OH258231   1.917   1.818  14.170 -0.2011 -0.0595  0.2350
12247TIP3    H158232   1.948   1.753  14.233  1.7501  0.1319 -0.4631
12247TIP3    H258233   1.978   1.812  14.096 -2.3354 -0.2062 -1.6343
12248TIP3   OH258234   4.191   6.263  14.720 -0.2789  0.5407 -0.3568
12248TIP3    H158235   4.142   6.181  14.725 -0.3187  0.4981 -1.2948
12248TIP3    H258236   4.214   6.282  14.811 -0.2398 -0.5269 -0.1245
12249TIP3   OH258237   4.678   4.576  14.791 -0.2905 -0.4084  0.2146
12249TIP3    H158238   4.689   4.653  14.847  1.2782 -0.6945  0.3411
12249TIP3    H258239   4.598   4.535  14.823  0.2242 -0.2164  1.8412
12250TIP3   OH258240   0.751   2.907   2.127  0.3428  0.0038 -0.3329
12250TIP3    H158241   0.739   2.979   2.188 -1.2051 -1.0438  0.6551
12250TIP3    H258242   0.839   2.873   2.146 -0.7019 -1.3672  2.5529
12251TIP3   OH258243   0.018   0.868  16.146  0.6034 -0.8071 -0.7578
12251TIP3    H158244  -0.041   0.876  16.071 -1.6625 -0.2456  0.9569
12251TIP3    H258245  -0.023   0.802  16.202  0.1922  1.3094  1.6333
12252TIP3   OH258246   6.291   5.750   4.644  0.6902  0.2283  0.3086
12252TIP3    H158247   6.253   5.813   4.705 -0.7246 -0.6462  0.3801
12252TIP3    H258248   6.335   5.687   4.701  1.3886  0.6877  0.2833
12253TIP3   OH258249   0.071   2.049   4.795 -0.2127 -0.0581 -0.5279
12253TIP3    H158250   0.018   1.981   4.835  0.6368  0.0300  0.8009
12253TIP3    H258251   0.009   2.119   4.776 -0.7425 -0.3538  0.0789
12254TIP3   OH258252   3.549   6.222   3.030  0.7438 -0.1085 -0.3022
12254TIP3    H158253   3.553   6.189   3.120  3.7819 -0.0462 -0.3149
12254TIP3    H258254   3.484   6.166   2.987 -0.1118 -0.7369  1.6638
12255TIP3   OH258255   0.072   0.603   1.911 -0.5626 -0.3380 -0.0364
12255TIP3    H158256   0.054   0.696   1.915 -1.4893 -0.5199  0.1666
12255TIP3    H258257   0.085   0.585   1.817  0.4783  0.1305 -0.0055
12256TIP3   OH258258   4.603   1.974   6.392 -0.5487  0.8291 -0.0072
12256TIP3    H158259   4.550   1.979   6.313 -1.4669  0.8985  0.5943
12256TIP3    H258260   4.676   2.033   6.376  0.3682 -0.6341 -1.5804
12257TIP3   OH258261   4.985   6.034   1.271  0.1294 -0.7326  0.3251
12257TIP3    H158262   4.925   5.969   1.308  0.7905 -1.1803  0.6544
12257TIP3    H258263   5.062   5.983   1.245  0.3776 -0.1734 -0.0586
12258TIP3   OH258264   2.885   2.710  12.266  0.3355 -0.0992 -0.6720
12258TIP3    H158265   2.817   2.644  12.277 -0.4462  0.9169  1.0552
12258TIP3    H258266   2.862   2.757  12.186 -2.7660  2.0858  1.2639
12259TIP3   OH258267   4.646   2.028   2.343 -0.3675 -0.0112  0.4136
12259TIP3    H158268   4.576   2.093   2.342 -0.4549 -0.0752 -1.0677
12259TIP3    H258269   4.697   2.048   2.264  0.9373 -0.3386  1.1524
12260TIP3   OH258270   2.792   0.800   2.026  0.6052  0.2061 -0.2039
12260TIP3    H158271   2.749   0.765   1.948  0.3449  1.2558 -0.5459
12260TIP3    H258272   2.783   0.895   2.018  1.9874  0.3954  0.2995
12261TIP3   OH258273   2.222   6.509   4.074  0.6141  0.2966  0.1306
12261TIP3    H158274   2.130   6.519   4.050  0.5925 -1.2758 -0.5515
12261TIP3    H258275   2.258   6.451   4.008  1.8232 -0.0519  1.0584
12262TIP3   OH258276   4.717   5.088  11.441 -0.0897 -0.5769 -0.3742
12262TIP3    H158277   4.802   5.060  11.474  0.0893 -0.8637 -1.0665
12262TIP3    H258278   4.731   5.103  11.347 -0.6804 -0.1459 -0.3985
12263TIP3   OH258279   1.106   5.937  12.684 -0.4330 -0.1809  0.0373
12263TIP3    H158280   1.131   5.849  12.656  0.7030  0.2870 -0.4892
12263TIP3    H258281   1.080   5.981  12.603 -2.3238 -0.4216  0.4782
12264TIP3   OH258282   2.262   6.801   5.255 -0.0560  0.4967  0.6270
12264TIP3    H158283   2.250   6.727   5.314 -1.4578  0.2694  0.0945
12264TIP3    H258284   2.322   6.768   5.188  0.3570  0.2815  1.0873
12265TIP3   OH258285   4.009   2.945  16.954 -0.2454 -0.3709  0.3430
12265TIP3    H158286   3.925   2.926  16.913  0.3023 -0.2727 -0.8566
12265TIP3    H258287   4.027   3.036  16.930 -1.3421  0.7765  3.3915
12266TIP3   OH258288   3.098   6.607  14.795 -0.3885  0.0278  0.1419
12266TIP3    H158289   3.056   6.681  14.751 -0.3788  0.6498  1.1496
12266TIP3    H258290   3.187   6.636  14.811  0.6487 -1.4373 -2.3661
12267TIP3   OH258291   6.740   1.883   3.162 -0.1861  0.0317 -0.1825
12267TIP3    H158292   6.827   1.896   3.124 -0.3645  1.4469 -0.1364
12267TIP3    H258293   6.728   1.957   3.221 -2.4872  1.4268 -2.1821
12268TIP3   OH258294   0.393   0.784   2.672 -0.4255 -0.0601 -0.0455
12268TIP3    H158295   0.368   0.691   2.676 -2.2965  0.4262  0.4456
12268TIP3    H258296   0.325   0.829   2.722 -1.1553  1.8790 -2.5784
12269TIP3   OH258297   1.521   5.143  12.872 -0.2436 -0.1079  0.2432
12269TIP3    H158298   1.547   5.069  12.928  2.2094  0.1750 -0.4183
12269TIP3    H258299   1.499   5.103  12.788 -1.7196 -0.3161  0.7046
12270TIP3   OH258300   1.125   0.015  13.003 -0.3743 -0.6690 -0.4430
12270TIP3    H158301   1.203  -0.040  12.994 -1.3322 -2.2752  0.6946
12270TIP3    H258302   1.073  -0.003  12.925 -0.0326 -0.2704 -0.7673
12271TIP3   OH258303   4.534   2.965   4.965 -0.6821 -0.1321  0.3220
12271TIP3    H158304   4.605   3.023   4.938  1.1864 -2.5498 -0.3376
12271TIP3    H258305   4.479   2.957   4.888 -0.0548 -0.4504 -0.1036
12272TIP3   OH258306   1.127   3.116  12.286  0.4518  0.1598 -0.8129
12272TIP3    H158307   1.152   3.161  12.205  0.8756  1.6068  0.0994
12272TIP3    H258308   1.195   3.138  12.348 -1.1065  1.1055  0.6463
12273TIP3   OH258309   2.664   4.304   5.358  0.3383 -0.4607 -0.0037
12273TIP3    H158310   2.596   4.283   5.422  0.2760 -1.6581 -0.4390
12273TIP3    H258311   2.733   4.239   5.375  2.1801  1.7313  1.5614
12274TIP3   OH258312   2.462   3.669  15.466  0.3258 -0.6234 -0.2839
12274TIP3    H158313   2.375   3.641  15.495  0.2490 -0.2597 -0.1609
12274TIP3    H258314   2.518   3.656  15.543  0.2056 -0.0502 -0.0972
12275TIP3   OH258315   1.713   1.069  15.034  0.1391  0.4897  0.1204
12275TIP3    H158316   1.652   1.049  14.962 -1.2243 -0.1737  1.3973
12275TIP3    H258317   1.780   1.001  15.027  0.3787  0.8059 -0.8821
12276TIP3   OH258318   1.331   4.688  11.976 -0.1193  0.1347  0.0181
12276TIP3    H158319   1.373   4.774  11.971 -1.5783  0.9491  0.8547
12276TIP3    H258320   1.238   4.708  11.988 -0.7278 -1.5777 -1.3956
12277TIP3   OH258321   2.004   0.770  16.412  0.9409  0.6957 -0.1620
12277TIP3    H158322   2.052   0.712  16.471  0.3781  0.9831  0.5961
12277TIP3    H258323   1.984   0.716  16.336  1.9623  0.4159 -0.2402
12278TIP3   OH258324   3.390   4.230  12.201  0.2625  0.0081 -0.0554
12278TIP3    H158325   3.305   4.226  12.157 -0.0866 -0.5267  0.6505
12278TIP3    H258326   3.411   4.323  12.205 -0.2127  0.1326 -0.3690
12279TIP3   OH258327   5.872   5.052   4.710 -0.2351  0.0617 -0.4619
12279TIP3    H158328   5.779   5.071   4.705 -0.6816 -0.9368  2.3019
12279TIP3    H258329   5.913   5.111   4.647 -2.5595  1.7303 -0.4995
12280TIP3   OH258330   3.805   4.497   0.440  0.1622  0.0679  0.7153
12280TIP3    H158331   3.818   4.556   0.515  3.8989 -0.2241  0.4613
12280TIP3    H258332   3.835   4.546   0.364  0.5640 -1.1420  0.0579
12281TIP3   OH258333   5.458   1.560   1.505 -0.9761  0.3482  0.1952
12281TIP3    H158334   5.458   1.652   1.532 -1.7907  0.2030  0.7160
12281TIP3    H258335   5.387   1.520   1.555  0.5962 -1.0034  1.4557
12282TIP3   OH258336   6.450   5.047  11.881  0.0029 -0.4920  0.3903
12282TIP3    H158337   6.404   5.043  11.798 -1.1064 -3.5829  0.9954
12282TIP3    H258338   6.543   5.038  11.858 -0.4355 -4.1528 -0.5483
12283TIP3   OH258339   4.296   5.867   0.610 -0.5341 -0.9520 -0.0843
12283TIP3    H158340   4.261   5.839   0.526 -2.0643  0.3094  0.0785
12283TIP3    H258341   4.388   5.886   0.592 -0.7322 -1.0934 -1.3704
12284TIP3   OH258342   6.419   5.760  14.823  0.0420 -0.8487 -0.1913
12284TIP3    H158343   6.356   5.688  14.820 -1.1028 -0.0186  2.0773
12284TIP3    H258344   6.392   5.819  14.752 -2.2432 -0.1578  1.1838
12285TIP3   OH258345   1.841   0.869  16.961 -0.2934 -0.6358  0.0426
12285TIP3    H158346   1.922   0.919  16.950 -0.2192 -0.6238  0.5889
12285TIP3    H258347   1.832   0.820  16.879  0.0684 -0.3554 -0.1726
12286TIP3   OH258348   0.630   0.904   5.427  0.5193  0.4896 -0.2766
12286TIP3    H158349   0.726   0.896   5.427  0.4467 -0.6715 -0.0054
12286TIP3    H258350   0.599   0.813   5.431 -0.5888  0.8971  1.4899
12287TIP3   OH258351   2.297   5.119  16.949  0.2445  0.4090  0.3062
12287TIP3    H158352   2.325   5.174  17.022 -0.0803  0.6364  0.2623
12287TIP3    H258353   2.224   5.067  16.985 -0.4009  1.0470 -0.0572
12288TIP3   OH258354   2.505   4.731   0.252 -0.3214 -0.5099 -0.5419
12288TIP3    H158355   2.584   4.697   0.294 -0.6237 -0.5452  0.0019
12288TIP3    H258356   2.487   4.668   0.182  0.0294 -0.5944 -0.5613
12289TIP3   OH258357   0.966   1.562  15.197  0.2838 -0.4900 -0.0460
12289TIP3    H158358   0.961   1.654  15.172  3.1061 -0.8572 -2.5961
12289TIP3    H258359   0.878   1.528  15.180 -0.3620  1.3843 -0.7049
12290TIP3   OH258360   6.812   0.332   1.654  0.2786  0.3366  0.4194
12290TIP3    H158361   6.744   0.368   1.711  0.8676  0.4192  1.0847
12290TIP3    H258362   6.869   0.283   1.713 -0.7581 -2.1479 -0.5167
12291TIP3   OH258363   4.296   2.390   0.885 -0.0085  0.0916 -0.0480
12291TIP3    H158364   4.205   2.410   0.862 -0.2191 -0.4367  0.3068
12291TIP3    H258365   4.293   2.300   0.918  0.6596  0.0398 -0.1168
12292TIP3   OH258366   5.760   2.463   1.049  0.1357 -0.1583  0.2608
12292TIP3    H158367   5.746   2.403   1.123 -1.8179  0.9483  0.8682
12292TIP3    H258368   5.692   2.440   0.986  2.0379 -1.3741 -1.4867
12293TIP3   OH258369   1.943   6.262   1.733 -0.0272  0.0548  0.6875
12293TIP3    H158370   1.994   6.343   1.740 -1.5530  1.0100  1.1708
12293TIP3    H258371   1.930   6.235   1.824 -2.4614  1.2016  0.7362
12294TIP3   OH258372   0.515   1.868   2.588  0.7872  0.6575 -0.2214
12294TIP3    H158373   0.446   1.856   2.523 -0.9737  1.4415  1.4016
12294TIP3    H258374   0.535   1.962   2.585 -1.8616  1.4951  2.6214
12295TIP3   OH258375   2.846   1.727  11.747 -0.6249  0.1159  0.2619
12295TIP3    H158376   2.920   1.780  11.716 -0.8249 -1.2124 -2.8134
12295TIP3    H258377   2.857   1.725  11.842  1.3621  2.7040  0.2062
12296TIP3   OH258378   5.478   3.975  12.772 -0.1379 -0.4052  0.1324
12296TIP3    H158379   5.567   3.954  12.743 -0.0797  0.8471 -0.7053
12296TIP3    H258380   5.422   3.949  12.698 -0.1904  1.0282 -0.3748
12297TIP3   OH258381   5.181   0.107  17.035  0.0570  0.0375 -0.1482
12297TIP3    H158382   5.275   0.091  17.026  0.2285  0.1510  1.2441
12297TIP3    H258383   5.174   0.201  17.049 -0.3283  0.1174 -0.8130
12298TIP3   OH258384   2.765   2.783   5.423 -0.5000  0.1966  0.3905
12298TIP3    H158385   2.681   2.806   5.464 -0.4252 -0.0839  0.6985
12298TIP3    H258386   2.744   2.708   5.367 -0.5079  0.2975  0.2565
12299TIP3   OH258387   0.195   1.726   3.695 -0.1178 -0.2361  0.3565
12299TIP3    H158388   0.128   1.726   3.762  0.2240 -0.2816  0.6996
12299TIP3    H258389   0.213   1.633   3.679 -1.7931 -0.3250 -1.4134
12300TIP3   OH258390   2.854   5.787  11.336 -0.6196 -0.1516  0.1383
12300TIP3    H158391   2.770   5.747  11.358  1.7108 -4.5662  2.2754
12300TIP3    H258392   2.890   5.733  11.266  0.9794  0.8712  0.1031
12301TIP3   OH258393   0.985   2.399  12.407 -0.0385  0.2948  0.4124
12301TIP3    H158394   1.037   2.382  12.486 -0.4864  0.0768  0.6599
12301TIP3    H258395   0.983   2.316  12.360  3.3373  1.2273 -1.7349
12302TIP3   OH258396   6.409   0.368  14.782  0.0983 -0.2828 -0.2839
12302TIP3    H158397   6.349   0.316  14.728 -1.2879  0.2749  0.6489
12302TIP3    H258398   6.470   0.305  14.818 -1.1970 -1.2153  0.3703
12303TIP3   OH258399   5.822   3.696  15.183 -0.1042  0.1703  0.4260
12303TIP3    H158400   5.776   3.614  15.205 -0.4314  0.0458 -0.6711
12303TIP3    H258401   5.895   3.699  15.245 -0.0010 -1.0372  0.3989
12304TIP3   OH258402   0.540   1.431   0.488  0.1655 -0.3508 -0.4201
12304TIP3    H158403   0.524   1.436   0.583  1.0873 -2.4854 -0.0821
12304TIP3    H258404   0.540   1.522   0.459  0.2053  0.3940  1.7024
12305TIP3   OH258405   4.051   2.857   3.715  0.0942  0.6027 -0.1228
12305TIP3    H158406   4.116   2.855   3.786  2.6455  0.9250 -2.2634
12305TIP3    H258407   4.102   2.885   3.639 -2.0042 -1.8259 -2.5799
12306TIP3   OH258408   2.608   1.643   3.581  0.1780  0.2754  0.0251
12306TIP3    H158409   2.681   1.652   3.520 -0.4848  0.8404 -0.6994
12306TIP3    H258410   2.535   1.614   3.527 -0.4482  0.8923  0.5304
12307TIP3   OH258411   3.146   1.333   2.872 -0.1767  0.0571 -0.1558
12307TIP3    H158412   3.060   1.365   2.844 -0.6799 -2.0506 -1.2328
12307TIP3    H258413   3.173   1.393   2.941 -2.7286  0.5305  0.5138
12308TIP3   OH258414   3.592   6.524   5.684 -0.4366  0.0243 -0.3127
12308TIP3    H158415   3.654   6.505   5.614 -0.4333  1.7630 -0.8222
12308TIP3    H258416   3.580   6.440   5.729  1.4406 -0.5823 -0.8653
12309TIP3   OH258417   4.144   5.483  12.614  0.2054  0.4834 -0.1433
12309TIP3    H158418   4.139   5.461  12.707  2.3109 -1.1681 -0.3431
12309TIP3    H258419   4.059   5.457  12.579  0.4621 -1.9224  0.7941
12310TIP3   OH258420   1.260   0.696   5.484  0.0289 -0.2926  0.1906
12310TIP3    H158421   1.198   0.623   5.486  0.0821 -0.3149  1.2170
12310TIP3    H258422   1.204   0.774   5.485  0.0140 -0.3129  1.0369
12311TIP3   OH258423   3.319   4.162  15.730  0.7018 -0.4231 -0.5607
12311TIP3    H158424   3.359   4.170  15.817  1.7027 -0.2883 -1.0189
12311TIP3    H258425   3.362   4.087  15.691 -1.2765 -1.8339 -0.1633
12312TIP3   OH258426   2.646   0.535  12.532  0.3865  0.2970 -0.1698
12312TIP3    H158427   2.576   0.586  12.574  0.7691  0.9509 -0.3131
12312TIP3    H258428   2.600   0.472  12.477 -0.1168 -0.3367  0.9583
12313TIP3   OH258429   6.704   6.670   5.894 -0.5521 -0.4251 -0.2132
12313TIP3    H158430   6.797   6.664   5.871 -0.4854  1.9882 -0.8268
12313TIP3    H258431   6.704   6.709   5.982 -0.9655  0.2120 -0.4878
12314TIP3   OH258432   3.093   6.008  16.798  0.1982  0.0937  0.1522
12314TIP3    H158433   3.157   5.938  16.782 -0.0702 -0.8390  2.6169
12314TIP3    H258434   3.125   6.050  16.878 -0.7794  1.4678 -0.1538
12315TIP3   OH258435   5.879   4.319   2.639 -0.4292 -0.5359 -0.4006
12315TIP3    H158436   5.831   4.397   2.668  1.1464  0.9105 -1.5084
12315TIP3    H258437   5.953   4.313   2.699  0.1111 -0.4653 -1.0510
12316TIP3   OH258438   5.454   1.599  13.833 -0.1994 -0.3070 -0.2172
12316TIP3    H158439   5.417   1.517  13.865 -0.8191  0.2707  0.5771
12316TIP3    H258440   5.402   1.621  13.756 -0.7093 -0.1325  0.1740
12317TIP3   OH258441   1.841   4.521  16.778  0.2660  0.0880 -0.1483
12317TIP3    H158442   1.873   4.607  16.804 -0.4285  0.6833 -1.1821
12317TIP3    H258443   1.774   4.499  16.843 -0.0116  0.6291 -0.2487
12318TIP3   OH258444   4.468   1.191  17.057 -0.2872  0.1578  0.2288
12318TIP3    H158445   4.374   1.172  17.056 -0.3027  0.2478 -0.6773
12318TIP3    H258446   4.488   1.205  17.150 -1.5325  1.9625  0.2916
12319TIP3   OH258447   3.183   0.670  13.246  0.5719 -0.6235 -0.1004
12319TIP3    H158448   3.179   0.764  13.230  0.9319 -0.5027  0.5164
12319TIP3    H258449   3.098   0.637  13.216  1.1178 -0.3825 -2.0950
12320TIP3   OH258450   1.239   3.298   4.289 -0.4992  0.0489 -0.2330
12320TIP3    H158451   1.187   3.372   4.260  0.7637  0.5712 -1.2992
12320TIP3    H258452   1.319   3.337   4.324 -0.4084 -0.7530  0.4823
12321TIP3   OH258453   5.842   4.862  12.902 -0.0301 -0.2389 -0.2703
12321TIP3    H158454   5.752   4.838  12.924  0.4427 -1.0746  0.8491
12321TIP3    H258455   5.896   4.795  12.943  1.0843 -0.2313 -1.6213
12322TIP3   OH258456   3.664   4.198   5.766  0.6374 -0.3055 -0.6171
12322TIP3    H158457   3.620   4.184   5.682  1.8012  2.0333 -1.7150
12322TIP3    H258458   3.757   4.183   5.747  0.8525 -0.4356  0.4568
12323TIP3   OH258459   5.971   1.222   3.788 -0.0658 -0.0592 -0.4427
12323TIP3    H158460   6.018   1.140   3.781 -1.6435 -0.9677 -0.8566
12323TIP3    H258461   6.000   1.259   3.872 -1.6067 -2.5946  1.3720
12324TIP3   OH258462   2.672   4.936   0.695 -0.2371  0.1872  0.2365
12324TIP3    H158463   2.613   4.908   0.625 -0.2250 -0.2040  0.3784
12324TIP3    H258464   2.759   4.935   0.654 -0.2478  0.1023  0.2154
12325TIP3   OH258465   4.149   4.127  10.759 -0.9319  0.2814  0.1619
12325TIP3    H158466   4.156   4.140  10.665 -1.3738  0.0063  0.0851
12325TIP3    H258467   4.092   4.051  10.768 -0.5661  0.0630  0.6456
12326TIP3   OH258468   5.144   4.845  13.529 -0.6585  0.0668  0.0696
12326TIP3    H158469   5.106   4.820  13.613 -1.4289 -1.2361 -0.6343
12326TIP3    H258470   5.171   4.936  13.541  0.2579 -0.4081  2.0614
12327TIP3   OH258471   5.945   6.056   1.135  0.5528 -0.4837  0.0389
12327TIP3    H158472   5.930   6.125   1.200 -0.7891 -0.6421 -0.0791
12327TIP3    H258473   5.910   6.092   1.054  1.5059 -0.6044 -0.4388
12328TIP3   OH258474   0.515   4.066   5.172  0.0728 -0.1625 -0.1404
12328TIP3    H158475   0.452   4.129   5.207 -0.0324 -0.5415  0.3660
12328TIP3    H258476   0.484   3.981   5.204  1.3518 -0.2731  0.9139
12329TIP3   OH258477   6.216   6.543  15.460  0.2412  0.4187  0.4764
12329TIP3    H158478   6.200   6.531  15.553 -1.7620 -0.3729  0.0864
12329TIP3    H258479   6.189   6.460  15.420  0.3411  0.9991 -0.8711
12330TIP3   OH258480   5.590   2.086   6.525 -0.2599 -0.6804 -0.5800
12330TIP3    H158481   5.639   2.089   6.607 -0.1053 -1.2169 -0.6485
12330TIP3    H258482   5.650   2.045   6.462 -0.0794  0.4777 -1.1781
12331TIP3   OH258483   1.488   6.271   3.760 -0.0441 -0.4200 -0.0055
12331TIP3    H158484   1.530   6.237   3.839 -1.1022 -2.0221 -0.1001
12331TIP3    H258485   1.543   6.241   3.688 -1.5952 -3.1252 -0.1838
12332TIP3   OH258486   2.957   5.918   0.833 -0.6132 -0.1221  0.1429
12332TIP3    H158487   2.965   5.829   0.866  0.5123  0.4282  1.4849
12332TIP3    H258488   3.033   5.930   0.776 -0.8983 -0.0918 -0.2377
12333TIP3   OH258489   5.344   3.471  13.722  0.4901 -0.3547  0.3025
12333TIP3    H158490   5.416   3.408  13.710  0.6863  0.0239 -0.5712
12333TIP3    H258491   5.292   3.463  13.642  1.2702  1.5407 -0.4664
12334TIP3   OH258492   0.652   6.831   1.039 -0.5610 -0.0067 -0.0696
12334TIP3    H158493   0.590   6.894   1.001 -0.1693  1.1138  1.0726
12334TIP3    H258494   0.645   6.844   1.133  0.4930 -0.7634  0.1322
12335TIP3   OH258495   5.754   4.632   0.065 -0.3163  0.0990  0.0965
12335TIP3    H158496   5.756   4.689   0.141  0.9077  1.3404 -0.8288
12335TIP3    H258497   5.812   4.559   0.088  0.7724  0.9273  0.0166
12336TIP3   OH258498   0.007   0.089  15.180  0.4259  0.0769 -0.1368
12336TIP3    H158499   0.074   0.145  15.220 -0.8747  0.6522  1.3459
12336TIP3    H258500  -0.075   0.137  15.192 -0.4094 -1.0938 -0.9299
12337TIP3   OH258501   0.909   6.184  15.836 -0.0187  0.4590 -0.0816
12337TIP3    H158502   0.837   6.243  15.810  1.1817  0.9919 -2.5197
12337TIP3    H258503   0.947   6.155  15.753  2.5213  0.1003  1.1202
12338TIP3   OH258504   3.665   4.051   0.112  0.2345 -0.1464 -0.1031
12338TIP3    H158505   3.718   4.021   0.186  0.4888  1.4333  0.4023
12338TIP3    H258506   3.574   4.046   0.144  0.3309  0.3584  0.2584
12339TIP3   OH258507   1.959   3.522  12.248  0.0160  0.0717  0.1794
12339TIP3    H158508   1.975   3.428  12.252 -1.6676 -0.2773 -0.4562
12339TIP3    H258509   2.046   3.561  12.241  0.7221 -1.4599  0.0568
12340TIP3   OH258510   3.902   0.067   0.358 -0.7965  0.0798  0.0129
12340TIP3    H158511   3.914   0.146   0.306  0.3302  0.6113  1.0184
12340TIP3    H258512   3.960   0.079   0.434  0.0917 -2.0880 -0.2408
12341TIP3   OH258513   5.128   0.675  10.427  0.6842 -0.0013 -0.2399
12341TIP3    H158514   5.106   0.754  10.478  2.0897 -0.0278  0.4626
12341TIP3    H258515   5.191   0.629  10.482  0.2064 -1.4119 -0.8461
12342TIP3   OH258516   6.409   2.560  15.384  1.0541  0.0318  0.0015
12342TIP3    H158517   6.400   2.568  15.479  0.8366 -0.1553 -0.0011
12342TIP3    H258518   6.491   2.605  15.363  0.5625  1.0046  0.1378
12343TIP3   OH258519   3.063   0.800   0.552 -0.0506  0.4309 -0.0820
12343TIP3    H158520   3.014   0.731   0.596 -0.4725  0.1554 -0.9719
12343TIP3    H258521   3.006   0.876   0.556 -0.8055 -0.0321 -1.5940
12344TIP3   OH258522   5.091   1.125   3.119  0.4855  0.3911  0.1501
12344TIP3    H158523   5.008   1.085   3.092  1.4764 -0.1885 -2.4063
12344TIP3    H258524   5.066   1.199   3.174 -1.5998 -0.9853  1.1801
12345TIP3   OH258525   0.871   2.110  13.565 -0.6314 -0.2365  0.1190
12345TIP3    H158526   0.924   2.166  13.622  0.6417 -0.7856 -0.4925
12345TIP3    H258527   0.813   2.063  13.625  1.5923 -1.7960  1.1420
12346TIP3   OH258528   6.064   2.616   4.776  0.1512 -1.0119  0.3310
12346TIP3    H158529   6.083   2.567   4.856  0.3867 -1.5842 -0.0696
12346TIP3    H258530   5.981   2.581   4.745 -1.0039  0.6292  1.4109
12347TIP3   OH258531   4.412   1.026  14.046 -0.1570  0.5552 -0.5756
12347TIP3    H158532   4.322   1.051  14.024 -0.1084  0.6128 -0.7156
12347TIP3    H258533   4.457   1.110  14.059  0.0715  0.5512 -1.3019
12348TIP3   OH258534   1.192   0.757  15.626 -0.1215 -0.5110  0.3721
12348TIP3    H158535   1.221   0.727  15.712  0.9779 -1.6757 -0.3653
12348TIP3    H258536   1.258   0.723  15.566 -1.0521 -0.0063 -0.9719
12349TIP3   OH258537   2.931   5.185   5.451 -0.1610 -0.3884 -0.0867
12349TIP3    H158538   2.894   5.233   5.376 -2.2484  1.2818  1.8890
12349TIP3    H258539   3.012   5.232   5.472 -1.5622  1.6282  1.0604
12350TIP3   OH258540   6.624   6.254  11.474  0.1604  0.0712  0.3226
12350TIP3    H158541   6.642   6.163  11.450  2.4481  0.0043  1.9488
12350TIP3    H258542   6.660   6.305  11.402  2.1185 -0.2778  0.9798
12351TIP3   OH258543   4.936   4.031  15.911 -0.0209 -0.4954  0.0100
12351TIP3    H158544   4.884   4.054  15.988  0.0129 -0.3856 -0.0003
12351TIP3    H258545   4.922   4.103  15.850 -1.4518 -1.3896 -0.7819
12352TIP3   OH258546   4.283   0.443   1.162 -0.0740 -0.1084 -0.3099
12352TIP3    H158547   4.267   0.484   1.077  1.4859  0.7332 -0.2408
12352TIP3    H258548   4.357   0.384   1.146 -0.8596 -1.2304  0.1007
12353TIP3   OH258549   1.492   4.283  15.138 -0.1661 -0.0057  0.3216
12353TIP3    H158550   1.417   4.283  15.198 -0.0291  2.3563  0.5736
12353TIP3    H258551   1.463   4.333  15.062  0.8964  0.2601  0.0670
12354TIP3   OH258552   1.006   0.895  16.590  0.3791  0.0612 -0.0272
12354TIP3    H158553   1.008   0.985  16.557  0.0348  0.2606  0.4731
12354TIP3    H258554   1.046   0.843  16.520  0.8084  0.6309 -0.2210
12355TIP3   OH258555   6.510   4.151   1.048  0.1396 -0.1311 -0.3915
12355TIP3    H158556   6.559   4.223   1.089 -0.2805 -0.2837  0.4194
12355TIP3    H258557   6.519   4.078   1.110  0.2447 -0.6548 -1.0221
12356TIP3   OH258558   4.473   6.754  11.874 -0.1230  0.0390  0.0388
12356TIP3    H158559   4.449   6.666  11.844 -2.3724  0.6356 -0.0648
12356TIP3    H258560   4.527   6.739  11.951 -2.6933 -1.4929  1.6877
12357TIP3   OH258561   5.207   6.087  14.818  0.5697  0.2598 -0.1127
12357TIP3    H158562   5.256   6.034  14.754 -1.9013 -0.1272 -1.8548
12357TIP3    H258563   5.247   6.173  14.814  1.4891 -0.1892 -0.9998
12358TIP3   OH258564   5.157   5.009  13.956 -0.5632 -0.1160 -0.2126
12358TIP3    H158565   5.175   5.100  13.980  1.2041 -0.9988  2.1874
12358TIP3    H258566   5.222   4.989  13.888 -1.6251  0.6479 -1.5044
12359TIP3   OH258567   5.789   3.397  10.842  0.0743  0.3837 -0.1469
12359TIP3    H158568   5.694   3.407  10.844 -0.2069 -1.0739 -2.3694
12359TIP3    H258569   5.812   3.409  10.750  2.3070  2.3835  0.5699
12360TIP3   OH258570   6.597   1.940  16.356  0.0376  0.1422  0.5866
12360TIP3    H158571   6.589   1.850  16.387  1.8888 -0.7593 -1.2948
12360TIP3    H258572   6.685   1.967  16.382  0.1757  0.7268 -0.4179
12361TIP3   OH258573   6.218   4.281  15.933  0.3276 -0.0456 -0.1516
12361TIP3    H158574   6.225   4.199  15.982 -0.4906 -1.0127 -1.5880
12361TIP3    H258575   6.299   4.284  15.882  0.3140 -0.0026 -0.1702
12362TIP3   OH258576   6.847   0.729  10.711  0.4207 -0.3988  0.1001
12362TIP3    H158577   6.785   0.676  10.661 -0.1819  0.6275 -0.2639
12362TIP3    H258578   6.793   0.774  10.775  0.9066 -0.0923  0.2981
12363TIP3   OH258579   6.290   5.018   2.616 -0.3228  0.5489 -0.5602
12363TIP3    H158580   6.326   5.056   2.536 -3.2835  0.4237 -2.1179
12363TIP3    H258581   6.294   4.923   2.602  0.6851  0.4675  0.2133
12364TIP3   OH258582   3.815   6.529  11.860  0.5241 -0.7506  0.1476
12364TIP3    H158583   3.871   6.505  11.786  0.0342 -0.1017 -0.4512
12364TIP3    H258584   3.870   6.581  11.917  0.7847 -0.8901  0.0235
12365TIP3   OH258585   0.861   2.724   5.274 -0.2757  0.1138 -0.1699
12365TIP3    H158586   0.841   2.646   5.222  0.0903 -2.8576  3.7402
12365TIP3    H258587   0.954   2.740   5.256  0.4499 -2.2419  1.0603
12366TIP3   OH258588   0.270   2.705   2.813 -0.0022  0.2376 -0.5085
12366TIP3    H158589   0.362   2.729   2.820  0.2816 -0.8690 -0.2065
12366TIP3    H258590   0.269   2.633   2.750 -0.4218 -0.8847  0.7401
12367TIP3   OH258591   0.517   3.873   2.322 -1.0097 -0.0670  0.2940
12367TIP3    H158592   0.512   3.806   2.390 -2.4023 -0.3531 -0.0755
12367TIP3    H258593   0.536   3.825   2.242  2.6850  0.4286  0.6802
12368TIP3   OH258594   2.840   6.112   5.398 -0.2150 -0.3863 -0.0552
12368TIP3    H158595   2.861   6.127   5.306 -1.2532  1.4711 -0.0304
12368TIP3    H258596   2.784   6.034   5.396 -1.5244  0.5151 -1.2251
12369TIP3   OH258597   5.050   3.838   5.845 -0.2744 -0.2197  0.0342
12369TIP3    H158598   5.029   3.847   5.752 -1.1535  0.9201  0.3051
12369TIP3    H258599   5.027   3.748   5.867  0.6827 -0.7419 -1.0118
12370TIP3   OH258600   4.376   0.719   0.057 -0.1299  0.2307  0.2885
12370TIP3    H158601   4.348   0.631   0.084 -1.5034 -0.4281 -2.8814
12370TIP3    H258602   4.393   0.711  -0.036  1.1431  3.0590  0.1881
12371TIP3   OH258603   0.888   2.985  16.544 -0.2655 -1.2473  0.3437
12371TIP3    H158604   0.821   2.960  16.481  0.3650 -1.0549 -0.4216
12371TIP3    H258605   0.917   2.902  16.582 -0.2942 -1.4145  0.0053
12372TIP3   OH258606   1.080   3.078   3.342 -0.2144 -0.1904  0.0603
12372TIP3    H158607   1.099   3.049   3.431 -0.1644  0.7317  0.3556
12372TIP3    H258608   1.008   3.140   3.351  0.1770  0.3574 -0.4677
12373TIP3   OH258609   5.795   6.678   0.820  0.2891  0.1809 -0.3905
12373TIP3    H158610   5.818   6.666   0.728 -0.4685 -1.2369 -0.4313
12373TIP3    H258611   5.764   6.592   0.848  0.1308  0.6870  1.0898
12374TIP3   OH258612   0.275   6.593   0.243 -0.2116  0.3304 -0.2048
12374TIP3    H158613   0.370   6.594   0.227 -0.0530  1.0522  0.6965
12374TIP3    H258614   0.239   6.544   0.169  1.0734 -2.2247  0.7380
12375TIP3   OH258615   4.333   4.116   0.079  0.0398 -0.1446 -0.0697
12375TIP3    H158616   4.327   4.128   0.174  2.6096 -0.5035  0.1952
12375TIP3    H258617   4.299   4.199   0.043 -2.0460 -0.4333  1.0545
12376TIP3   OH258618   5.917   1.269   2.441  0.5802 -0.2229  0.2610
12376TIP3    H158619   5.896   1.205   2.373  0.8598 -0.0595  0.0163
12376TIP3    H258620   6.006   1.246   2.469 -0.3562 -1.7507  2.2351
12377TIP3   OH258621   6.511   3.699   2.595  0.0191 -0.0284  0.0926
12377TIP3    H158622   6.495   3.736   2.682  2.1631 -0.8980  0.9145
12377TIP3    H258623   6.425   3.669   2.566 -0.6668 -0.2713  2.1863
12378TIP3   OH258624   2.183   5.496  12.616  0.0005 -0.0725  0.1644
12378TIP3    H158625   2.102   5.543  12.636 -0.7717 -0.6324 -1.4950
12378TIP3    H258626   2.157   5.404  12.610  1.1330 -0.5154  1.4185
12379TIP3   OH258627   4.993   2.700   1.505 -0.8274  0.0691  0.0449
12379TIP3    H158628   5.087   2.710   1.485 -0.9764  1.4212 -0.0576
12379TIP3    H258629   4.981   2.605   1.511  0.5624 -0.1356  0.1391
12380TIP3   OH258630   0.613   4.130   3.141  0.1717  0.7984 -0.1449
12380TIP3    H158631   0.618   4.037   3.121  0.9155  0.9657 -0.7957
12380TIP3    H258632   0.563   4.135   3.223 -1.5283 -0.0222 -1.0913
12381TIP3   OH258633   3.947   6.626  13.619  0.3044  0.1527  0.2156
12381TIP3    H158634   3.966   6.639  13.712 -0.8232 -0.5242  0.5637
12381TIP3    H258635   3.853   6.608  13.616  0.3304  0.1118 -1.0568
12382TIP3   OH258636   6.829   4.376   3.049  0.2707 -0.5586 -0.7979
12382TIP3    H158637   6.823   4.303   3.110 -0.6507  0.1986  0.0551
12382TIP3    H258638   6.800   4.452   3.100 -0.9699  0.0299 -2.2961
12383TIP3   OH258639   2.931   6.717   3.611  0.0534  0.0613 -0.8704
12383TIP3    H158640   2.852   6.732   3.559 -0.3023  0.8758 -0.1240
12383TIP3    H258641   2.901   6.665   3.686  0.3749 -0.2822 -0.9770
12384TIP3   OH258642   0.101   3.305   2.290 -0.2398 -0.5390  0.3264
12384TIP3    H158643   0.027   3.365   2.281 -0.1524 -0.4170  0.4165
12384TIP3    H258644   0.151   3.340   2.364 -1.1044 -1.6866  1.4789
12385TIP3   OH258645   3.747   5.073  12.357 -0.6074  0.2245  0.9117
12385TIP3    H158646   3.660   5.038  12.374 -0.7867  0.8161  1.2307
12385TIP3    H258647   3.735   5.129  12.280 -0.1941 -0.8984  0.0040
12386TIP3   OH258648   0.603   1.449  11.563  0.4127 -0.0137 -0.8709
12386TIP3    H158649   0.693   1.419  11.578 -0.1831 -0.8653  1.3151
12386TIP3    H258650   0.578   1.492  11.644 -0.8498  1.1097 -1.8132
12387TIP3   OH258651   0.737   0.288   1.185 -0.2125 -0.0885  0.4044
12387TIP3    H158652   0.646   0.318   1.184 -0.9442 -2.0349  1.7570
12387TIP3    H258653   0.754   0.260   1.096 -1.4802 -1.0912  0.4486
12388TIP3   OH258654   3.604   1.005  12.856  0.1565  0.0038 -0.0817
12388TIP3    H158655   3.595   1.013  12.951 -3.8568 -0.6129 -0.2538
12388TIP3    H258656   3.679   0.946  12.844  1.0964  0.5257  2.6304
12389TIP3   OH258657   3.426   2.920   5.735  0.1361  0.6572  0.5320
12389TIP3    H158658   3.463   2.975   5.666 -0.2431 -0.2781 -0.4549
12389TIP3    H258659   3.495   2.857   5.756 -0.8882 -1.4180 -1.6729
12390TIP3   OH258660   6.292   0.980  14.958  0.7538 -0.2686  0.1315
12390TIP3    H158661   6.316   1.064  14.996 -0.6461  1.2357 -2.1187
12390TIP3    H258662   6.243   0.935  15.028  2.7410  0.0925  1.8528
12391TIP3   OH258663   3.090   1.686  12.874  0.6136 -0.1619 -0.4885
12391TIP3    H158664   3.062   1.619  12.811 -0.8437  1.3551 -1.5813
12391TIP3    H258665   3.185   1.692  12.863  0.8330 -2.2555 -0.0905
12392TIP3   OH258666   2.112   2.188  16.825 -0.1452 -0.3992 -0.8109
12392TIP3    H158667   2.039   2.127  16.816 -0.3223  0.0481 -3.3606
12392TIP3    H258668   2.074   2.274  16.810  0.6387  0.0032 -0.5463
12393TIP3   OH258669   0.655   0.943  13.548  0.6799 -0.1845 -0.4259
12393TIP3    H158670   0.738   0.905  13.520  0.5783 -2.6267  2.1010
12393TIP3    H258671   0.588   0.886  13.508  0.3992 -0.5439  0.5185
12394TIP3   OH258672   6.764   0.917  14.591  0.3034 -0.4121 -0.5838
12394TIP3    H158673   6.702   0.983  14.561 -1.9886 -2.5102 -0.7183
12394TIP3    H258674   6.840   0.927  14.533  0.6015  2.8458  0.1860
12395TIP3   OH258675   3.074   0.133  15.503  0.0084  0.0585 -0.5146
12395TIP3    H158676   3.137   0.206  15.503  0.5664 -0.3706  1.5895
12395TIP3    H258677   2.998   0.167  15.549 -0.6032 -0.0220 -1.4391
12396TIP3   OH258678   4.501   0.947   3.515 -0.0672  0.0851 -0.1808
12396TIP3    H158679   4.457   1.016   3.466 -0.3194  0.0895  0.0452
12396TIP3    H258680   4.430   0.903   3.562  0.2716  0.6730  0.9169
12397TIP3   OH258681   5.388   3.913   3.657 -0.0114 -1.0592 -0.2829
12397TIP3    H158682   5.308   3.922   3.605  0.0725 -2.2693 -0.6438
12397TIP3    H258683   5.372   3.969   3.734 -0.8312 -0.5893 -0.7780
12398TIP3   OH258684   0.015   3.785   0.218 -0.3674 -0.2118 -0.0855
12398TIP3    H158685   0.053   3.729   0.150 -0.4388 -1.1214  0.6068
12398TIP3    H258686   0.010   3.871   0.178  0.4823 -0.5283 -0.9104
12399TIP3   OH258687   5.151   4.958  16.861 -0.4402 -0.5796  0.4070
12399TIP3    H158688   5.187   4.961  16.772  0.6222  4.3052  0.6883
12399TIP3    H258689   5.067   5.004  16.853  0.9229  2.4868  2.1888
12400TIP3   OH258690   1.655   6.407   3.293  1.0150  0.3318 -0.0093
12400TIP3    H158691   1.612   6.373   3.215  1.5432  1.4219 -0.7989
12400TIP3    H258692   1.651   6.502   3.284 -0.9691  0.5888  2.4464
12401TIP3   OH258693   0.989   4.995  14.447 -0.2534 -0.3784  0.2314
12401TIP3    H158694   0.969   5.077  14.402 -0.5027 -0.1821  0.7028
12401TIP3    H258695   1.044   4.947  14.384 -2.0002 -0.8589 -1.0002
12402TIP3   OH258696   5.506   1.732   2.063 -0.2569  0.0048 -0.4523
12402TIP3    H158697   5.451   1.752   1.987 -1.5679 -2.1277 -0.1661
12402TIP3    H258698   5.473   1.648   2.094  0.3645  0.7212  2.3971
12403TIP3   OH258699   5.282   6.698   5.373  0.2946 -0.4979 -0.1288
12403TIP3    H158700   5.230   6.722   5.449 -0.3992  0.7524 -0.9692
12403TIP3    H258701   5.268   6.603   5.364 -1.7794 -0.2267 -0.2550
12404TIP3   OH258702   4.631   3.698   4.324  0.1749 -0.1873 -0.0921
12404TIP3    H158703   4.629   3.728   4.233 -3.3632 -2.7474 -1.0691
12404TIP3    H258704   4.572   3.758   4.370  1.9778  1.1186  0.6264
12405TIP3   OH258705   4.946   2.429   1.473  0.0441  0.2276 -0.3385
12405TIP3    H158706   4.897   2.406   1.552  1.3211 -2.7304 -0.2680
12405TIP3    H258707   4.881   2.426   1.403 -0.4958 -0.4087  0.1772
12406TIP3   OH258708   4.827   1.066   5.307  0.1247 -0.1037  0.2533
12406TIP3    H158709   4.802   0.984   5.265  0.3064  0.3561 -0.7938
12406TIP3    H258710   4.835   1.128   5.235  2.8551  0.1278  0.6465
12407TIP3   OH258711   2.197   6.052   4.814  0.1549 -0.3485 -0.0964
12407TIP3    H158712   2.192   6.111   4.739  0.5935 -0.7795 -0.4714
12407TIP3    H258713   2.286   6.017   4.811  0.6550  0.7170  1.4750
12408TIP3   OH258714   2.198   5.504   0.994 -0.1126  0.0579  0.2442
12408TIP3    H158715   2.242   5.420   0.986 -0.9356 -0.3653 -0.0259
12408TIP3    H258716   2.268   5.568   1.004  0.5034 -0.7300  1.0691
12409TIP3   OH258717   6.305   0.697   2.847  0.6074  0.0137 -0.3138
12409TIP3    H158718   6.309   0.701   2.751 -1.0165  2.0419 -0.3945
12409TIP3    H258719   6.212   0.713   2.867  1.1007  0.7276  1.6143
12410TIP3   OH258720   5.399   5.381   0.495  0.2381  0.1436  0.1276
12410TIP3    H158721   5.448   5.462   0.483  0.2546  0.0047 -0.8963
12410TIP3    H258722   5.418   5.330   0.416  0.7442 -1.1353  1.0336
12411TIP3   OH258723   0.204   4.655   4.865  0.3667  1.1675 -0.2808
12411TIP3    H158724   0.171   4.606   4.791  0.3122  0.7197  0.0369
12411TIP3    H258725   0.237   4.588   4.926  0.5603  1.5339  0.0241
12412TIP3   OH258726   5.661   2.545  14.073  0.2555  0.1403  0.0576
12412TIP3    H158727   5.607   2.466  14.070 -0.7413  0.7724  0.9373
12412TIP3    H258728   5.737   2.523  14.018 -0.6874 -0.8967 -0.8928
12413TIP3   OH258729   3.272   1.763   3.791 -0.4383 -0.1588 -0.1653
12413TIP3    H158730   3.227   1.776   3.874  1.3497  1.7518  0.6090
12413TIP3    H258731   3.354   1.719   3.815  0.3585  0.9267 -0.7910
12414TIP3   OH258732   1.278   1.630  15.035 -0.5623 -0.1505  0.4983
12414TIP3    H158733   1.368   1.655  15.016 -1.0713  2.1394  0.8241
12414TIP3    H258734   1.269   1.543  14.995  1.7231 -0.3976  0.3576
12415TIP3   OH258735   4.270   4.465   1.661  0.0331  0.1518 -0.3258
12415TIP3    H158736   4.220   4.393   1.698  0.7043 -0.9564 -1.5043
12415TIP3    H258737   4.206   4.534   1.646 -0.8272 -0.6162 -0.2437
12416TIP3   OH258738   2.169   4.813   3.126  1.2894 -0.0867 -0.0029
12416TIP3    H158739   2.213   4.782   3.047  0.1988 -2.2376  0.1698
12416TIP3    H258740   2.092   4.757   3.134 -0.8578  2.7294  0.3878
12417TIP3   OH258741   2.321   1.198  12.082 -0.1647 -0.0549 -0.5086
12417TIP3    H158742   2.269   1.276  12.099 -2.2193 -1.1175 -1.5132
12417TIP3    H258743   2.373   1.220  12.004 -0.2539  0.5140 -0.4092
12418TIP3   OH258744   0.710   6.119   6.466  0.6652  0.6799 -0.4927
12418TIP3    H158745   0.685   6.030   6.444 -1.9630  1.2116 -0.0018
12418TIP3    H258746   0.791   6.110   6.516 -0.9587 -1.6835  1.9471
12419TIP3   OH258747   1.652   3.218   1.627  0.1681 -0.2955  0.1783
12419TIP3    H158748   1.739   3.252   1.605 -0.0266 -0.4398 -0.8648
12419TIP3    H258749   1.591   3.280   1.587 -0.2481  0.4649  1.9056
12420TIP3   OH258750   6.718   5.216  13.202 -0.7980  0.4081 -0.2416
12420TIP3    H158751   6.783   5.279  13.231 -1.3072  0.7978  0.0699
12420TIP3    H258752   6.766   5.155  13.146 -0.3792  1.3150 -0.8894
12421TIP3   OH258753   1.036   4.611   3.646 -0.0614 -0.6651 -0.1752
12421TIP3    H158754   1.053   4.704   3.631 -0.0850 -0.4932  0.8269
12421TIP3    H258755   0.973   4.587   3.577 -0.3133  0.1358 -0.2338
12422TIP3   OH258756   6.605   6.029   1.791  0.2374  0.0789  0.9482
12422TIP3    H158757   6.679   5.991   1.744 -0.3067  0.2499 -0.0640
12422TIP3    H258758   6.585   5.965   1.859 -0.2370 -1.1498 -0.3115
12423TIP3   OH258759   0.863   2.574  12.940  0.4940  0.1007  0.0883
12423TIP3    H158760   0.842   2.662  12.969  1.5193  0.9338 -1.5581
12423TIP3    H258761   0.865   2.522  13.020 -1.2421  1.2972  0.9867
12424TIP3   OH258762   6.477   4.337   5.449  0.3436  0.1797 -0.4397
12424TIP3    H158763   6.472   4.354   5.355  0.3471  0.1238 -0.4503
12424TIP3    H258764   6.402   4.385   5.485  1.3804  1.7146 -0.2397
12425TIP3   OH258765   2.502   2.563  14.932  0.0341 -0.5526  0.4939
12425TIP3    H158766   2.565   2.604  14.873 -0.7757  1.2176  0.7790
12425TIP3    H258767   2.547   2.559  15.016 -0.7331  2.4092  1.1672
12426TIP3   OH258768   4.615   6.152  11.013  0.4181  0.0139  0.3468
12426TIP3    H158769   4.663   6.225  10.974  0.8422  0.1141  1.0560
12426TIP3    H258770   4.661   6.074  10.981  0.9282  0.1038  0.8626
12427TIP3   OH258771   0.347   3.578   0.178  0.3703 -0.3897  0.1521
12427TIP3    H158772   0.273   3.599   0.122  1.3657 -0.5925 -1.3025
12427TIP3    H258773   0.403   3.522   0.124  0.6850 -1.8094  1.8559
12428TIP3   OH258774   1.880   4.682   5.918  0.3783 -0.2435 -0.1822
12428TIP3    H158775   1.845   4.681   6.007  0.9123  1.3224  0.0862
12428TIP3    H258776   1.973   4.662   5.928  0.3301 -0.5990 -0.4453
12429TIP3   OH258777   2.872   1.321   1.195  0.1336 -0.1039 -0.1283
12429TIP3    H158778   2.850   1.229   1.212  0.6009  0.2239  2.8735
12429TIP3    H258779   2.942   1.340   1.257 -1.9447  3.0521  1.5348
12430TIP3   OH258780   0.662   6.043   1.257  0.0885 -0.1434  0.2322
12430TIP3    H158781   0.625   6.077   1.176  0.7340  1.6001  0.6059
12430TIP3    H258782   0.690   5.954   1.236 -4.1249 -1.6056 -0.0772
12431TIP3   OH258783   3.767   2.716  13.400 -0.3279 -0.1525  0.2602
12431TIP3    H158784   3.708   2.668  13.342 -0.2378 -0.5926  0.5326
12431TIP3    H258785   3.770   2.664  13.480 -0.8413  0.7009  0.8580
12432TIP3   OH258786   3.431   2.514   3.808 -0.4649 -0.2828  0.1813
12432TIP3    H158787   3.475   2.565   3.740 -1.0693 -1.1376 -0.8727
12432TIP3    H258788   3.484   2.435   3.818  0.7755  0.7287  2.1979
12433TIP3   OH258789   6.355   4.917  15.675  0.6229 -1.0455 -0.0184
12433TIP3    H158790   6.273   4.883  15.709  1.7679 -1.5690  2.4293
12433TIP3    H258791   6.330   4.964  15.595 -2.5136  1.2779  2.0693
12434TIP3   OH258792   0.135   5.246  14.618  0.0748 -0.0227  0.0439
12434TIP3    H158793   0.194   5.284  14.683  2.6154  0.6371 -2.3942
12434TIP3    H258794   0.172   5.274  14.534 -2.4830 -1.5274 -1.7233
12435TIP3   OH258795   4.349   0.240  11.381 -0.1140  0.0399 -0.0717
12435TIP3    H158796   4.300   0.188  11.316 -0.4900 -0.6664  0.7608
12435TIP3    H258797   4.286   0.306  11.411 -0.1704 -0.0886  0.0958
12436TIP3   OH258798   3.114   4.410   6.633 -0.0382 -0.0290 -0.1061
12436TIP3    H158799   3.191   4.353   6.628  0.5889  0.8785 -3.3383
12436TIP3    H258800   3.040   4.351   6.641  0.8808 -0.9542  2.3534
12437TIP3   OH258801   0.620   4.293   5.432  0.0202 -0.2692 -0.2499
12437TIP3    H158802   0.663   4.361   5.483 -0.6953 -0.9788  1.4119
12437TIP3    H258803   0.681   4.219   5.433 -0.6450 -0.8514  1.0634
12438TIP3   OH258804   5.579   3.639  13.612 -0.3432 -0.0051 -0.3241
12438TIP3    H158805   5.606   3.716  13.562 -1.0111  0.0410 -0.6234
12438TIP3    H258806   5.485   3.650  13.624 -0.3819 -0.5993 -0.0633
12439TIP3   OH258807   6.537   4.558   1.144 -0.1608 -0.3510  0.8883
12439TIP3    H158808   6.627   4.590   1.138 -0.0922 -0.5447  0.8887
12439TIP3    H258809   6.501   4.570   1.056 -0.8339  1.7886  1.3872
12440TIP3   OH258810   4.180   0.270  14.708  0.1688 -0.2236  0.3726
12440TIP3    H158811   4.275   0.265  14.716  0.2288  0.5307  0.1591
12440TIP3    H258812   4.164   0.335  14.640 -0.4908 -1.2220 -0.4663
12441TIP3   OH258813   4.167   2.585   2.056  0.3443 -0.0902 -0.1246
12441TIP3    H158814   4.186   2.675   2.082 -0.2734 -0.1824  0.6911
12441TIP3    H258815   4.073   2.584   2.038  0.5842 -0.2627 -1.4575
12442TIP3   OH258816   0.724   3.811  11.844 -0.4068 -0.5049 -0.5537
12442TIP3    H158817   0.731   3.905  11.860 -2.3693 -0.7288  2.4646
12442TIP3    H258818   0.795   3.773  11.896 -2.0613 -0.8466  1.5388
12443TIP3   OH258819   4.393   0.775  13.675  0.0677  0.1482 -0.4700
12443TIP3    H158820   4.371   0.731  13.757 -0.3135 -1.9211 -1.6103
12443TIP3    H258821   4.463   0.836  13.698 -0.4573  0.0594  1.4876
12444TIP3   OH258822   1.278   2.719  13.578 -0.1103  0.2911  0.4740
12444TIP3    H158823   1.194   2.696  13.616 -1.2466  0.1087 -1.9697
12444TIP3    H258824   1.293   2.810  13.607  0.0097 -0.3797  2.7293
12445TIP3   OH258825   6.159   0.860  17.126  0.6921  0.4120 -0.0580
12445TIP3    H158826   6.118   0.785  17.084 -1.2173  0.5263  1.4294
12445TIP3    H258827   6.251   0.837  17.132  0.4864 -0.9215 -1.4433
12446TIP3   OH258828   3.535   1.118  16.906 -0.3804 -0.0628 -0.1427
12446TIP3    H158829   3.599   1.175  16.863 -1.6894  0.9603 -0.7795
12446TIP3    H258830   3.582   1.035  16.919  1.1491  0.7406 -0.3479
12447TIP3   OH258831   2.255   2.094  12.114 -0.4084  0.3296 -0.0302
12447TIP3    H158832   2.348   2.118  12.123 -0.1777 -0.4405 -0.2584
12447TIP3    H258833   2.248   2.061  12.024 -0.8408  0.1292  0.0775
12448TIP3   OH258834   5.457   3.405  15.703 -0.3323  0.0571  0.6294
12448TIP3    H158835   5.414   3.363  15.778  1.9771 -0.1567  1.9063
12448TIP3    H258836   5.544   3.365  15.699  0.7341  2.2967 -0.2264
12449TIP3   OH258837   4.406   5.437   6.260  0.3805  0.1644  0.0244
12449TIP3    H158838   4.501   5.441   6.267  0.3940  0.6081 -0.3522
12449TIP3    H258839   4.382   5.515   6.211 -0.0534 -0.7246 -1.2195
12450TIP3   OH258840   4.226   1.752   5.065 -0.3540 -0.6184 -0.2858
12450TIP3    H158841   4.308   1.777   5.108 -0.0256  0.2958 -1.3976
12450TIP3    H258842   4.199   1.672   5.110 -0.2659  0.4928  1.9365
12451TIP3   OH258843   2.595   2.995   1.538  0.1438  0.3872  0.0492
12451TIP3    H158844   2.522   3.047   1.504 -0.9061 -0.0488  1.5388
12451TIP3    H258845   2.612   3.032   1.625 -0.6803 -1.7635  1.1841
12452TIP3   OH258846   4.304   4.732   1.163 -0.0034  0.2430  0.2319
12452TIP3    H158847   4.380   4.774   1.203  0.2412 -0.1065  0.1364
12452TIP3    H258848   4.241   4.803   1.150  0.3241  0.5393  0.2702
12453TIP3   OH258849   6.215   2.447  13.505  0.2648  0.4478 -0.2109
12453TIP3    H158850   6.140   2.415  13.455  1.3190 -1.8696 -0.4047
12453TIP3    H258851   6.179   2.467  13.592 -0.9367  1.4008 -0.8909
12454TIP3   OH258852   6.376   5.257   3.193 -0.4997 -0.2967  0.5791
12454TIP3    H158853   6.444   5.208   3.145  0.7659  1.3948  0.5472
12454TIP3    H258854   6.398   5.244   3.285 -1.4763 -1.5322  0.6665
12455TIP3   OH258855   1.868   4.031  15.622 -0.2281 -0.1550  0.4317
12455TIP3    H158856   1.802   4.010  15.556  1.3896  1.4249 -1.8585
12455TIP3    H258857   1.906   3.947  15.646 -0.4847 -0.7335 -1.0808
12456TIP3   OH258858   2.834   2.971   0.347 -0.3228  0.2305 -0.0503
12456TIP3    H158859   2.899   2.935   0.406 -1.6894  0.7158  1.8555
12456TIP3    H258860   2.757   2.987   0.402 -0.8633  3.0761 -1.4020
12457TIP3   OH258861   5.627   0.776   0.592 -0.2968 -1.0837  0.6551
12457TIP3    H158862   5.667   0.696   0.558 -0.0356 -0.5962 -0.2143
12457TIP3    H258863   5.621   0.834   0.516  0.4499  0.1026  1.4691
12458TIP3   OH258864   3.142   0.506  14.971  0.1622  0.0063  0.3787
12458TIP3    H158865   3.123   0.599  14.980 -2.0749 -0.3372 -0.1632
12458TIP3    H258866   3.185   0.497  14.886  1.2129  0.6105  0.8253
12459TIP3   OH258867   5.833   6.076  16.904  0.0233 -0.1692  0.0041
12459TIP3    H158868   5.833   6.048  16.812 -1.6569 -0.4099  0.0541
12459TIP3    H258869   5.836   5.995  16.954 -2.0748 -0.2208  0.1377
12460TIP3   OH258870   6.843   5.558   2.614  0.1077 -0.2054  0.2465
12460TIP3    H158871   6.847   5.474   2.569  0.3409  0.5870 -1.2837
12460TIP3    H258872   6.882   5.620   2.552 -1.8634  1.3692  0.4925
12461TIP3   OH258873   5.077   4.371   1.750  0.0882 -0.3207 -0.1151
12461TIP3    H158874   5.000   4.422   1.774 -0.1477 -0.5940 -0.2786
12461TIP3    H258875   5.046   4.280   1.750  0.3831 -0.4221 -0.2902
12462TIP3   OH258876   6.309   6.844  10.226  0.1054  0.2711 -0.5968
12462TIP3    H158877   6.252   6.919  10.238 -0.9580 -0.6963  0.6931
12462TIP3    H258878   6.259   6.783  10.171 -0.3714 -0.7915  0.9472
12463TIP3   OH258879   0.293   6.574   5.451  0.3448 -0.0532 -0.4293
12463TIP3    H158880   0.320   6.538   5.536  0.7541 -0.0142 -0.5409
12463TIP3    H258881   0.279   6.497   5.396 -0.5942 -0.1047 -0.1294
12464TIP3   OH258882   0.571   3.053   0.494 -0.4332  0.4055  0.0846
12464TIP3    H158883   0.638   3.076   0.558 -0.7099  3.0254 -0.4850
12464TIP3    H258884   0.536   2.970   0.526  1.7353 -0.0861  1.4383
12465TIP3   OH258885   4.156   2.743  15.138 -0.6274 -0.1676 -0.0416
12465TIP3    H158886   4.095   2.814  15.118 -1.4725 -0.6438  0.7387
12465TIP3    H258887   4.239   2.770  15.100 -1.5079  0.1399 -1.8169
12466TIP3   OH258888   4.895   0.798  14.662 -0.3628  0.5539 -0.5924
12466TIP3    H158889   4.886   0.893  14.655 -0.6157  0.5000 -1.0189
12466TIP3    H258890   4.824   0.771  14.721 -0.6370  0.5664 -0.9161
12467TIP3   OH258891   2.025   4.101   3.279  0.1501 -0.3907 -0.3066
12467TIP3    H158892   2.054   4.176   3.331  0.5881 -0.5411 -0.3343
12467TIP3    H258893   1.962   4.139   3.217  1.4719  0.2235 -1.3115
12468TIP3   OH258894   3.557   3.045  12.570 -0.2011  0.1751  0.1874
12468TIP3    H158895   3.514   3.090  12.642  0.2386  1.2522 -0.1976
12468TIP3    H258896   3.497   2.974  12.546 -2.1010  1.9747 -0.7280
12469TIP3   OH258897   3.534   4.444  11.918 -0.0992 -0.2079 -0.3185
12469TIP3    H158898   3.450   4.418  11.957  0.3963  0.6360  1.4191
12469TIP3    H258899   3.590   4.367  11.929 -0.7111 -0.9457 -1.9029
12470TIP3   OH258900   5.854   6.846  16.614 -0.4231  0.1780  0.0063
12470TIP3    H158901   5.770   6.800  16.606 -0.2901 -0.1203  0.2939
12470TIP3    H258902   5.852   6.885  16.701 -0.7636  1.1929 -0.4395
12471TIP3   OH258903   6.147   1.506   1.893 -0.3732 -0.0375 -0.0236
12471TIP3    H158904   6.162   1.487   1.800 -2.0866  1.1337 -0.5953
12471TIP3    H258905   6.165   1.599   1.901 -1.9063  0.2450  0.4121
12472TIP3   OH258906   1.950   1.967  13.158 -0.3232  0.5167 -0.5295
12472TIP3    H158907   1.877   2.028  13.146 -0.8394 -0.0696 -0.4464
12472TIP3    H258908   1.925   1.889  13.107  0.0736  0.1669 -0.2018
12473TIP3   OH258909   6.035   5.988   3.460  0.0554  0.0588 -0.3668
12473TIP3    H158910   5.988   5.973   3.378  0.6881  1.4333 -1.0206
12473TIP3    H258911   6.079   5.905   3.479  1.1422  0.1599 -2.2582
12474TIP3   OH258912   3.595   4.888   5.995  0.4773  0.2511  0.0633
12474TIP3    H158913   3.527   4.927   5.940  0.6196 -0.0639 -0.3403
12474TIP3    H258914   3.570   4.796   6.004  0.0254  0.4733  1.1992
12475TIP3   OH258915   2.915   5.072  11.550  0.0675  0.0893  0.2383
12475TIP3    H158916   2.992   5.122  11.577 -0.8534  1.4904  0.3753
12475TIP3    H258917   2.900   5.099  11.459 -0.4089  0.0503  0.3019
12476TIP3   OH258918   5.269   0.776  14.162  0.3260 -0.8676  0.0220
12476TIP3    H158919   5.282   0.692  14.206 -0.2895 -2.0260 -1.8478
12476TIP3    H258920   5.182   0.768  14.122 -0.6766  1.5158  1.5064
12477TIP3   OH258921   3.381   0.666   1.674  0.0907 -0.2903 -0.3159
12477TIP3    H158922   3.333   0.585   1.658 -0.1186  0.1506 -2.2022
12477TIP3    H258923   3.316   0.725   1.712 -0.2489 -0.4265 -0.6827
12478TIP3   OH258924   3.396   0.881  11.636 -0.2608  0.3235  0.1676
12478TIP3    H158925   3.433   0.815  11.695 -0.6203  0.6835  0.8027
12478TIP3    H258926   3.306   0.891  11.665 -1.0039 -0.7938 -1.5841
12479TIP3   OH258927   6.345   5.353   5.467  0.1755 -0.1221  0.3634
12479TIP3    H158928   6.349   5.320   5.377  0.5718  1.4993 -0.2486
12479TIP3    H258929   6.381   5.281   5.520  2.3921 -0.1539 -1.0580
12480TIP3   OH258930   6.016   0.088   1.738  0.1102 -0.0140  0.7843
12480TIP3    H158931   6.050   0.025   1.675  2.3258  1.0039  0.8707
12480TIP3    H258932   5.998   0.036   1.816 -1.0836 -1.0116 -0.1131
12481TIP3   OH258933   4.457   1.542  15.075 -0.1011  0.4138  0.2198
12481TIP3    H158934   4.525   1.586  15.126  1.9445 -1.0324 -1.0993
12481TIP3    H258935   4.409   1.489  15.140  1.8424 -0.6800  0.8512
12482TIP3   OH258936   3.172   4.237   1.780  0.5570  0.4450  0.3812
12482TIP3    H158937   3.215   4.197   1.704  3.6748  1.4973  1.3974
12482TIP3    H258938   3.200   4.329   1.777 -1.8586  1.2674  1.0995
12483TIP3   OH258939   5.123   1.473  16.754  0.0854 -0.7576  0.2802
12483TIP3    H158940   5.165   1.486  16.839  0.7523 -2.0572  0.1868
12483TIP3    H258941   5.034   1.444  16.775  0.2889 -1.1997  0.5553
12484TIP3   OH258942   1.935   3.037  12.869 -0.0986 -0.0578  0.0460
12484TIP3    H158943   1.908   3.128  12.874  3.4174  1.1400  0.3185
12484TIP3    H258944   1.945   3.009  12.960 -2.2230 -1.1940  0.0057
12485TIP3   OH258945   4.889   6.580  12.023 -0.3420 -0.7835  0.0052
12485TIP3    H158946   4.934   6.569  12.107 -2.4177 -0.8720  1.1707
12485TIP3    H258947   4.875   6.674  12.016 -0.0336 -0.7602 -0.3400
12486TIP3   OH258948   1.151   0.280   3.552 -0.4010  0.0894 -0.0378
12486TIP3    H158949   1.084   0.241   3.496 -1.0496  0.2571  0.6113
12486TIP3    H258950   1.148   0.229   3.633  1.5714 -1.1453 -0.6575
12487TIP3   OH258951   6.736   3.988  10.632  0.9846  0.4475  0.1682
12487TIP3    H158952   6.687   3.941  10.700  1.2608  2.0647  1.5721
12487TIP3    H258953   6.700   3.957  10.550 -1.6306  0.7402  1.1261
12488TIP3   OH258954   1.964   3.936  12.823  0.1992  0.2667  0.0731
12488TIP3    H158955   2.051   3.945  12.785 -0.4158 -1.1568 -1.8651
12488TIP3    H258956   1.908   3.990  12.767 -0.2220  0.9407  1.1244
12489TIP3   OH258957   0.259   1.802   5.185  0.4309 -0.3030 -0.1273
12489TIP3    H158958   0.217   1.872   5.234  1.0531  1.2776 -1.7601
12489TIP3    H258959   0.219   1.805   5.098 -0.9375 -3.2933  0.2652
12490TIP3   OH258960   6.057   5.537   0.968 -0.0293  0.2017 -0.0063
12490TIP3    H158961   6.107   5.612   0.937 -0.2524  0.7576  0.9440
12490TIP3    H258962   6.123   5.473   0.996  0.1544  0.2646 -0.2963
12491TIP3   OH258963   4.595   2.076  14.207 -0.3720  0.3385  0.0814
12491TIP3    H158964   4.663   2.008  14.207 -1.4680 -0.8340 -1.2313
12491TIP3    H258965   4.601   2.116  14.121 -2.2092 -0.7598 -0.6243
12492TIP3   OH258966   0.011   1.241  11.946 -0.2600  0.0204 -0.0947
12492TIP3    H158967  -0.045   1.269  11.874 -1.9757 -1.4350  0.6081
12492TIP3    H258968   0.097   1.228  11.905 -0.7351  0.9377 -1.4813
12493TIP3   OH258969   4.005   4.633  13.331 -0.6371  0.4911  0.4960
12493TIP3    H158970   3.977   4.643  13.240  1.3490 -1.9973 -0.5140
12493TIP3    H258971   4.091   4.673  13.334 -0.4904  0.1423  1.1595
12494TIP3   OH258972   2.114   3.123   2.514  0.8925 -0.3227 -0.3331
12494TIP3    H158973   2.095   3.029   2.522 -3.3450  0.2841 -0.9983
12494TIP3    H258974   2.115   3.155   2.604 -1.1680 -0.5356 -0.1913
12495TIP3   OH258975   1.235   4.372  13.356 -0.2169  0.8241  0.6919
12495TIP3    H158976   1.185   4.405  13.431  1.9952  1.4779  1.9796
12495TIP3    H258977   1.293   4.305  13.393 -0.0925  0.0908 -0.7321
12496TIP3   OH258978   2.773   3.066   4.608  0.0947  0.0053  0.1294
12496TIP3    H158979   2.769   3.031   4.697 -1.0123 -1.5385 -0.4887
12496TIP3    H258980   2.682   3.085   4.586  0.5948  3.0107  0.2700
12497TIP3   OH258981   0.059   3.211   4.422 -0.0040  0.1229 -0.4779
12497TIP3    H158982   0.047   3.297   4.384 -2.5563 -0.5983 -1.5368
12497TIP3    H258983   0.104   3.160   4.355 -3.6134 -0.8670 -2.3879
12498TIP3   OH258984   5.189   1.007   5.190 -0.1338  0.2745 -0.2256
12498TIP3    H158985   5.235   1.047   5.264 -0.3997  0.0312  0.0750
12498TIP3    H258986   5.112   1.063   5.178 -0.8174 -0.4689  0.5742
12499TIP3   OH258987   2.577   5.706  11.382 -0.0721 -0.5128  0.0150
12499TIP3    H158988   2.504   5.750  11.425 -1.5591 -0.5440 -2.3304
12499TIP3    H258989   2.564   5.613  11.403  1.1996 -0.2912  2.2092
12500TIP3   OH258990   4.875   0.109   3.740  0.7106  0.4510 -0.1706
12500TIP3    H158991   4.804   0.137   3.797  0.9339 -1.3316  1.0629
12500TIP3    H258992   4.833   0.049   3.678  1.2632 -1.6770  1.3945
12501TIP3   OH258993   4.132   6.668  11.898  0.5654  1.0094 -0.0110
12501TIP3    H158994   4.081   6.740  11.934  1.3467  1.2823  0.5823
12501TIP3    H258995   4.150   6.611  11.972  2.8706  1.9834  0.2709
12502TIP3   OH258996   6.631   6.388  13.802  0.5497 -0.1321 -0.7561
12502TIP3    H158997   6.718   6.416  13.775  1.3926  0.1676  1.9764
12502TIP3    H258998   6.642   6.295  13.825  0.2774 -0.0009 -0.0519
12503TIP3   OH258999   1.807   6.618  14.406  0.0973 -1.0582 -0.1679
12503TIP3    H159000   1.893   6.596  14.372  1.0077  0.0662  1.3104
12503TIP3    H259001   1.779   6.693  14.353  0.8206 -0.2992  0.5036
12504TIP3   OH259002   1.162   6.560  16.803 -0.1177 -0.2081 -0.1807
12504TIP3    H159003   1.189   6.600  16.886 -0.2887 -0.8818  0.2079
12504TIP3    H259004   1.067   6.556  16.809 -0.0171 -2.9902  0.9259
12505TIP3   OH259005   5.903   4.735   3.718 -0.6232  0.5720  0.1020
12505TIP3    H159006   5.953   4.673   3.663 -0.3961 -0.2433  1.1887
12505TIP3    H259007   5.960   4.811   3.726 -0.2914  0.3495 -0.1069
12506TIP3   OH259008   3.302   3.328   5.244  0.2857  0.0573  0.0759
12506TIP3    H159009   3.321   3.408   5.294  0.6424  0.1507 -0.2049
12506TIP3    H259010   3.262   3.269   5.308  1.7487 -0.2377  0.7633
12507TIP3   OH259011   1.860   3.093   1.042  0.8369 -0.2994  0.1989
12507TIP3    H159012   1.939   3.043   1.024  0.6545  0.0167 -1.7404
12507TIP3    H259013   1.788   3.031   1.029  0.6805  0.0441 -0.6786
12508TIP3   OH259014   6.081   5.696  11.066 -0.7425 -0.1898  0.6293
12508TIP3    H159015   6.110   5.641  10.993 -0.8764  0.1791  0.2870
12508TIP3    H259016   6.135   5.670  11.140  2.4457  2.3253 -0.6047
12509TIP3   OH259017   6.539   4.526   1.881  0.0501  0.2992  0.0198
12509TIP3    H159018   6.459   4.575   1.862  0.7534  1.0083 -1.2762
12509TIP3    H259019   6.595   4.589   1.926  1.3179  1.0657 -2.4774
12510TIP3   OH259020   5.514   0.900  10.768  0.3004 -0.1814 -0.1851
12510TIP3    H159021   5.430   0.862  10.793  0.3586  0.0078  0.3000
12510TIP3    H259022   5.496   0.946  10.686  0.3713 -1.7958 -1.1585
12511TIP3   OH259023   5.433   5.568  13.987 -0.3793 -0.6015 -0.2422
12511TIP3    H159024   5.347   5.533  13.962  0.0485 -0.6222 -1.7775
12511TIP3    H259025   5.477   5.495  14.030 -1.1281 -0.5703  0.6267
12512TIP3   OH259026   1.029   1.089  14.688 -0.4965 -0.2939 -0.2379
12512TIP3    H159027   1.014   0.997  14.710 -3.7357 -0.3217 -1.9345
12512TIP3    H259028   0.966   1.137  14.741  0.3854  0.8756 -0.2022
12513TIP3   OH259029   3.224   1.045  11.832 -0.0114  0.3023  1.0616
12513TIP3    H159030   3.148   1.063  11.777  0.1094  0.6239  0.9944
12513TIP3    H259031   3.267   1.131  11.843  1.5690 -0.1887 -0.7267
12514TIP3   OH259032   6.489   2.694  14.795  0.0569 -0.7302  0.0898
12514TIP3    H159033   6.440   2.682  14.877 -0.2183 -0.4453 -0.0315
12514TIP3    H259034   6.575   2.726  14.823  0.2570 -1.4518  0.3158
12515TIP3   OH259035   2.569   6.745   5.779 -0.5017  0.5094 -0.4164
12515TIP3    H159036   2.638   6.811   5.772 -0.6975  0.9006  1.0034
12515TIP3    H259037   2.605   6.678   5.837 -1.2664  0.6928  0.2962
12516TIP3   OH259038   2.674   3.405  15.975  0.3447 -0.3960 -0.1750
12516TIP3    H159039   2.690   3.347  16.050 -2.1025  0.6998  1.3269
12516TIP3    H259040   2.582   3.393  15.955  0.2181  1.5998 -1.0180
12517TIP3   OH259041   5.588   6.768  14.590  0.0790 -0.3444  0.2522
12517TIP3    H159042   5.620   6.858  14.584 -2.4384  0.6241 -0.0137
12517TIP3    H259043   5.604   6.742  14.681 -0.5073  0.9604  0.7479
12518TIP3   OH259044   3.686   1.895  16.563  0.1385  0.0814 -0.1640
12518TIP3    H159045   3.614   1.959  16.570  1.3363  1.3143  2.2985
12518TIP3    H259046   3.672   1.835  16.636  2.3112  1.2101  1.2835
12519TIP3   OH259047   4.320   4.771   3.035 -0.7434 -0.0889  0.0457
12519TIP3    H159048   4.249   4.790   3.097 -1.2201  1.7330 -0.9745
12519TIP3    H259049   4.304   4.681   3.007 -1.3950 -0.4286  1.4358
12520TIP3   OH259050   5.244   1.066   1.888 -0.3526 -0.3400 -0.3424
12520TIP3    H159051   5.212   1.102   1.805  1.1238  1.3876 -0.2114
12520TIP3    H259052   5.299   1.134   1.924  0.3753 -1.7229  1.2901
12521TIP3   OH259053   1.499   2.400  16.843 -0.2739  0.7191 -0.4081
12521TIP3    H159054   1.501   2.471  16.779 -0.9731  0.9234 -0.2141
12521TIP3    H259055   1.504   2.320  16.791  1.7439  0.8885 -0.5728
12522TIP3   OH259056   2.454   0.726  17.037  0.5673  0.5308 -0.3846
12522TIP3    H159057   2.500   0.695  17.115 -0.5619  0.2377  0.1855
12522TIP3    H259058   2.476   0.819  17.032 -1.2725  1.1685  1.7462
12523TIP3   OH259059   4.181   2.187  10.104  0.4751  0.8184 -0.1039
12523TIP3    H159060   4.258   2.139  10.137  0.7556  1.2379 -0.1364
12523TIP3    H259061   4.162   2.146  10.020 -1.3714 -1.5156  1.3068
12524TIP3   OH259062   2.912   0.267  13.171  0.7088 -0.0253  0.3433
12524TIP3    H159063   2.908   0.216  13.090 -1.3586  0.1646  0.2801
12524TIP3    H259064   2.831   0.247  13.217  1.2705  0.8378  1.8004
12525TIP3   OH259065   4.071   1.824   2.642  0.4356  0.2278 -0.2008
12525TIP3    H159066   4.134   1.754   2.655  1.6325  1.2331 -0.3533
12525TIP3    H259067   4.070   1.837   2.547  1.1763  1.2299 -0.0881
12526TIP3   OH259068   3.700   6.272   3.605  0.4427  0.0867 -0.0571
12526TIP3    H159069   3.696   6.206   3.673 -0.4960 -1.5625 -1.6305
12526TIP3    H259070   3.794   6.291   3.595  0.6700 -0.4924  0.8671
12527TIP3   OH259071   6.010   2.472  11.887 -0.2318 -0.6603 -0.6730
12527TIP3    H159072   6.094   2.506  11.855 -0.0214  0.3878  0.8795
12527TIP3    H259073   6.034   2.398  11.943  0.1914  2.1100  3.2431
12528TIP3   OH259074   2.575   4.633   1.870 -0.0991 -0.8502 -0.0679
12528TIP3    H159075   2.530   4.608   1.950 -0.2303  0.5418  0.3206
12528TIP3    H259076   2.648   4.572   1.863 -1.1307 -2.1432  0.1273
12529TIP3   OH259077   0.851   2.518   0.187  0.2285 -0.4837 -0.3990
12529TIP3    H159078   0.933   2.471   0.201 -0.0946 -1.5354 -1.7796
12529TIP3    H259079   0.803   2.509   0.269  0.9571 -0.9500 -0.0186
12530TIP3   OH259080   4.778   0.190   2.310 -0.0808 -0.5303 -0.2510
12530TIP3    H159081   4.866   0.188   2.274  0.5932  1.0828  1.1589
12530TIP3    H259082   4.720   0.177   2.235  1.3286 -1.3874 -1.2252
12531TIP3   OH259083   1.309   3.840   2.089 -0.4775  0.2378 -0.5703
12531TIP3    H159084   1.368   3.856   2.015 -0.3009  0.3691 -0.4011
12531TIP3    H259085   1.222   3.833   2.049 -0.5020  1.1662 -0.7048
12532TIP3   OH259086   4.107   2.929   4.140  0.0983 -0.3351  0.3323
12532TIP3    H159087   4.066   2.849   4.171 -0.7930 -0.1682 -0.3881
12532TIP3    H259088   4.054   2.999   4.178 -1.5417 -0.1194 -2.1585
12533TIP3   OH259089   3.800   1.385   3.085  0.3964  0.2690 -0.0491
12533TIP3    H159090   3.765   1.454   3.141  2.1816  1.8327 -0.7410
12533TIP3    H259091   3.740   1.383   3.010 -0.4256  0.0898  0.5887
12534TIP3   OH259092   0.587   1.985  11.833 -0.0253 -0.0609  0.4274
12534TIP3    H159093   0.559   2.075  11.818 -0.8435 -0.2358  0.8500
12534TIP3    H259094   0.579   1.972  11.928 -1.0635 -0.9306  0.2467
12535TIP3   OH259095   3.134   3.511   4.196  0.0449 -0.1122  0.1744
12535TIP3    H159096   3.082   3.565   4.136  1.5229  3.1336  1.5370
12535TIP3    H259097   3.166   3.573   4.262  3.0192 -2.4772  1.2016
12536TIP3   OH259098   1.492   1.148   2.994  0.6573 -0.3108  0.6379
12536TIP3    H159099   1.470   1.168   2.903  1.5203 -1.9112  0.0369
12536TIP3    H259100   1.528   1.229   3.029 -1.6954  0.9781  0.2530
12537TIP3   OH259101   4.363   1.066   0.948 -0.0364 -0.1257  0.2503
12537TIP3    H159102   4.308   1.000   0.905 -0.4716  0.6912 -0.4703
12537TIP3    H259103   4.353   1.048   1.041 -2.9529  1.0647  0.2614
12538TIP3   OH259104   3.450   5.641   1.882  0.4220 -0.3003 -0.1504
12538TIP3    H159105   3.428   5.566   1.937  1.3896 -1.2534 -1.0227
12538TIP3    H259106   3.434   5.612   1.793 -1.4510  1.3416 -0.4343
12539TIP3   OH259107   4.199   2.166   1.212  0.2216  0.4553  0.3134
12539TIP3    H159108   4.163   2.083   1.180 -1.1723  0.8843  0.6692
12539TIP3    H259109   4.131   2.230   1.191  1.4693  1.5897 -0.3456
12540TIP3   OH259110   6.736   0.976   5.016  0.0641 -0.2129  0.1279
12540TIP3    H159111   6.720   0.881   5.020 -2.1271  0.0831 -0.0330
12540TIP3    H259112   6.746   1.002   5.107 -0.1116 -0.4974  0.2326
12541TIP3   OH259113   4.713   0.849   5.157  0.1884 -0.4163  0.2857
12541TIP3    H159114   4.712   0.754   5.151  0.5732 -0.5439  1.8221
12541TIP3    H259115   4.663   0.879   5.082  1.0159 -1.7877 -0.8478
12542TIP3   OH259116   3.563   0.875  11.109 -0.1991  0.0078  0.3443
12542TIP3    H159117   3.569   0.780  11.094  0.9541 -0.0621  1.1071
12542TIP3    H259118   3.506   0.883  11.186 -0.4231 -0.0484  0.1866
12543TIP3   OH259119   6.166   2.722  15.583  0.2571 -0.0963  0.4616
12543TIP3    H159120   6.170   2.781  15.507  0.4542 -0.3238  0.2970
12543TIP3    H259121   6.086   2.672  15.570 -1.1173  1.6218  1.6958
12544TIP3   OH259122   0.551   4.164   0.116 -0.4300 -0.2300 -0.4170
12544TIP3    H159123   0.481   4.124   0.168 -2.5700  0.5060 -2.5208
12544TIP3    H259124   0.528   4.257   0.113  1.1468  0.1810 -0.4641
12545TIP3   OH259125   3.098   1.073  14.662 -0.7094  0.0767 -0.2298
12545TIP3    H159126   3.127   1.164  14.664  0.2159 -0.2020  1.8004
12545TIP3    H259127   3.088   1.053  14.569  1.4347  1.5407 -0.8503
12546TIP3   OH259128   1.911   4.351  14.079 -0.8524 -0.0734 -0.1186
12546TIP3    H159129   1.856   4.273  14.072 -1.2657  0.3331 -1.5822
12546TIP3    H259130   1.946   4.346  14.168 -3.5109 -0.1731  1.0314
12547TIP3   OH259131   1.619   5.408  15.007 -0.3896 -0.3734  0.3991
12547TIP3    H159132   1.683   5.405  15.079 -1.1998 -0.8337  1.1113
12547TIP3    H259133   1.541   5.446  15.047 -0.9739 -0.9950 -0.1442
12548TIP3   OH259134   6.830   2.531   4.346  0.5767  0.1446 -0.6259
12548TIP3    H159135   6.750   2.478   4.342  0.6090  0.1810 -2.5241
12548TIP3    H259136   6.805   2.616   4.309  0.3643  1.7898  2.9198
12549TIP3   OH259137   5.104   0.143  12.592  0.3860  0.4533  0.0911
12549TIP3    H159138   5.130   0.070  12.536  0.6618 -2.6949  3.8714
12549TIP3    H259139   5.183   0.195  12.602  0.5627  0.5535 -1.6400
12550TIP3   OH259140   4.934   2.328   0.142 -0.7990 -0.6882  0.4989
12550TIP3    H159141   4.926   2.412   0.188 -0.9640 -0.2483 -0.3201
12550TIP3    H259142   4.872   2.271   0.187  0.6295 -0.9402  2.2666
12551TIP3   OH259143   5.650   4.011  12.522  0.4751  0.3658  0.1017
12551TIP3    H159144   5.600   3.987  12.444  1.6287 -1.0186 -0.2372
12551TIP3    H259145   5.731   4.048  12.487 -1.0035  4.6745  0.5807
12552TIP3   OH259146   4.202   2.823  13.875  0.2106  0.0389  0.0775
12552TIP3    H159147   4.133   2.767  13.911  0.5430 -0.6787 -0.3776
12552TIP3    H259148   4.265   2.831  13.946  0.2304 -0.2895  0.1006
12553TIP3   OH259149   0.763   1.175   4.099  0.1222  0.2678  0.2275
12553TIP3    H159150   0.772   1.171   4.195  0.7768  0.9172  0.2049
12553TIP3    H259151   0.674   1.208   4.085 -0.1458 -0.2835  0.6009
12554TIP3   OH259152   6.044   4.748  13.880  0.4413 -0.5156 -0.0195
12554TIP3    H159153   5.952   4.739  13.853  0.7181 -0.5448 -0.9961
12554TIP3    H259154   6.092   4.759  13.797  1.3899 -1.1412  0.4358
12555TIP3   OH259155   1.930   2.711  15.310 -0.0678 -0.1619  0.1581
12555TIP3    H159156   1.973   2.788  15.347  1.7903 -0.7769 -0.6014
12555TIP3    H259157   1.860   2.690  15.372  1.1157  0.5378  1.7861
12556TIP3   OH259158   4.527   3.475  17.109 -0.0228  0.5286 -0.0022
12556TIP3    H159159   4.532   3.417  17.033  1.2720  1.7384 -0.9041
12556TIP3    H259160   4.613   3.465  17.152 -0.7471 -0.1617  1.3431
12557TIP3   OH259161   5.598   5.943   1.801  0.0937 -0.1913 -0.1800
12557TIP3    H159162   5.584   5.895   1.719  0.2102 -0.6645  0.0700
12557TIP3    H259163   5.646   5.881   1.856 -0.5881 -0.1326  0.4916
12558TIP3   OH259164   0.422   5.929  14.524  0.4657 -0.1823  0.9970
12558TIP3    H159165   0.384   5.852  14.566 -0.5033 -0.1583  0.1974
12558TIP3    H259166   0.490   5.893  14.466 -2.2466 -0.8787 -2.0162
12559TIP3   OH259167   1.546   4.441   4.212  0.2453 -0.1312 -0.1652
12559TIP3    H159168   1.453   4.441   4.191 -0.0419  0.3166  1.0188
12559TIP3    H259169   1.549   4.442   4.308  1.4637 -3.9005  0.0014
12560TIP3   OH259170   2.797   1.510   3.068  0.6458 -0.2375  0.2631
12560TIP3    H159171   2.757   1.577   3.013 -0.6327 -0.2782  1.0970
12560TIP3    H259172   2.755   1.428   3.039 -1.1271 -0.0860  2.2024
12561TIP3   OH259173   4.360   4.116   0.359 -0.0049  0.0805 -0.1825
12561TIP3    H159174   4.411   4.171   0.418  0.3315 -0.6829  0.2572
12561TIP3    H259175   4.340   4.037   0.410  1.8330 -1.4106 -1.5993
12562TIP3   OH259176   5.373   2.402  16.708  0.1356  0.4304  0.2627
12562TIP3    H159177   5.373   2.456  16.629 -0.7578 -1.7231 -1.3324
12562TIP3    H259178   5.331   2.456  16.775  0.1201  2.0153 -0.9662
12563TIP3   OH259179   4.044   5.958  11.452 -0.3938 -0.1175  0.5526
12563TIP3    H159180   4.018   5.872  11.485  2.8360 -1.2093  0.6206
12563TIP3    H259181   3.998   5.967  11.369 -1.7307 -1.3489  1.1218
12564TIP3   OH259182   1.646   4.691  14.185  0.1604  0.5970 -0.6246
12564TIP3    H159183   1.715   4.754  14.164  0.9687 -0.3585 -0.8522
12564TIP3    H259184   1.618   4.715  14.273  1.2672  0.5614 -0.2559
12565TIP3   OH259185   4.576   2.242  11.988  0.1022 -0.1575 -0.1737
12565TIP3    H159186   4.639   2.184  11.946  1.0774 -0.4396  1.5977
12565TIP3    H259187   4.600   2.329  11.958 -0.6804 -0.5247 -1.9848
12566TIP3   OH259188   5.799   6.811  15.146  0.5613 -0.1105 -0.7859
12566TIP3    H159189   5.776   6.858  15.066 -0.5255 -0.5489 -0.7517
12566TIP3    H259190   5.753   6.727  15.139  1.4639 -0.6712 -0.2737
12567TIP3   OH259191   5.212   1.033  14.060  0.1056  0.6671  0.1154
12567TIP3    H159192   5.123   1.059  14.085  0.3735 -0.1472  2.0964
12567TIP3    H259193   5.234   0.963  14.121  1.7684  0.2061 -0.9672
12568TIP3   OH259194   0.709   4.599  11.443  0.6427 -0.4965 -0.3604
12568TIP3    H159195   0.664   4.582  11.526  0.7639 -0.0944 -0.2120
12568TIP3    H259196   0.665   4.541  11.380  0.5606 -0.8125 -0.0142
12569TIP3   OH259197   5.557   1.487  12.411 -0.2803 -0.5255  0.8641
12569TIP3    H159198   5.650   1.467  12.407 -0.6112 -1.9589 -1.0067
12569TIP3    H259199   5.517   1.432  12.343 -2.4035  0.5404  1.1503
12570TIP3   OH259200   1.792   6.628  13.113  0.3226  0.3382 -0.1275
12570TIP3    H159201   1.813   6.707  13.063 -1.2627 -0.1229 -1.6291
12570TIP3    H259202   1.736   6.659  13.184  1.9573  0.8934  0.9765
12571TIP3   OH259203   1.005   6.281  14.543  0.1999  0.5247 -0.6118
12571TIP3    H159204   1.024   6.360  14.594  0.2621  0.3709 -0.3927
12571TIP3    H259205   0.969   6.313  14.461  0.6823  0.7975 -0.7209
12572TIP3   OH259206   5.201   4.625  12.542 -0.0904 -0.1970 -0.0211
12572TIP3    H159207   5.285   4.582  12.559  1.5638  2.9943  0.6637
12572TIP3    H259208   5.225   4.709  12.502 -3.0010  0.6746 -0.1410
12573TIP3   OH259209   2.565   4.490   4.599 -0.4426 -0.6547 -0.1568
12573TIP3    H159210   2.525   4.456   4.679 -0.4372  0.0832  0.1734
12573TIP3    H259211   2.490   4.515   4.543 -0.4740  0.5209  0.3718
12574TIP3   OH259212   2.867   1.418  11.290  0.1304  0.8425  0.1443
12574TIP3    H159213   2.939   1.469  11.253  1.0753 -1.3122 -1.1785
12574TIP3    H259214   2.812   1.396  11.216  0.0599 -0.5035  0.5651
12575TIP3   OH259215   2.969   3.095   5.898  0.2862 -0.0189 -0.0255
12575TIP3    H159216   2.989   3.024   5.959  0.5469 -1.7384 -2.0058
12575TIP3    H259217   2.877   3.116   5.915 -0.1831 -1.7551 -0.2306
12576TIP3   OH259218   4.593   2.367   3.546  0.0051  0.0187  0.4479
12576TIP3    H159219   4.646   2.440   3.579 -0.6839  0.6853  0.1162
12576TIP3    H259220   4.544   2.338   3.622  0.0924  0.0657  0.5233
12577TIP3   OH259221   5.925   0.977   0.498 -0.6694 -0.1552  0.0724
12577TIP3    H159222   5.993   1.008   0.557 -0.2800 -0.3116 -0.2894
12577TIP3    H259223   5.972   0.941   0.423 -1.1600  0.3688 -0.5045
12578TIP3   OH259224   4.808   6.064   4.897 -0.1135  0.0578 -0.1699
12578TIP3    H159225   4.838   5.999   4.961 -0.2173  0.4278  0.2607
12578TIP3    H259226   4.881   6.073   4.836  1.8153  2.7970  2.2341
12579TIP3   OH259227   6.348   2.302   4.153 -0.4343 -0.1464 -0.2364
12579TIP3    H159228   6.428   2.290   4.102 -0.5904 -0.1372 -0.4858
12579TIP3    H259229   6.323   2.214   4.179 -1.1507 -0.3048 -1.4070
12580TIP3   OH259230   1.114   4.732   1.771  0.0450 -0.0848  0.0666
12580TIP3    H159231   1.201   4.744   1.732 -0.0294 -0.6141 -0.2724
12580TIP3    H259232   1.131   4.734   1.866  0.4873 -0.5219  0.0065
12581TIP3   OH259233   6.384   0.632   4.874  0.1970  0.0700 -0.0199
12581TIP3    H159234   6.323   0.608   4.804  1.0770  0.3813 -0.9039
12581TIP3    H259235   6.448   0.561   4.875 -0.9669 -1.0452  1.9214
12582TIP3   OH259236   3.574   2.275  10.427  0.4041  0.3520  0.1534
12582TIP3    H159237   3.481   2.255  10.414  0.7528  0.1362 -2.6791
12582TIP3    H259238   3.612   2.192  10.458 -0.1498  0.0919  0.1565
12583TIP3   OH259239   5.292   0.921   3.081  0.3382 -0.0655  0.5583
12583TIP3    H159240   5.363   0.977   3.112  1.6096 -1.2335 -0.1444
12583TIP3    H259241   5.218   0.981   3.070  1.2468  1.2206  1.1249
12584TIP3   OH259242   6.782   5.865  12.630  0.0589 -0.2113  0.0106
12584TIP3    H159243   6.849   5.811  12.672 -0.0011 -0.5438 -0.3126
12584TIP3    H259244   6.831   5.922  12.571  0.2462  1.0144  1.3097
12585TIP3   OH259245   4.076   2.345   3.236 -0.0809  0.3250  0.7283
12585TIP3    H159246   4.104   2.319   3.324  0.1944 -0.3608  0.4433
12585TIP3    H259247   4.151   2.324   3.180 -0.0802  1.1860  0.3965
12586TIP3   OH259248   4.944   4.581  16.825 -0.0318  0.0564 -0.3101
12586TIP3    H159249   4.988   4.500  16.799  1.2975  1.0233 -1.2243
12586TIP3    H259250   4.957   4.585  16.920 -0.2516 -0.8695 -0.2299
12587TIP3   OH259251   5.052   5.454   5.119  0.4343  0.1073 -0.8213
12587TIP3    H159252   4.998   5.524   5.156 -0.7086 -0.4057 -1.4555
12587TIP3    H259253   5.051   5.471   5.025  1.5230  0.1678 -0.8333
12588TIP3   OH259254   6.193   0.389  13.701  0.1820 -0.6915 -0.1729
12588TIP3    H159255   6.163   0.454  13.638  1.2687 -1.9745 -2.0962
12588TIP3    H259256   6.167   0.425  13.786 -0.5714  1.5138 -1.2548
12589TIP3   OH259257   5.700   6.727   3.492 -0.2955  0.0981 -0.4305
12589TIP3    H159258   5.656   6.642   3.488  0.8596 -0.4733 -1.7807
12589TIP3    H259259   5.789   6.710   3.460  1.0767  1.1503  2.3872
12590TIP3   OH259260   4.766   2.755   5.050  0.3730 -0.3902  0.1878
12590TIP3    H159261   4.769   2.845   5.081  0.1430 -1.1217  2.5459
12590TIP3    H259262   4.676   2.743   5.020  0.3085  0.0609  0.1997
12591TIP3   OH259263   3.417   3.864   0.705  0.4856 -0.1988  0.4068
12591TIP3    H159264   3.348   3.801   0.722 -0.0483 -0.5463 -2.5002
12591TIP3    H259265   3.376   3.950   0.718  0.0412 -0.4184  0.4473
12592TIP3   OH259266   2.872   2.523   4.528  0.3192  0.2682 -0.1932
12592TIP3    H159267   2.958   2.557   4.506  0.8626 -1.6858 -1.3949
12592TIP3    H259268   2.811   2.580   4.480  0.8066  2.1942  1.3421
12593TIP3   OH259269   0.785   0.983   2.058 -0.0013  0.0293 -0.6503
12593TIP3    H159270   0.761   1.048   2.124 -0.4337 -0.1315 -0.6424
12593TIP3    H259271   0.704   0.970   2.008  0.0040 -0.7269 -0.4641
12594TIP3   OH259272   0.361   0.999  15.264 -0.6244 -0.1420  0.4720
12594TIP3    H159273   0.413   1.078  15.274 -1.2864  0.3792 -0.1257
12594TIP3    H259274   0.424   0.933  15.235 -0.3018  0.5151 -0.3738
12595TIP3   OH259275   2.462   4.580   2.103  0.1516  0.0667  0.6920
12595TIP3    H159276   2.499   4.583   2.191  0.5395  0.3691  0.5230
12595TIP3    H259277   2.378   4.624   2.111  0.2478  0.2172  0.8808
12596TIP3   OH259278   5.177   6.368   2.151 -0.5376  0.6218  0.5948
12596TIP3    H159279   5.158   6.339   2.061  0.3041  1.6656  0.0541
12596TIP3    H259280   5.096   6.407   2.182 -0.5806  1.0658 -0.0553
12597TIP3   OH259281   6.636   6.775  11.192 -0.1430 -0.1012 -0.0661
12597TIP3    H159282   6.686   6.835  11.136 -0.8602  1.5637  1.0213
12597TIP3    H259283   6.552   6.819  11.205 -2.2009 -2.9705 -2.1583
12598TIP3   OH259284   3.537   6.014   5.357  0.4980  0.1581  0.2403
12598TIP3    H159285   3.489   6.054   5.429  1.2020  0.6196  0.4735
12598TIP3    H259286   3.532   5.920   5.373 -3.5113 -0.1779 -1.7694
12599TIP3   OH259287   4.265   6.274   5.471  0.5865  0.3657 -0.6399
12599TIP3    H159288   4.266   6.216   5.395  1.8045  0.7234 -0.9183
12599TIP3    H259289   4.340   6.332   5.457  1.7083 -0.4600  1.5228
12600TIP3   OH259290   4.251   2.642   0.186 -0.2352 -0.1254 -0.7120
12600TIP3    H159291   4.327   2.604   0.230 -0.3630  0.3909 -0.0356
12600TIP3    H259292   4.181   2.579   0.200 -0.7327  0.8206  1.3454
12601TIP3   OH259293   3.343   2.636   5.207  0.3090  0.7554  0.1681
12601TIP3    H159294   3.392   2.718   5.205  2.7577 -0.4958  2.1561
12601TIP3    H259295   3.365   2.597   5.292 -0.7350 -1.9521 -0.6897
12602TIP3   OH259296   6.196   2.831   5.051 -0.3073  0.4482  0.0735
12602TIP3    H159297   6.248   2.886   5.110  0.9155 -0.2808 -0.3063
12602TIP3    H259298   6.252   2.756   5.031 -1.2412 -0.0211 -0.9038
12603TIP3   OH259299   1.393   6.593  16.385 -0.7368 -0.7650 -0.5830
12603TIP3    H159300   1.467   6.544  16.419 -0.4949 -0.0262 -0.0057
12603TIP3    H259301   1.316   6.541  16.408 -0.3499 -2.1403 -2.2485
12604TIP3   OH259302   2.743   2.415  13.480  0.4811  0.2334 -0.1475
12604TIP3    H159303   2.755   2.508  13.501  1.2070  0.0998  0.0499
12604TIP3    H259304   2.736   2.414  13.384  0.4238  0.4976 -0.1478
12605TIP3   OH259305   0.957   6.309   3.955 -0.1210  0.1514  0.3241
12605TIP3    H159306   0.886   6.356   3.999 -0.4918 -0.0666 -0.0306
12605TIP3    H259307   0.994   6.372   3.894 -1.0480 -0.1836 -0.6318
12606TIP3   OH259308   3.456   6.608  13.739 -0.2682 -0.3342  0.6560
12606TIP3    H159309   3.469   6.539  13.804  1.2336 -0.5745  0.1445
12606TIP3    H259310   3.363   6.603  13.716 -0.6481 -0.7491  2.2038
12607TIP3   OH259311   4.190   1.399  10.497  0.0888  0.1254  0.4852
12607TIP3    H159312   4.257   1.339  10.465  0.3269  1.0727 -0.9099
12607TIP3    H259313   4.158   1.360  10.578  0.1908 -1.8918 -0.4013
12608TIP3   OH259314   0.455   4.211  16.449  0.2405  0.5657 -0.1302
12608TIP3    H159315   0.508   4.242  16.376  2.4600  0.0821  1.1802
12608TIP3    H259316   0.388   4.155  16.408  1.8120 -0.2267 -1.7495
12609TIP3   OH259317   3.037   2.986  13.289 -0.0667  0.5785 -0.1216
12609TIP3    H159318   3.029   2.947  13.376 -0.2753 -1.8188 -1.1226
12609TIP3    H259319   2.949   3.016  13.268 -0.0834  0.8726  0.3637
12610TIP3   OH259320   2.236   6.145   2.429 -0.0145  0.3285  0.2374
12610TIP3    H159321   2.164   6.150   2.492  1.4512  2.4853  1.9109
12610TIP3    H259322   2.312   6.180   2.476  1.8624 -0.6262 -1.8554
12611TIP3   OH259323   0.928   5.110  14.725 -0.4269  0.5939 -0.1456
12611TIP3    H159324   0.844   5.125  14.769  0.0814 -0.0526  1.1115
12611TIP3    H259325   0.934   5.015  14.717  1.6360  0.2996  2.9284
12612TIP3   OH259326   4.729   2.004  11.243  0.0645 -0.1129  0.2482
12612TIP3    H159327   4.812   1.975  11.279  0.7203 -0.0099 -1.1303
12612TIP3    H259328   4.707   1.938  11.176 -0.8123  0.0196  0.3861
12613TIP3   OH259329   4.208   5.618  10.976 -0.1962 -0.2264  0.5123
12613TIP3    H159330   4.301   5.597  10.969 -0.2132 -0.3962  0.7852
12613TIP3    H259331   4.180   5.634  10.886  0.1415  0.0162  0.4494
12614TIP3   OH259332   0.596   1.822  11.571 -0.0092  0.1584 -0.1795
12614TIP3    H159333   0.522   1.790  11.622  0.2012  0.3033  0.2203
12614TIP3    H259334   0.567   1.908  11.539  0.3156  0.5991  0.7036
12615TIP3   OH259335   3.501   2.401  15.358  0.2799 -0.4766 -0.4487
12615TIP3    H159336   3.435   2.466  15.332  2.9330  2.1115 -1.2580
12615TIP3    H259337   3.522   2.355  15.276  1.4865  0.7339 -0.8532
12616TIP3   OH259338   0.995   3.904   2.708 -0.1965 -0.0312 -0.3336
12616TIP3    H159339   0.960   3.990   2.685 -1.2386 -0.1148  0.7718
12616TIP3    H259340   0.926   3.842   2.682 -0.6483 -0.2668  1.2847
12617TIP3   OH259341   5.347   5.369  11.817  0.4210 -0.0723 -0.4163
12617TIP3    H159342   5.433   5.406  11.798  0.3906  0.2051 -0.0240
12617TIP3    H259343   5.308   5.352  11.731  1.5335 -1.7859 -0.6332
12618TIP3   OH259344   2.954   5.154   4.274  0.0957  0.1199 -0.7646
12618TIP3    H159345   3.024   5.091   4.257 -2.1352 -2.3160 -1.4381
12618TIP3    H259346   2.939   5.148   4.369  0.0852 -0.1438 -0.7823
12619TIP3   OH259347   0.332   4.985   4.400 -0.2781 -0.0319  0.0663
12619TIP3    H159348   0.391   4.916   4.432  0.9213  0.2687 -1.4132
12619TIP3    H259349   0.277   4.941   4.335  0.3830  0.3643 -0.7645
12620TIP3   OH259350   5.438   5.645  12.311 -0.0051 -0.2625  0.2349
12620TIP3    H159351   5.524   5.610  12.287  0.2648 -1.1587  2.3432
12620TIP3    H259352   5.449   5.678  12.400 -1.0914  2.4377 -0.5292
12621TIP3   OH259353   2.425   3.181  11.739 -0.5046  0.1001  0.3309
12621TIP3    H159354   2.458   3.158  11.652  1.9732 -1.5427  1.6116
12621TIP3    H259355   2.333   3.153  11.737 -0.3904 -0.3113 -1.5935
12622TIP3   OH259356   6.399   0.462  11.947 -0.1897 -0.1608  0.5036
12622TIP3    H159357   6.477   0.503  11.909  0.7754 -1.6828  0.7549
12622TIP3    H259358   6.403   0.485  12.040  0.6736 -1.2330  0.7594
12623TIP3   OH259359   2.733   6.149  15.970  0.3536 -0.3354  0.2816
12623TIP3    H159360   2.729   6.160  15.875 -0.2525  2.0165  0.5152
12623TIP3    H259361   2.719   6.237  16.005  0.8031 -1.0995  2.5615
12624TIP3   OH259362   5.223   4.521   5.137  0.2597 -0.1632  0.4651
12624TIP3    H159363   5.171   4.584   5.087  0.8127  0.7538  1.0059
12624TIP3    H259364   5.181   4.517   5.222  1.6989  1.5278  1.3336
12625TIP3   OH259365   4.511   1.450   0.362 -0.2236 -1.0828  0.0359
12625TIP3    H159366   4.490   1.484   0.275 -2.9505 -0.6193  0.8085
12625TIP3    H259367   4.427   1.431   0.403  1.0032 -2.3483  2.2045
12626TIP3   OH259368   6.815   6.387  10.856  0.3216 -0.4200 -0.1372
12626TIP3    H159369   6.767   6.445  10.916 -2.7383 -2.1613 -0.6516
12626TIP3    H259370   6.856   6.322  10.913 -1.2673 -1.1480  0.2564
12627TIP3   OH259371   3.424   3.763  10.777  0.7244 -0.1976  0.3497
12627TIP3    H159372   3.370   3.696  10.736  1.4729 -1.4157  1.2641
12627TIP3    H259373   3.453   3.818  10.705  0.6697 -1.2912 -0.5387
12628TIP3   OH259374   2.440   1.972   4.774 -0.0131 -0.0241  0.3603
12628TIP3    H159375   2.516   2.029   4.786  1.3599 -1.7514  0.2053
12628TIP3    H259376   2.451   1.936   4.686 -1.5062  0.3432 -0.0071
12629TIP3   OH259377   2.778   1.553   3.382  0.4214 -0.4415  0.4561
12629TIP3    H159378   2.835   1.512   3.316 -1.1290 -1.7168 -0.1461
12629TIP3    H259379   2.739   1.479   3.429 -3.5550  0.1187 -1.5551
12630TIP3   OH259380   6.381   0.302  10.584  0.2430  0.5926 -0.9655
12630TIP3    H159381   6.452   0.340  10.636 -0.2283  0.6506 -0.3443
12630TIP3    H259382   6.422   0.277  10.502  1.4517 -1.1892  0.1056
12631TIP3   OH259383   6.830   4.904  16.582 -0.1724 -0.9429 -0.7544
12631TIP3    H159384   6.803   4.990  16.548  2.3758  0.3118  0.1048
12631TIP3    H259385   6.924   4.900  16.566  0.0961 -2.7896  0.8675
12632TIP3   OH259386   4.936   4.007  10.856 -0.4871 -0.7251  0.1321
12632TIP3    H159387   4.908   4.059  10.781 -0.1997  0.5379  0.8688
12632TIP3    H259388   5.031   4.016  10.857 -0.2858 -2.5354 -0.6101
12633TIP3   OH259389   2.294   1.774   6.769  0.6250  0.2770  0.4255
12633TIP3    H159390   2.327   1.846   6.823  1.4663  1.2760 -1.3525
12633TIP3    H259391   2.373   1.736   6.730  0.1144 -1.0808  0.6500
12634TIP3   OH259392   1.733   2.177  16.537 -0.0294 -0.3468 -0.3621
12634TIP3    H159393   1.823   2.183  16.506 -0.2445  0.6568 -0.8636
12634TIP3    H259394   1.692   2.113  16.479  0.4793 -1.2058  0.2047
12635TIP3   OH259395   6.851   2.238  16.189  0.6196 -0.1130 -0.1709
12635TIP3    H159396   6.768   2.205  16.155  0.9429  0.4240 -1.5169
12635TIP3    H259397   6.843   2.227  16.284 -0.9035 -0.2626 -0.2826
12636TIP3   OH259398   2.647   6.681   3.896  0.7719  0.2071 -0.1197
12636TIP3    H159399   2.608   6.650   3.978  0.0590 -2.2831 -1.3186
12636TIP3    H259400   2.734   6.641   3.894  0.7739  0.2294 -0.5751
12637TIP3   OH259401   3.916   3.598   1.449  0.1813  0.4813 -0.7263
12637TIP3    H159402   3.886   3.507   1.451  1.6754 -0.0194  0.3354
12637TIP3    H259403   3.979   3.601   1.377 -0.5495  0.9271 -1.3653
12638TIP3   OH259404   0.327   0.943  16.022  0.1267 -0.4290 -0.2106
12638TIP3    H159405   0.366   0.965  16.106  2.2897 -0.2302 -1.1935
12638TIP3    H259406   0.259   1.009  16.009 -0.0249 -0.2779  1.2242
12639TIP3   OH259407   2.550   2.872   0.917 -0.3406 -0.1816  0.8419
12639TIP3    H159408   2.485   2.810   0.950 -1.2135  1.2313  1.9243
12639TIP3    H259409   2.608   2.888   0.992  0.6807 -0.6851  0.1764
12640TIP3   OH259410   6.001   3.505   1.974 -0.2206 -0.4621  0.3783
12640TIP3    H159411   5.991   3.498   2.069 -0.5289  0.9851  0.4650
12640TIP3    H259412   6.095   3.495   1.960  0.0078  0.6661  0.9818
12641TIP3   OH259413   4.809   1.884  11.549  0.5279  0.0748  0.1149
12641TIP3    H159414   4.892   1.839  11.540  1.3753  0.7279  3.4526
12641TIP3    H259415   4.757   1.827  11.606 -0.1346  1.0907  0.5557
12642TIP3   OH259416   0.914   0.418  12.184  0.0195 -0.3389 -0.3491
12642TIP3    H159417   0.896   0.328  12.211 -2.3503 -0.9637 -3.4589
12642TIP3    H259418   0.830   0.451  12.152  1.1312  2.5221 -0.6438
12643TIP3   OH259419   1.899   1.600  16.726 -0.1377  0.1302 -0.0245
12643TIP3    H159420   1.829   1.635  16.781 -0.0174  0.3239  0.0104
12643TIP3    H259421   1.971   1.662  16.738 -0.9106  1.5822 -2.3357
12644TIP3   OH259422   0.611   5.769  16.492 -0.4366 -0.8776  0.0441
12644TIP3    H159423   0.613   5.820  16.574 -1.9374  0.0508 -0.4673
12644TIP3    H259424   0.686   5.709  16.500  0.9788  0.9100  0.9877
12645TIP3   OH259425   1.529   3.319   2.477 -0.7274  0.1481  0.0355
12645TIP3    H159426   1.563   3.239   2.437  2.4266  0.5413  1.5771
12645TIP3    H259427   1.435   3.316   2.462 -0.6036 -3.3511 -0.8220
12646TIP3   OH259428   4.141   6.180  11.682  0.9296 -0.5275  0.8440
12646TIP3    H159429   4.096   6.097  11.666  0.7005 -0.3827  0.7258
12646TIP3    H259430   4.169   6.208  11.595  1.5945 -0.8092  0.9611
12647TIP3   OH259431   0.423   3.559  15.066 -0.6068  0.3884 -0.0669
12647TIP3    H159432   0.465   3.612  15.133 -1.8587  0.5747  0.6069
12647TIP3    H259433   0.420   3.615  14.988  2.1371 -0.3166 -0.8001
12648TIP3   OH259434   1.009   0.382  16.519  0.7008 -0.0947  0.6926
12648TIP3    H159435   0.982   0.305  16.568 -0.5904  1.0789  1.9210
12648TIP3    H259436   1.027   0.349  16.431  1.0235 -1.9153  1.3945
12649TIP3   OH259437   1.382   4.248  14.741  0.3281 -0.5352 -0.1214
12649TIP3    H159438   1.418   4.218  14.658  0.3672 -0.1854 -0.2297
12649TIP3    H259439   1.349   4.336  14.723  0.2498 -0.4958  0.2082
12650TIP3   OH259440   5.160   5.564  15.152  0.1636 -0.0851 -0.6041
12650TIP3    H159441   5.177   5.616  15.073  0.2177  0.5907 -0.1586
12650TIP3    H259442   5.240   5.513  15.165  0.7402  0.9111 -0.1548
12651TIP3   OH259443   0.245   2.341  14.415  0.3178 -0.2542  0.2826
12651TIP3    H159444   0.175   2.391  14.456 -0.3145 -0.3061 -0.6970
12651TIP3    H259445   0.325   2.381  14.448 -0.1729  0.7986  0.2394
12652TIP3   OH259446   5.141   5.184  16.187 -0.3794  0.0862  0.1969
12652TIP3    H159447   5.108   5.262  16.231 -1.5013 -0.9169  1.2130
12652TIP3    H259448   5.075   5.164  16.120  0.3256  0.4640 -0.6367
12653TIP3   OH259449   6.836   3.835  15.344 -0.3824 -0.3051  0.2266
12653TIP3    H159450   6.761   3.790  15.305 -0.0691  0.5822 -1.5200
12653TIP3    H259451   6.895   3.852  15.270 -0.0692  2.1149  0.9448
12654TIP3   OH259452   6.589   4.809   0.853  0.6310 -0.8599 -0.0086
12654TIP3    H159453   6.516   4.857   0.815  2.3206  0.7250 -1.4269
12654TIP3    H259454   6.556   4.777   0.937 -1.1662  1.1790  0.1407
12655TIP3   OH259455   5.377   0.882  17.034  0.0461  0.2015  0.4509
12655TIP3    H159456   5.468   0.854  17.043  0.6481  2.0302  0.5262
12655TIP3    H259457   5.382   0.964  16.984 -1.5255  0.5280  0.7724
12656TIP3   OH259458   6.321   3.078  14.740  0.4011  0.1252 -1.1555
12656TIP3    H159459   6.245   3.111  14.788  0.4300 -0.2566 -0.8376
12656TIP3    H259460   6.289   2.996  14.701  1.6387 -2.0483  2.0136
12657TIP3   OH259461   2.437   2.365   1.781  0.5049 -0.4141  0.0213
12657TIP3    H159462   2.476   2.347   1.695 -0.3582  1.1066 -0.7290
12657TIP3    H259463   2.429   2.460   1.785  1.1533 -0.3962  2.1006
12658TIP3   OH259464   6.355   2.690  16.762  0.1641 -0.4303  0.5471
12658TIP3    H159465   6.391   2.734  16.838 -1.1633 -0.3147  1.1436
12658TIP3    H259466   6.401   2.727  16.687  0.5147  0.4585  1.1971
12659TIP3   OH259467   4.182   3.289  16.513  0.3615  0.2656  0.1405
12659TIP3    H159468   4.236   3.364  16.491  1.1917 -0.5550 -0.7333
12659TIP3    H259469   4.103   3.299  16.460  0.3968  0.6123  0.1557
12660TIP3   OH259470   4.891   2.446  14.383 -0.1474  0.1670 -0.0648
12660TIP3    H159471   4.974   2.414  14.418  1.1394  2.3932 -0.8702
12660TIP3    H259472   4.872   2.524  14.436 -2.5237 -1.0630  1.0521
12661TIP3   OH259473   2.595   3.664  11.543  0.5174 -0.1009  0.0365
12661TIP3    H159474   2.576   3.687  11.451 -0.2851  0.9801  0.4483
12661TIP3    H259475   2.671   3.607  11.538  0.7906  0.3397 -1.2771
12662TIP3   OH259476   2.705   1.895   2.659  0.0856  0.4503  0.2073
12662TIP3    H159477   2.675   1.986   2.656 -0.5820  0.2910  1.4297
12662TIP3    H259478   2.789   1.898   2.704  0.1435  0.4751  0.0985
12663TIP3   OH259479   0.155   0.321  13.874 -0.7077 -0.1065  0.6341
12663TIP3    H159480   0.074   0.278  13.905 -1.2783  1.2118  1.0231
12663TIP3    H259481   0.204   0.341  13.954 -1.1449  1.2822  0.5811
12664TIP3   OH259482   2.750   2.674  10.938 -0.0152  0.0594  0.3490
12664TIP3    H159483   2.841   2.705  10.940 -0.1468  0.4476  0.4051
12664TIP3    H259484   2.753   2.593  10.887  0.2101  0.5748 -0.4753
12665TIP3   OH259485   6.625   0.817  15.097  0.1032 -0.1372  0.4077
12665TIP3    H159486   6.616   0.820  15.002  1.8023 -1.8709  0.1366
12665TIP3    H259487   6.671   0.735  15.115 -1.2486 -0.4484  2.8416
12666TIP3   OH259488   4.567   6.627  14.183  0.4093  0.1883  0.4324
12666TIP3    H159489   4.548   6.554  14.243  1.8117  0.1361  0.8358
12666TIP3    H259490   4.650   6.662  14.214  0.8818  0.5332 -1.1472
12667TIP3   OH259491   2.469   4.667  12.743 -0.1088 -0.1957  0.4736
12667TIP3    H159492   2.395   4.673  12.803 -0.2962  1.5340  0.1004
12667TIP3    H259493   2.429   4.638  12.660 -0.4369  0.9349  0.2140
12668TIP3   OH259494   4.314   3.978   1.201  0.1074  0.5230 -0.0110
12668TIP3    H159495   4.311   3.887   1.172 -2.0282 -0.0505  1.7199
12668TIP3    H259496   4.393   3.984   1.255  1.6255  0.4383 -2.0948
12669TIP3   OH259497   0.693   5.290   4.759  0.0237  0.0219  0.2879
12669TIP3    H159498   0.683   5.275   4.665 -1.6111  0.4613  0.3722
12669TIP3    H259499   0.651   5.215   4.801 -0.9610  0.7629  0.6626
12670TIP3   OH259500   5.809   3.253  16.211 -0.1256 -0.1032 -0.1955
12670TIP3    H159501   5.774   3.330  16.255  1.1883  1.2125 -1.3733
12670TIP3    H259502   5.889   3.232  16.259 -0.8652 -1.2574  0.6022
12671TIP3   OH259503   0.532   3.296  15.107  0.1303 -0.3921 -0.3001
12671TIP3    H159504   0.542   3.286  15.013 -0.1322  0.0021 -0.3717
12671TIP3    H259505   0.495   3.384  15.118  1.1415 -0.0111  0.2230
12672TIP3   OH259506   0.745   6.321  15.317 -0.0961  0.1364  0.2407
12672TIP3    H159507   0.769   6.347  15.228  3.4088  1.1780  1.3462
12672TIP3    H259508   0.742   6.226  15.315  1.5270  0.0824 -0.6665
12673TIP3   OH259509   5.357   4.576   4.815 -0.3945  0.7130 -0.0297
12673TIP3    H159510   5.308   4.517   4.872 -1.9464  1.5411 -0.4619
12673TIP3    H259511   5.377   4.523   4.738 -1.9400  0.7632 -0.4976
12674TIP3   OH259512   5.351   1.310   5.899  0.1871 -0.2640 -0.8305
12674TIP3    H159513   5.333   1.225   5.938 -0.5739  0.1990 -0.1404
12674TIP3    H259514   5.377   1.290   5.809 -0.4788 -1.1894 -0.8309
12675TIP3   OH259515   5.798   6.104  12.453 -0.5054  0.2156  0.1460
12675TIP3    H159516   5.840   6.176  12.501  0.4071  0.3659 -0.8497
12675TIP3    H259517   5.705   6.112  12.476 -0.0404 -0.0816  2.3331
12676TIP3   OH259518   0.872   1.025   2.955  0.2042 -0.4341  0.0940
12676TIP3    H159519   0.967   1.009   2.961  0.3279  0.0994 -0.3225
12676TIP3    H259520   0.832   0.945   2.990  0.8085 -0.7633  0.0564
12677TIP3   OH259521   6.545   5.779  12.119  0.0454 -0.3963 -0.2350
12677TIP3    H159522   6.589   5.797  12.036  0.7687 -0.4614  0.1225
12677TIP3    H259523   6.616   5.776  12.184 -0.6302  0.9906  0.6103
12678TIP3   OH259524   6.570   1.576  15.055  0.3528 -0.2009  0.3457
12678TIP3    H159525   6.634   1.523  15.009 -0.5011 -0.5734 -0.4435
12678TIP3    H259526   6.494   1.579  14.997  0.0002  1.0225  0.8328
12679TIP3   OH259527   6.408   2.683  16.041  0.3329  0.4358 -0.3531
12679TIP3    H159528   6.453   2.766  16.057  2.9289 -0.7665 -0.7615
12679TIP3    H259529   6.350   2.672  16.116 -1.5289  3.4241 -1.1790
12680TIP3   OH259530   3.539   6.570  11.504 -0.3452 -0.3217 -0.0861
12680TIP3    H159531   3.454   6.589  11.544 -0.2406 -0.2157  0.0872
12680TIP3    H259532   3.519   6.554  11.412 -0.5805 -0.5106 -0.0022
12681TIP3   OH259533   3.626   1.838   2.659  0.3695  0.3056  0.3527
12681TIP3    H159534   3.560   1.778   2.625  0.9563 -0.4608  0.5554
12681TIP3    H259535   3.645   1.807   2.747  0.6328  0.8284  0.4864
12682TIP3   OH259536   2.991   5.572  14.735  0.3446 -0.4175 -0.6385
12682TIP3    H159537   2.979   5.500  14.672  3.0143 -0.4066 -1.3066
12682TIP3    H259538   2.953   5.540  14.816 -0.5612 -1.6403 -1.5056
12683TIP3   OH259539   1.786   2.407  15.915 -0.3165  0.4351  0.7746
12683TIP3    H159540   1.871   2.451  15.913  0.0811 -0.3643 -0.8063
12683TIP3    H259541   1.724   2.477  15.937  0.0358  2.3541 -3.3920
12684TIP3   OH259542   0.592   2.449  15.035 -0.7046  0.3260  0.1109
12684TIP3    H159543   0.601   2.391  14.960 -0.3808 -1.9148  1.7828
12684TIP3    H259544   0.629   2.400  15.108  3.0862  4.0478  1.0768
12685TIP3   OH259545   5.800   5.471   1.660  0.0600 -0.0381 -0.1604
12685TIP3    H159546   5.722   5.523   1.680  0.5019  0.7399 -0.4030
12685TIP3    H259547   5.786   5.440   1.570 -0.1821 -0.2902 -0.0349
12686TIP3   OH259548   6.561   6.024  10.738  0.0806  0.5431  0.4617
12686TIP3    H159549   6.639   6.064  10.700  0.7303 -2.1746 -1.3898
12686TIP3    H259550   6.488   6.062  10.690  0.7596 -1.2002 -2.1719
12687TIP3   OH259551   0.737   4.524   0.055  0.2237  0.2340  0.5203
12687TIP3    H159552   0.747   4.455   0.121  0.3737 -0.1904  0.0574
12687TIP3    H259553   0.825   4.540   0.022 -0.0419 -0.6747 -0.6943
12688TIP3   OH259554   0.079   5.919  12.966 -0.7096 -0.3607 -0.0229
12688TIP3    H159555   0.014   5.856  12.995  1.8316 -2.6906  1.0482
12688TIP3    H259556   0.118   5.880  12.888 -0.0815  0.6145 -0.2227
12689TIP3   OH259557   1.063   5.992  13.876  0.2862  0.4763  0.2648
12689TIP3    H159558   0.978   5.957  13.851  0.6177 -0.9696  1.0577
12689TIP3    H259559   1.126   5.926  13.847  1.2371  1.9204 -1.0731
12690TIP3   OH259560   0.966   4.889  13.528  0.1226 -0.2750 -0.3513
12690TIP3    H159561   0.898   4.830  13.560  1.0206 -1.6992 -0.9721
12690TIP3    H259562   1.025   4.900  13.602  0.9231 -1.6536 -0.7524
12691TIP3   OH259563   6.704   1.988  13.122 -0.0280 -0.4486  0.1473
12691TIP3    H159564   6.612   2.013  13.121 -0.6576 -2.5595  0.3662
12691TIP3    H259565   6.728   1.980  13.030  0.2269  0.9729  0.0691
12692TIP3   OH259566   1.710   5.366  10.983  0.7415 -0.3287  0.1310
12692TIP3    H159567   1.641   5.424  10.951  0.9796  0.1056  0.3950
12692TIP3    H259568   1.663   5.296  11.029  0.5024  1.0725  2.1744
12693TIP3   OH259569   1.203   6.062   5.242  0.7417 -0.5038 -0.5658
12693TIP3    H159570   1.160   5.986   5.201  1.0551 -0.6571 -0.6130
12693TIP3    H259571   1.135   6.101   5.296 -0.0260  0.3565 -2.0874
12694TIP3   OH259572   1.312   3.307   5.428  0.0240  0.7077 -0.3022
12694TIP3    H159573   1.299   3.242   5.359 -1.5055  0.9311 -0.2469
12694TIP3    H259574   1.276   3.265   5.507  1.3548  0.6264  0.2940
12695TIP3   OH259575   6.725   6.576   2.753  0.2439 -0.0665  0.8186
12695TIP3    H159576   6.686   6.662   2.742  0.9040  0.0828 -0.6385
12695TIP3    H259577   6.819   6.593   2.758  0.6898 -0.8589 -2.7120
12696TIP3   OH259578   4.528   1.810  16.337  0.5719  0.7408 -0.5049
12696TIP3    H159579   4.436   1.838  16.342  0.5523  1.0536 -2.1770
12696TIP3    H259580   4.575   1.889  16.310  0.9872  0.0336 -1.9519
12697TIP3   OH259581   6.765   1.502   4.738 -0.0239  0.1159 -0.7241
12697TIP3    H159582   6.836   1.551   4.697  0.7865  2.4828  3.0092
12697TIP3    H259583   6.807   1.446   4.802 -1.3783 -0.1804 -0.0500
12698TIP3   OH259584   2.928   6.477   5.333  0.3018 -0.7671 -0.1488
12698TIP3    H159585   2.926   6.506   5.241 -0.7766  1.7632  0.5908
12698TIP3    H259586   2.978   6.545   5.378  2.4244 -2.9070  0.9317
12699TIP3   OH259587   5.274   6.670  12.253  0.2123 -0.0920 -0.5409
12699TIP3    H159588   5.220   6.708  12.323  0.4917 -1.4774  0.4611
12699TIP3    H259589   5.317   6.746  12.213  0.7055  0.6813  1.3447
12700TIP3   OH259590   2.336   2.681   5.839 -0.0243  0.0701 -0.2951
12700TIP3    H159591   2.354   2.628   5.917  0.4517 -0.0626 -0.4942
12700TIP3    H259592   2.371   2.767   5.860 -1.1716  0.4460  0.1956
12701TIP3   OH259593   4.008   1.167  12.132 -0.4606  0.0475 -0.1911
12701TIP3    H159594   3.916   1.156  12.107 -0.2062 -0.2634 -1.0116
12701TIP3    H259595   4.007   1.240  12.194 -1.1899  0.4606 -0.6703
12702TIP3   OH259596   5.076   3.008   3.370 -0.0404  0.5484 -0.0397
12702TIP3    H159597   5.019   3.073   3.330 -4.2128 -2.6498  0.0351
12702TIP3    H259598   5.141   2.988   3.303 -1.6741  1.3517 -1.9452
12703TIP3   OH259599   6.182   6.696  14.630  0.0575  0.3045  0.1619
12703TIP3    H159600   6.139   6.674  14.547 -1.0257  0.8758  0.5429
12703TIP3    H259601   6.268   6.730  14.605  0.0348 -0.2331 -0.6710
12704TIP3   OH259602   4.058   0.935   5.480 -0.2153  0.6879  0.0816
12704TIP3    H159603   4.097   1.021   5.463  1.0810 -0.0008 -0.5680
12704TIP3    H259604   3.963   0.952   5.479 -0.0309  1.9166 -1.2377
12705TIP3   OH259605   6.465   1.502   5.530  0.5571  0.0994  0.2747
12705TIP3    H159606   6.371   1.504   5.546  0.3551 -0.2966 -0.8081
12705TIP3    H259607   6.489   1.409   5.536  1.1534  0.3269  1.9636
12706TIP3   OH259608   3.944   6.248   5.291  0.1805  0.2107  0.5912
12706TIP3    H159609   3.972   6.339   5.289  2.6422 -0.4270  1.5426
12706TIP3    H259610   3.852   6.250   5.265  0.4830  2.8028 -0.6195
12707TIP3   OH259611   1.795   4.509   4.112  0.2475  0.0893 -0.4012
12707TIP3    H159612   1.786   4.604   4.126  1.8425  0.0330  1.4740
12707TIP3    H259613   1.719   4.471   4.155  0.1963  0.4625 -0.1570
12708TIP3   OH259614   3.925   1.422  11.234  0.5784  0.3187 -0.2121
12708TIP3    H159615   3.934   1.401  11.141  1.8645  0.3141 -0.1022
12708TIP3    H259616   4.008   1.395  11.273  0.5785  1.5622  0.6991
12709TIP3   OH259617   5.372   3.891   4.211  0.4924 -0.1424  0.9939
12709TIP3    H159618   5.370   3.983   4.235 -0.4125  0.1946 -0.2870
12709TIP3    H259619   5.332   3.846   4.286  1.6854  0.3878  1.9847
12710TIP3   OH259620   4.364   4.441  13.868 -0.1271 -0.0584  0.1227
12710TIP3    H159621   4.360   4.350  13.839 -1.1568  0.4289 -1.3438
12710TIP3    H259622   4.396   4.490  13.792  0.0909  0.8588  0.7803
12711TIP3   OH259623   3.377   1.684   0.383 -0.3353 -0.1996  0.3314
12711TIP3    H159624   3.314   1.708   0.450  0.1406 -0.5409  0.9088
12711TIP3    H259625   3.351   1.735   0.306 -0.4632  0.7293  0.9760
12712TIP3   OH259626   6.647   5.309  16.014  0.1429  0.6655  0.3181
12712TIP3    H159627   6.722   5.328  15.957  0.0562  0.6719  0.2071
12712TIP3    H259628   6.573   5.301  15.955  0.4121 -1.5360  0.1709
12713TIP3   OH259629   5.699   6.157  15.609 -0.7317  0.4098  0.0891
12713TIP3    H159630   5.687   6.243  15.569  0.6807  0.6915  0.2185
12713TIP3    H259631   5.693   6.173  15.703  0.0316  0.4650  0.1337
12714TIP3   OH259632   4.916   5.591  11.451  0.2348  1.1663  0.0875
12714TIP3    H159633   4.885   5.636  11.530 -0.1796  1.7225 -0.3892
12714TIP3    H259634   4.842   5.536  11.424 -0.6338  2.9413 -1.3910
12715TIP3   OH259635   5.711   6.013  14.527  0.8663  0.1733 -0.0845
12715TIP3    H159636   5.706   5.970  14.442  1.3010  1.6015 -0.8701
12715TIP3    H259637   5.694   5.943  14.591  1.1204 -1.0411 -1.3040
12716TIP3   OH259638   5.034   2.475  16.647 -0.1080 -0.6298 -0.0467
12716TIP3    H159639   5.085   2.554  16.664 -1.4611  0.3732 -0.4983
12716TIP3    H259640   5.074   2.437  16.568 -0.6812  0.6960 -0.9953
12717TIP3   OH259641   1.269   2.431  17.023  0.8962 -0.0335  0.3416
12717TIP3    H159642   1.358   2.444  16.992 -0.0646  2.6533 -1.6153
12717TIP3    H259643   1.231   2.369  16.961  0.9436  0.0743  0.2051
12718TIP3   OH259644   1.519   5.492   4.829  0.2642  0.3725 -0.1290
12718TIP3    H159645   1.493   5.556   4.896 -0.3583 -0.7819  0.7660
12718TIP3    H259646   1.603   5.459   4.860  0.4566  0.5607 -0.4519
12719TIP3   OH259647   4.259   2.749  14.598  0.0360 -0.2639 -0.3445
12719TIP3    H159648   4.240   2.726  14.507 -1.4871 -0.9489  0.1183
12719TIP3    H259649   4.230   2.673  14.648 -1.4919  1.0973  0.9211
12720TIP3   OH259650   2.998   5.033   6.191 -0.1454  0.1652 -0.1348
12720TIP3    H159651   2.950   4.968   6.242  0.6273  0.4104  0.9338
12720TIP3    H259652   2.938   5.108   6.184 -0.1961  0.1870  0.5387
12721TIP3   OH259653   3.024   0.110  14.413 -0.0191 -0.5248 -0.0149
12721TIP3    H159654   3.097   0.115  14.352  0.9591 -0.6076  1.1079
12721TIP3    H259655   3.002   0.202  14.432 -1.3958 -0.4570 -1.6650
12722TIP3   OH259656   6.546   1.106   6.080 -0.6263 -0.2908  0.5039
12722TIP3    H159657   6.483   1.125   6.149  1.3595 -1.3977  2.7575
12722TIP3    H259658   6.579   1.019   6.101  0.5425 -0.3833 -1.4715
12723TIP3   OH259659   5.967   3.739   0.830  0.4694  0.1310  0.5448
12723TIP3    H159660   5.943   3.797   0.901 -0.8309 -1.8483  1.8089
12723TIP3    H259661   5.948   3.789   0.750 -1.5200  1.1028  1.5577
12724TIP3   OH259662   5.005   4.334   5.848 -0.1920  0.1478 -0.4555
12724TIP3    H159663   5.052   4.251   5.844 -1.2170 -0.4101 -1.1556
12724TIP3    H259664   5.059   4.389   5.906  2.2377  0.1285 -2.5046
12725TIP3   OH259665   3.495   4.490   5.430  0.1267 -0.2631 -0.3105
12725TIP3    H159666   3.468   4.416   5.483  1.7889 -1.2575 -0.7715
12725TIP3    H259667   3.482   4.566   5.486  0.4854 -1.1387  0.9893
12726TIP3   OH259668   4.917   4.214  15.725 -0.2739 -0.9275  0.4746
12726TIP3    H159669   4.898   4.178  15.638  0.0831 -0.4041  0.1792
12726TIP3    H259670   5.003   4.255  15.716 -0.8900  0.4508  0.6665
12727TIP3   OH259671   3.701   3.436   4.634 -0.3294  0.1102 -0.8387
12727TIP3    H159672   3.728   3.516   4.678 -1.2692 -0.2237  0.3918
12727TIP3    H259673   3.720   3.452   4.541  1.5562  0.8673 -0.3619
12728TIP3   OH259674   2.476   3.122  11.045  0.1849  0.2390 -0.0495
12728TIP3    H159675   2.449   3.195  10.990  2.5838  0.2655 -1.3429
12728TIP3    H259676   2.570   3.136  11.059  0.6401 -2.3494 -0.0115
12729TIP3   OH259677   6.133   4.881  11.580 -0.0935  0.5967 -0.0227
12729TIP3    H159678   6.072   4.932  11.526  0.1962  0.9024 -0.0673
12729TIP3    H259679   6.083   4.861  11.659 -1.1025 -1.3011 -1.0676
12730TIP3   OH259680   1.601   3.657  16.121  0.1070 -0.5261 -0.0781
12730TIP3    H159681   1.634   3.733  16.169  0.6018 -0.8670  0.1239
12730TIP3    H259682   1.533   3.693  16.063  0.0078 -0.0036  0.3548
12731TIP3   OH259683   4.774   4.486   4.857 -0.3744  0.1334 -0.6439
12731TIP3    H159684   4.757   4.408   4.805  0.2106 -0.4803  0.0454
12731TIP3    H259685   4.731   4.557   4.810 -0.4696 -0.5167 -1.5677
12732TIP3   OH259686   1.400   6.390  13.529  0.2453 -0.2938  0.4498
12732TIP3    H159687   1.448   6.310  13.508 -2.0567 -1.5243 -0.4973
12732TIP3    H259688   1.310   6.361  13.545 -0.5464  2.0524  0.6916
12733TIP3   OH259689   3.294   4.761   0.765  0.2136  0.4113  0.4111
12733TIP3    H159690   3.319   4.732   0.677 -0.2731  0.9976  0.0766
12733TIP3    H259691   3.319   4.688   0.822  0.4201 -0.0218 -0.2247
12734TIP3   OH259692   4.230   1.069   4.606  0.4335 -0.2662  0.0585
12734TIP3    H159693   4.140   1.099   4.591  0.9602  0.8277 -1.0221
12734TIP3    H259694   4.232   1.047   4.700 -1.4332 -2.0770 -0.2477
12735TIP3   OH259695   4.545   0.495  11.297 -0.3629 -0.3389  0.1703
12735TIP3    H159696   4.472   0.496  11.235 -0.2536  1.5257  0.0226
12735TIP3    H259697   4.504   0.510  11.382 -0.1762  0.4840  0.1159
12736TIP3   OH259698   1.209   5.866  15.747 -0.4317  0.1801 -0.3254
12736TIP3    H159699   1.165   5.899  15.668 -0.7285 -0.9692 -0.6567
12736TIP3    H259700   1.302   5.874  15.727 -0.5015  0.3090 -0.6095
12737TIP3   OH259701   0.875   2.140   0.414 -0.4760 -0.6459  0.0982
12737TIP3    H159702   0.875   2.133   0.319 -1.3093  0.0784  0.0373
12737TIP3    H259703   0.964   2.115   0.440 -0.1220 -0.4455 -0.8912
12738TIP3   OH259704   6.173   4.834  13.652  0.0695 -0.2397 -0.1377
12738TIP3    H159705   6.169   4.847  13.557 -0.0041  0.4313 -0.0424
12738TIP3    H259706   6.217   4.912  13.686 -0.1224 -0.3621  0.4066
12739TIP3   OH259707   2.508   1.236   1.213 -0.0879 -0.3201  0.2148
12739TIP3    H159708   2.448   1.295   1.168  2.1686  1.9296 -0.0854
12739TIP3    H259709   2.515   1.272   1.301  3.5892  1.9434 -0.7775
12740TIP3   OH259710   6.744   4.466   5.037  0.0127 -0.0981 -0.5995
12740TIP3    H159711   6.833   4.435   5.056 -0.4531 -1.7139 -0.9732
12740TIP3    H259712   6.742   4.475   4.941  0.6848  2.9025 -0.4326
12741TIP3   OH259713   0.165   3.765  10.554  0.5419 -0.3701 -0.3067
12741TIP3    H159714   0.115   3.698  10.601 -1.2956  1.1868  0.1006
12741TIP3    H259715   0.125   3.769  10.467  0.5573  0.2405 -0.2939
12742TIP3   OH259716   0.871   1.627  12.540 -0.2098  0.3363 -0.4756
12742TIP3    H159717   0.800   1.690  12.554 -0.5593  0.2179 -1.5998
12742TIP3    H259718   0.925   1.633  12.619 -1.9085 -0.1416  0.7789
12743TIP3   OH259719   0.948   3.646   1.101  0.4318 -0.0107 -0.1824
12743TIP3    H159720   1.008   3.708   1.059  0.9587  0.6219  1.3938
12743TIP3    H259721   0.968   3.561   1.062 -0.0253  0.7175 -2.1076
12744TIP3   OH259722   0.988   6.801  13.513 -0.0268  0.2079 -0.2659
12744TIP3    H159723   0.912   6.849  13.549 -0.9622 -0.1881 -1.6525
12744TIP3    H259724   1.000   6.838  13.426 -0.5368 -1.7854 -1.2275
12745TIP3   OH259725   2.237   5.769  16.735 -0.7613 -0.5791 -0.4887
12745TIP3    H159726   2.144   5.793  16.734 -1.4502 -2.8222  1.3614
12745TIP3    H259727   2.274   5.819  16.808 -0.9333 -1.0038 -0.1077
12746TIP3   OH259728   4.059   1.045  16.057  0.2534  0.1974  0.6025
12746TIP3    H159729   4.067   0.951  16.075 -2.5140 -0.0501  1.0910
12746TIP3    H259730   4.026   1.082  16.139 -1.2548  1.0899 -0.3496
12747TIP3   OH259731   3.226   5.491  14.270 -0.0475  0.2789  0.6091
12747TIP3    H159732   3.239   5.441  14.351 -0.7348  0.1551  0.6484
12747TIP3    H259733   3.314   5.517  14.244  0.2050  0.0961  1.2571
12748TIP3   OH259734   5.416   2.146   2.807 -0.0005  0.0558  0.3777
12748TIP3    H159735   5.359   2.070   2.822 -0.8420  0.4568 -0.6826
12748TIP3    H259736   5.446   2.170   2.895 -0.4715 -0.9193  0.8279
12749TIP3   OH259737   1.458   4.856  13.703  1.0378  0.3518 -0.5346
12749TIP3    H159738   1.393   4.893  13.643  0.7957  0.6344 -0.0973
12749TIP3    H259739   1.542   4.875  13.661  0.8066 -1.7746 -2.1348
12750TIP3   OH259740   6.231   3.151  14.388 -0.1921 -0.2781 -1.0240
12750TIP3    H159741   6.143   3.153  14.424  0.2774 -0.1240  0.1531
12750TIP3    H259742   6.246   3.240  14.356 -0.6377 -0.4342 -1.6844
12751TIP3   OH259743   3.838   0.999   0.047 -0.1957  0.1627 -0.0423
12751TIP3    H159744   3.811   1.086   0.077 -1.2606 -0.1991  0.0958
12751TIP3    H259745   3.883   1.015  -0.036 -0.1802  0.8661  0.0956
12752TIP3   OH259746   5.962   5.880  11.582  0.6877 -0.0015  0.0344
12752TIP3    H159747   5.979   5.881  11.488  0.4474 -1.7424 -0.0585
12752TIP3    H259748   5.919   5.963  11.600 -2.8673 -1.1785 -2.1191
12753TIP3   OH259749   5.575   3.769   3.111 -0.1364  0.2826  0.0345
12753TIP3    H159750   5.599   3.683   3.078 -0.8569 -0.4280  1.3210
12753TIP3    H259751   5.503   3.753   3.172 -0.0323  1.7446  0.5899
12754TIP3   OH259752   1.391   5.334   0.365  0.0518 -0.1311  0.6292
12754TIP3    H159753   1.322   5.374   0.312 -0.1957 -1.8007 -0.3735
12754TIP3    H259754   1.424   5.406   0.419 -1.3770  1.0655 -0.0097
12755TIP3   OH259755   3.265   3.275   1.794  0.0313  0.7848 -0.0706
12755TIP3    H159756   3.267   3.306   1.884  0.1800  1.7641 -0.3986
12755TIP3    H259757   3.343   3.313   1.754  0.2705 -0.1071 -0.4649
12756TIP3   OH259758   0.804   4.817  14.469 -0.0310 -0.3949  0.3271
12756TIP3    H159759   0.875   4.878  14.488  1.5018 -1.6072 -1.1744
12756TIP3    H259760   0.824   4.740  14.523  0.3056 -1.0499 -0.6937
12757TIP3   OH259761   5.462   5.521   5.525 -0.1403 -0.2654  0.0129
12757TIP3    H159762   5.387   5.462   5.521  0.1143 -0.5304 -2.7877
12757TIP3    H259763   5.538   5.462   5.522  0.1975  0.0751  1.2375
12758TIP3   OH259764   0.884   3.089   6.535 -1.3895 -0.0136 -0.0035
12758TIP3    H159765   0.920   3.032   6.467 -1.0593  0.5962 -0.3497
12758TIP3    H259766   0.918   3.053   6.617 -1.5588 -0.5816 -0.1846
12759TIP3   OH259767   0.365   3.492  15.943  0.0236  0.2056 -0.0159
12759TIP3    H159768   0.401   3.414  15.901 -1.9795 -0.6105 -0.3151
12759TIP3    H259769   0.273   3.470  15.961 -0.6282  2.5271 -0.1980
12760TIP3   OH259770   5.326   3.218  12.612 -0.0795 -0.7354  0.6492
12760TIP3    H159771   5.412   3.186  12.638 -0.4587 -1.3828  1.1803
12760TIP3    H259772   5.281   3.140  12.577 -0.2111 -0.2577 -0.2619
12761TIP3   OH259773   6.366   1.373  10.302 -0.5232  0.4317 -0.7341
12761TIP3    H159774   6.289   1.430  10.292 -1.1050 -0.3273 -0.6388
12761TIP3    H259775   6.332   1.284  10.294  0.2718  0.0669 -0.2011
12762TIP3   OH259776   0.878   5.140  15.254 -0.1092  0.1725 -0.1922
12762TIP3    H159777   0.881   5.058  15.303  1.4648 -0.7636 -1.7386
12762TIP3    H259778   0.875   5.113  15.162 -0.0701  1.8531 -0.7269
12763TIP3   OH259779   5.943   5.703  13.255 -0.5043  0.0758  0.6651
12763TIP3    H159780   5.973   5.660  13.335 -2.8475  0.0379  1.6165
12763TIP3    H259781   5.987   5.788  13.256  2.0735 -1.1899  0.1786
12764TIP3   OH259782   2.531   0.030   6.122  0.5531  0.2497 -0.2825
12764TIP3    H159783   2.559   0.006   6.034 -1.7900  0.2749 -1.1001
12764TIP3    H259784   2.495   0.118   6.113  1.4074  0.7669  0.9873
12765TIP3   OH259785   2.080   2.899  16.905 -0.3313  0.6411 -0.2599
12765TIP3    H159786   2.171   2.908  16.876 -0.5633  0.2771 -1.1344
12765TIP3    H259787   2.080   2.819  16.957  0.2619  1.7471  1.5178
12766TIP3   OH259788   6.713   6.041  13.335  0.0371  0.3845 -0.5722
12766TIP3    H159789   6.788   6.006  13.287  0.5711  1.4749 -0.5697
12766TIP3    H259790   6.699   6.127  13.297  1.0375  1.6821  1.7727
12767TIP3   OH259791   3.969   0.399   3.835 -1.1159 -0.7529  0.0331
12767TIP3    H159792   3.968   0.446   3.752 -2.6400  2.0362  1.4769
12767TIP3    H259793   3.896   0.337   3.829 -1.9270  0.2160 -0.3345
12768TIP3   OH259794   6.680   3.043  12.519 -0.1595 -0.4183  0.2579
12768TIP3    H159795   6.729   3.075  12.443  0.6796 -0.0859  0.9324
12768TIP3    H259796   6.606   3.103  12.526 -0.4732 -0.6881 -0.5273
12769TIP3   OH259797   3.413   5.176  15.053  0.6185 -0.2213  0.1274
12769TIP3    H159798   3.339   5.205  14.998  0.2349 -0.8377  0.3132
12769TIP3    H259799   3.439   5.255  15.101 -0.9545 -0.3421  1.2561
12770TIP3   OH259800   6.716   5.658   3.335  0.5355  0.4266 -0.1774
12770TIP3    H159801   6.790   5.719   3.330  0.7475  0.3016  1.0631
12770TIP3    H259802   6.737   5.601   3.409 -0.2523 -0.3600 -0.5463
12771TIP3   OH259803   0.895   0.887  10.256 -0.0681  0.4770 -0.0965
12771TIP3    H159804   0.945   0.814  10.219 -0.7802 -0.6772  1.0989
12771TIP3    H259805   0.945   0.965  10.233  1.2816 -0.4721 -0.5333
12772TIP3   OH259806   0.780   6.034  13.331 -0.1015 -0.1602  0.0449
12772TIP3    H159807   0.801   6.005  13.420 -2.5642 -1.2602  0.3387
12772TIP3    H259808   0.805   5.961  13.275  0.2344  0.0047 -0.0215
12773TIP3   OH259809   2.277   0.102   1.949 -0.1819 -0.2108 -0.4880
12773TIP3    H159810   2.336   0.089   1.875  0.7187 -1.8013  0.4517
12773TIP3    H259811   2.255   0.195   1.946  0.4268 -0.0847 -2.2926
12774TIP3   OH259812   0.274   2.340   0.608  0.1771 -0.3602 -0.0237
12774TIP3    H159813   0.254   2.332   0.515  0.8506 -0.0484 -0.2072
12774TIP3    H259814   0.366   2.312   0.615  0.4709  0.6549  0.3710
12775TIP3   OH259815   6.832   4.687   0.590  0.5997 -0.4423  0.2127
12775TIP3    H159816   6.883   4.644   0.521 -0.7799 -0.4969 -0.8391
12775TIP3    H259817   6.745   4.699   0.551 -0.0575  0.0837  1.7498
12776TIP3   OH259818   2.687   5.006   5.887 -0.0539 -0.2344  0.4280
12776TIP3    H159819   2.783   5.010   5.894  0.0141  0.6930 -0.6654
12776TIP3    H259820   2.655   5.064   5.955  0.1534 -0.6411  0.8767
12777TIP3   OH259821   1.665   6.841   5.589  0.1234  0.0947 -0.4647
12777TIP3    H159822   1.585   6.864   5.542  0.7106  1.0575 -1.0266
12777TIP3    H259823   1.706   6.925   5.608 -0.0427 -0.2652  1.7193
12778TIP3   OH259824   3.444   0.258  16.001 -1.0740  1.0322  0.2080
12778TIP3    H159825   3.396   0.178  16.021 -0.0267  0.2879 -0.1851
12778TIP3    H259826   3.456   0.255  15.906  2.8395 -0.6764  0.5858
12779TIP3   OH259827   3.197   5.903   5.412  0.1252  0.4437  0.4694
12779TIP3    H159828   3.196   5.981   5.356 -0.1796  2.4048  3.0097
12779TIP3    H259829   3.151   5.931   5.492  2.6481 -1.3423  2.7163
12780TIP3   OH259830   4.840   6.765  14.630  0.1638  0.4777 -0.4432
12780TIP3    H159831   4.828   6.701  14.560 -1.0347 -0.7795  0.8187
12780TIP3    H259832   4.924   6.806  14.612  2.3145 -3.2387 -0.0488
12781TIP3   OH259833   0.442   5.077   5.339 -0.1683 -0.0929  0.0979
12781TIP3    H159834   0.474   5.006   5.282 -0.5024  1.6674 -2.4396
12781TIP3    H259835   0.363   5.109   5.295 -0.1709  1.6825  1.3171
12782TIP3   OH259836   4.243   2.856   2.108  0.3066 -0.4986 -0.3036
12782TIP3    H159837   4.322   2.846   2.161 -0.8743 -0.4591  1.5586
12782TIP3    H259838   4.274   2.857   2.018  2.4446 -0.1883  0.3941
12783TIP3   OH259839   1.498   3.945   2.627 -0.1414  0.2594  0.6501
12783TIP3    H159840   1.536   3.936   2.714 -0.3732 -0.3266  0.6952
12783TIP3    H259841   1.456   4.032   2.627  2.1988  1.4599  0.1992
12784TIP3   OH259842   3.265   6.405   0.926  0.2548  0.0846 -0.0284
12784TIP3    H159843   3.327   6.346   0.883  0.2755  0.6328 -0.7675
12784TIP3    H259844   3.320   6.474   0.964  0.0898  1.0567 -1.4354
12785TIP3   OH259845   2.775   5.431   5.516 -0.4226  0.1159 -0.1860
12785TIP3    H159846   2.768   5.526   5.529 -1.3641  0.1383 -0.8313
12785TIP3    H259847   2.857   5.408   5.560 -1.0009  0.9681  1.4628
12786TIP3   OH259848   4.001   0.228   5.230 -0.7404 -0.4783  0.9761
12786TIP3    H159849   3.981   0.308   5.181  1.5437 -0.4197 -0.0252
12786TIP3    H259850   3.993   0.253   5.322  0.1276  1.0134  0.6807
12787TIP3   OH259851   3.158   2.354   4.611  0.2920  0.3429  0.3631
12787TIP3    H159852   3.239   2.334   4.564  0.1944 -0.3017  0.4681
12787TIP3    H259853   3.187   2.391   4.694  0.5766 -2.3928  1.5982
12788TIP3   OH259854   0.511   5.978   4.624 -0.3528 -0.0045 -0.4674
12788TIP3    H159855   0.545   5.977   4.714  0.3942 -2.2864 -0.6979
12788TIP3    H259856   0.496   6.070   4.605  2.6204  0.8839  0.8623
12789TIP3   OH259857   3.270   6.634  16.105 -0.1729  0.4341 -0.1111
12789TIP3    H159858   3.196   6.661  16.159  0.3426 -0.4843  1.1121
12789TIP3    H259859   3.321   6.575  16.162  0.2945 -0.7315 -1.6563
12790TIP3   OH259860   2.195   0.984  16.680  0.3463 -0.0906 -0.2522
12790TIP3    H159861   2.240   1.005  16.598  1.0784 -1.2251 -0.1639
12790TIP3    H259862   2.254   0.923  16.724 -0.9644 -1.0859  0.1813
12791TIP3   OH259863   1.966   2.948   3.770 -0.3239 -0.0238  0.1858
12791TIP3    H159864   1.911   3.002   3.827 -0.5003  1.7891 -1.5434
12791TIP3    H259865   1.940   2.858   3.788 -2.0880  0.6421  1.1937
12792TIP3   OH259866   3.949   1.589  14.738  0.4439 -0.4524 -0.4041
12792TIP3    H159867   3.983   1.540  14.813 -1.2737 -0.5455  0.3597
12792TIP3    H259868   3.911   1.522  14.681 -2.2884 -0.1198  0.8406
12793TIP3   OH259869   3.700   3.173  12.135  0.0690 -0.5905  0.3143
12793TIP3    H159870   3.609   3.143  12.143 -0.8017  1.4925 -1.1439
12793TIP3    H259871   3.714   3.183  12.041  1.2628  0.6842  0.5991
12794TIP3   OH259872   5.784   2.179  12.763  0.2320 -0.0922  0.5070
12794TIP3    H159873   5.850   2.165  12.694 -0.0169 -1.8732  0.5699
12794TIP3    H259874   5.768   2.273  12.763  0.9635  0.0663 -1.2051
12795TIP3   OH259875   4.206   4.522  11.077  0.3532  0.2520  0.3730
12795TIP3    H159876   4.229   4.435  11.044 -0.7641  0.1345 -0.1609
12795TIP3    H259877   4.259   4.582  11.024  3.9246 -0.1412  3.1460
12796TIP3   OH259878   6.052   1.352   3.480 -0.2858  0.1335  0.7064
12796TIP3    H159879   5.977   1.350   3.420  1.7072 -0.9096 -1.9812
12796TIP3    H259880   6.057   1.442   3.511 -1.1405  0.8591 -1.1513
12797TIP3   OH259881   5.609   5.805   4.584  0.1134  0.7951 -0.1508
12797TIP3    H159882   5.687   5.859   4.598  0.2389  0.3087  1.2166
12797TIP3    H259883   5.537   5.868   4.575  0.6410  1.2523 -1.5133
12798TIP3   OH259884   4.990   0.493   2.839  0.1493 -0.0806 -0.3104
12798TIP3    H159885   4.907   0.475   2.883  0.5299 -1.3555 -0.0763
12798TIP3    H259886   5.044   0.535   2.906 -0.6572  1.8325 -0.7864
12799TIP3   OH259887   1.734   3.205   2.271 -0.3406  0.0988 -0.4201
12799TIP3    H159888   1.813   3.151   2.271  0.1133  0.7537 -0.8069
12799TIP3    H259889   1.752   3.273   2.337 -0.7024  0.0788 -0.2993
12800TIP3   OH259890   4.082   2.006  12.886 -0.2203  0.8811  0.4429
12800TIP3    H159891   4.119   2.065  12.952 -1.4980  0.3007  1.7315
12800TIP3    H259892   3.990   2.032  12.879 -0.9879 -1.2673  1.5153
12801TIP3   OH259893   1.512   6.034  15.988 -0.7617  0.1128 -0.3838
12801TIP3    H159894   1.549   6.036  16.076  0.6437  1.7535 -0.9745
12801TIP3    H259895   1.454   6.110  15.985 -0.7570  0.0951 -0.9028
12802TIP3   OH259896   6.337   4.016   5.988  0.5947  0.5259 -0.0454
12802TIP3    H159897   6.344   3.925   6.017  0.1684  0.4657 -0.1153
12802TIP3    H259898   6.333   4.067   6.069 -0.2712  0.3848  0.0139
12803TIP3   OH259899   0.869   0.990  16.201 -0.7967 -0.1426 -0.0275
12803TIP3    H159900   0.899   1.039  16.125 -1.0701  0.4095  0.2160
12803TIP3    H259901   0.935   0.923  16.215  1.1223  1.9139  1.3882
12804TIP3   OH259902   2.489   4.562   2.385  0.3749  0.1427  0.1105
12804TIP3    H159903   2.496   4.520   2.471 -1.3975  1.6373  1.0520
12804TIP3    H259904   2.514   4.653   2.401  1.3537  0.1505 -1.2797
12805TIP3   OH259905   4.048   1.461  15.794  0.4374  0.2038 -0.1570
12805TIP3    H159906   4.095   1.540  15.821 -0.8872  0.7270  0.7250
12805TIP3    H259907   4.111   1.413  15.739  1.7674  1.1500  0.4854
12806TIP3   OH259908   2.113   6.199  14.916 -0.2421  0.2687  0.3188
12806TIP3    H159909   2.174   6.251  14.968  0.3381  1.0251 -1.0473
12806TIP3    H259910   2.064   6.264  14.865  0.9543 -0.4787 -1.9213
12807TIP3   OH259911   0.432   0.689  10.987 -0.2566  0.1065  0.8507
12807TIP3    H159912   0.422   0.688  11.082 -1.8838 -3.6494  0.7941
12807TIP3    H259913   0.521   0.656  10.972 -0.5409 -0.7904  1.0874
12808TIP3   OH259914   2.778   6.634   2.397 -0.5461  0.3075 -0.6941
12808TIP3    H159915   2.765   6.720   2.357 -1.0569  0.0320 -1.1284
12808TIP3    H259916   2.845   6.649   2.464 -1.0505  1.1700 -0.3618
12809TIP3   OH259917   5.407   6.736   1.000 -0.3767  0.2202  0.5671
12809TIP3    H159918   5.385   6.829   1.008  1.2649  0.7398 -0.3306
12809TIP3    H259919   5.395   6.717   0.907 -2.1084 -0.8919  0.9833
12810TIP3   OH259920   0.837   3.501   4.595 -0.1545  0.3963 -0.1272
12810TIP3    H159921   0.871   3.452   4.520  2.3366  0.4821  0.8322
12810TIP3    H259922   0.839   3.439   4.668 -0.5314  0.8814  0.3081
12811TIP3   OH259923   4.309   4.002   2.889 -0.0761 -0.4421  0.6114
12811TIP3    H159924   4.353   4.084   2.867 -0.7593 -0.4291 -0.7891
12811TIP3    H259925   4.364   3.963   2.956  2.4990 -0.7619 -1.5453
12812TIP3   OH259926   4.632   0.214  15.361  0.4843 -0.6334 -0.3821
12812TIP3    H159927   4.640   0.301  15.321  0.9151  0.3667  1.7006
12812TIP3    H259928   4.710   0.206  15.416 -0.5857 -1.4047  1.1023
12813TIP3   OH259929   0.694   4.164   5.890 -0.7638  0.3550 -0.2059
12813TIP3    H159930   0.698   4.152   5.985  0.0004  0.8517 -0.1652
12813TIP3    H259931   0.684   4.258   5.877 -1.3426  0.2430 -0.6157
12814TIP3   OH259932   1.320   0.191  10.567 -0.1568 -0.1034 -0.7495
12814TIP3    H159933   1.366   0.108  10.559  0.5689  0.0588  1.0896
12814TIP3    H259934   1.228   0.167  10.575 -0.2470 -0.5433 -2.6179
12815TIP3   OH259935   3.630   4.634  12.799  0.1154  0.2646 -0.5689
12815TIP3    H159936   3.606   4.587  12.879  0.0981  0.5488 -0.4053
12815TIP3    H259937   3.633   4.566  12.731  0.2153  0.0091 -0.3113
12816TIP3   OH259938   3.913   2.930  14.797  0.2886  0.0721  0.3671
12816TIP3    H159939   3.826   2.905  14.828 -0.1094 -0.5500 -1.1744
12816TIP3    H259940   3.971   2.915  14.872 -0.9010  0.3866  1.3771
12817TIP3   OH259941   0.544   5.671  15.064  0.2867 -0.3883  0.1794
12817TIP3    H159942   0.523   5.762  15.085  1.6443 -0.0586  0.2287
12817TIP3    H259943   0.490   5.620  15.124 -1.4012  0.3236 -0.6732
12818TIP3   OH259944   2.692   2.930   5.745  0.0978 -0.4093 -0.0539
12818TIP3    H159945   2.656   3.003   5.694 -0.6439 -0.8415 -0.1626
12818TIP3    H259946   2.621   2.905   5.805  0.4680 -0.8169  0.2261
12819TIP3   OH259947   0.301   4.048   1.400 -0.1868 -1.0089  0.1219
12819TIP3    H159948   0.327   4.008   1.483  0.6582 -0.0897  0.3245
12819TIP3    H259949   0.354   4.127   1.394  2.0237 -2.4840 -2.6735
12820TIP3   OH259950   4.379   2.195   6.150 -0.1090 -0.4706  0.0854
12820TIP3    H159951   4.375   2.105   6.181 -1.4755 -0.7370 -0.7853
12820TIP3    H259952   4.411   2.188   6.060  2.6400  0.1942  0.9039
12821TIP3   OH259953   2.824   3.330  16.509  0.1637 -0.0997 -0.4915
12821TIP3    H159954   2.764   3.270  16.553 -0.1237  0.3191 -0.2987
12821TIP3    H259955   2.895   3.275  16.477  0.0395 -0.5019 -0.0829
12822TIP3   OH259956   3.658   0.823  12.096 -0.0901  0.2908 -0.0237
12822TIP3    H159957   3.630   0.761  12.164 -1.8021  1.2297  0.2004
12822TIP3    H259958   3.576   0.856  12.059  0.7514  2.1737 -0.3484
12823TIP3   OH259959   1.528   4.925  14.928 -0.4201  0.9294  0.0175
12823TIP3    H159960   1.492   5.014  14.920 -1.4144  0.6965  1.5626
12823TIP3    H259961   1.487   4.889  15.007  2.0849  0.0953  1.0472
12824TIP3   OH259962   0.933   0.774  15.588 -0.9615 -0.2415 -0.3548
12824TIP3    H159963   1.025   0.761  15.611 -0.8243 -1.0298 -1.3277
12824TIP3    H259964   0.926   0.868  15.573 -0.2198 -0.2316 -0.6833
12825TIP3   OH259965   4.614   6.020  12.377 -0.3446  0.1248  0.4155
12825TIP3    H159966   4.568   6.087  12.326 -1.1644  1.2733  2.5577
12825TIP3    H259967   4.707   6.038  12.361 -0.5154  2.3005  1.4931
12826TIP3   OH259968   0.350   2.621  16.087 -0.3486 -0.1589  0.2793
12826TIP3    H159969   0.342   2.552  16.021 -0.9390 -0.7312  0.9298
12826TIP3    H259970   0.264   2.624  16.129  0.0149  0.2073  1.0126
12827TIP3   OH259971   0.251   3.823  15.216 -0.1745 -0.2738 -0.2692
12827TIP3    H159972   0.241   3.874  15.135 -0.0185  1.6876  0.8680
12827TIP3    H259973   0.330   3.858  15.257 -0.6827 -0.6516  1.1090
12828TIP3   OH259974   6.525   5.241   4.896  0.2560  0.4683  0.0284
12828TIP3    H159975   6.437   5.255   4.861 -0.0919  2.1923  1.4468
12828TIP3    H259976   6.525   5.150   4.924 -0.4524 -0.0729 -1.5723
12829TIP3   OH259977   3.632   0.778   2.953 -0.4640 -0.3244 -0.5833
12829TIP3    H159978   3.597   0.867   2.957 -0.7737 -0.4939  2.1325
12829TIP3    H259979   3.726   0.790   2.938 -0.5759  0.4277 -0.7568
12830TIP3   OH259980   2.943   0.193   1.443  0.2956 -0.4798  0.1598
12830TIP3    H159981   2.944   0.106   1.484 -1.8532 -0.3803  0.5065
12830TIP3    H259982   3.033   0.205   1.412  1.0533 -2.1305  1.5413
12831TIP3   OH259983   6.703   1.979  12.851 -0.4717  0.2894  0.0358
12831TIP3    H159984   6.633   1.922  12.819  0.0781 -0.2763 -0.1728
12831TIP3    H259985   6.694   2.059  12.801  0.8935 -0.8611 -2.2251
12832TIP3   OH259986   5.592   4.793   3.628  0.6030  0.0183 -0.0888
12832TIP3    H159987   5.553   4.734   3.691  1.8780 -0.9103 -0.1222
12832TIP3    H259988   5.686   4.793   3.650  0.7450  1.4208 -0.5774
12833TIP3   OH259989   1.028   3.227  12.903 -0.1840  0.0982 -0.2589
12833TIP3    H159990   1.100   3.181  12.859 -0.7967  0.3450 -1.5791
12833TIP3    H259991   1.026   3.313  12.861  1.9716  2.0597  3.2237
12834TIP3   OH259992   0.874   3.606  16.385 -0.2290 -0.4145 -0.1790
12834TIP3    H159993   0.813   3.533  16.381  0.3567 -0.9055 -0.4087
12834TIP3    H259994   0.831   3.671  16.441 -1.1852 -0.5229 -0.7646
12835TIP3   OH259995   6.306   1.184  16.189  0.2267  0.1013  0.0616
12835TIP3    H159996   6.240   1.250  16.165  0.7301  0.7388  0.3856
12835TIP3    H259997   6.342   1.216  16.272  1.1744 -0.0598 -0.2713
12836TIP3   OH259998   0.648   5.648   4.358  0.2941  0.3040 -0.0092
12836TIP3    H159999   0.594   5.588   4.410 -0.0572  0.8832  0.3196
12836TIP3    H260000   0.587   5.684   4.293 -0.1863  2.2025  1.3942
12837TIP3   OH260001   1.539   1.945   0.932 -0.0078  0.3773  0.0934
12837TIP3    H160002   1.596   2.021   0.924  1.7583 -1.0576 -2.2066
12837TIP3    H260003   1.501   1.934   0.845 -2.6262  0.3402  1.1607
12838TIP3   OH260004   2.113   0.861   5.618 -0.4815  0.4689  0.1210
12838TIP3    H160005   2.071   0.872   5.533 -2.2493  1.3375  1.0558
12838TIP3    H260006   2.162   0.942   5.632  0.8932 -0.2069 -0.6067
12839TIP3   OH260007   1.177   0.550  11.635  0.1811  0.0141  0.1644
12839TIP3    H160008   1.197   0.488  11.705 -0.8364  0.1449  0.5852
12839TIP3    H260009   1.131   0.622  11.678  1.1028  0.9419 -0.3624
12840TIP3   OH260010   2.083   4.472   4.996 -0.0303  0.4358 -0.1063
12840TIP3    H160011   2.035   4.429   5.067  1.2290  0.7677  0.9828
12840TIP3    H260012   2.023   4.539   4.963  0.2757  2.0589  2.4268
12841TIP3   OH260013   4.230   1.317  16.657 -0.3655 -0.3394 -0.0088
12841TIP3    H160014   4.209   1.237  16.706 -0.3088  1.1582  2.6589
12841TIP3    H260015   4.175   1.384  16.697  0.8381  1.3107 -1.0227
12842TIP3   OH260016   5.036   1.664  12.810 -0.0764  0.0233 -0.4164
12842TIP3    H160017   5.130   1.649  12.810 -0.0707 -0.0146  0.5430
12842TIP3    H260018   5.001   1.593  12.864 -0.9405 -1.5198 -2.8499
12843TIP3   OH260019   4.851   5.230   1.404  0.5601  0.5547  0.0684
12843TIP3    H160020   4.905   5.280   1.342  0.3629 -0.4873 -0.9802
12843TIP3    H260021   4.804   5.167   1.349 -1.9053  1.5603  0.9198
12844TIP3   OH260022   1.755   3.929   0.183 -0.4054  0.0020  0.2806
12844TIP3    H160023   1.779   3.978   0.105  0.7091  0.2152  0.7428
12844TIP3    H260024   1.660   3.914   0.174 -0.0709 -1.2975 -1.8547
12845TIP3   OH260025   6.488   1.941  13.779  0.0159  0.0187  0.2133
12845TIP3    H160026   6.410   1.936  13.724 -1.2346  1.1756  1.8105
12845TIP3    H260027   6.510   2.035  13.781  0.7550 -0.1581  0.7146
12846TIP3   OH260028   6.240   0.739   5.080 -0.5520 -0.4837 -0.3273
12846TIP3    H160029   6.301   0.732   5.153 -0.3227  0.8327 -0.3625
12846TIP3    H260030   6.289   0.706   5.005 -0.1573 -0.1957 -0.2036
12847TIP3   OH260031   4.970   3.462   2.654 -0.0763  0.4697 -0.2155
12847TIP3    H160032   5.021   3.514   2.716  0.1928 -0.1147  0.0654
12847TIP3    H260033   5.024   3.384   2.639 -0.3786  0.3654 -0.7822
12848TIP3   OH260034   2.866   4.966   5.634  0.5646 -0.7476 -0.3020
12848TIP3    H160035   2.844   4.950   5.725  1.7460 -1.1537 -0.0737
12848TIP3    H260036   2.903   5.055   5.633  1.4853 -1.1158 -0.1966
12849TIP3   OH260037   3.118   2.284  12.688 -1.1034 -0.1763  0.4536
12849TIP3    H160038   3.113   2.189  12.676 -0.8359 -0.4252  2.1122
12849TIP3    H260039   3.198   2.298  12.738 -0.3068  1.0920 -1.1044
12850TIP3   OH260040   5.877   3.958  15.112 -0.3060 -0.0691 -0.6450
12850TIP3    H160041   5.823   4.001  15.177 -1.4847  0.5624 -2.0044
12850TIP3    H260042   5.865   3.864  15.128  0.1056  0.0705  0.5642
12851TIP3   OH260043   4.974   5.520   2.186 -0.1319  0.0795  0.5697
12851TIP3    H160044   4.945   5.606   2.156  0.2027  0.7496  2.0838
12851TIP3    H260045   4.924   5.458   2.133  0.1875  1.1734 -1.1116
12852TIP3   OH260046   4.669   1.380   5.164 -0.9023  0.3573  0.3903
12852TIP3    H160047   4.578   1.402   5.183 -1.1131  1.0356 -1.2432
12852TIP3    H260048   4.668   1.349   5.073  0.5680  0.8818  0.1675
12853TIP3   OH260049   0.661   4.932   4.491 -0.3019  0.4805 -0.2000
12853TIP3    H160050   0.652   4.922   4.586  0.5374 -0.6422 -0.2190
12853TIP3    H260051   0.591   4.880   4.454 -0.0221  0.1092 -0.2086
12854TIP3   OH260052   5.196   3.528  13.239 -0.4817  0.0454  0.2458
12854TIP3    H160053   5.148   3.537  13.157  0.1302  0.8152 -0.0343
12854TIP3    H260054   5.287   3.547  13.217 -0.2998  0.2152  1.0904
12855TIP3   OH260055   6.717   6.199   1.991 -0.3348 -0.0824 -0.0661
12855TIP3    H160056   6.641   6.142   1.984  0.1243 -0.5412 -1.5941
12855TIP3    H260057   6.738   6.223   1.900  0.5614  1.0778  0.4190
12856TIP3   OH260058   4.773   5.216   6.118 -0.3619  0.1285 -0.8249
12856TIP3    H160059   4.739   5.151   6.180  2.5412 -0.8970 -0.1184
12856TIP3    H260060   4.729   5.297   6.142 -2.2532 -1.0540 -0.0810
12857TIP3   OH260061   2.992   1.477   4.966 -0.3567 -0.5935 -0.5090
12857TIP3    H160062   2.950   1.393   4.984  0.0791 -0.6876  0.1079
12857TIP3    H260063   2.931   1.542   5.000 -1.2656 -0.5787 -2.0683
12858TIP3   OH260064   2.459   5.730   2.700  0.0655 -0.1413 -0.1454
12858TIP3    H160065   2.480   5.647   2.742 -0.7678 -0.4851 -0.3734
12858TIP3    H260066   2.384   5.710   2.644  1.1720  0.2899 -1.8426
12859TIP3   OH260067   4.324   1.386  15.252 -0.7501 -0.0030  0.6577
12859TIP3    H160068   4.256   1.329  15.217 -0.1757 -1.3953  1.7002
12859TIP3    H260069   4.297   1.402  15.343  0.2425 -0.5286  1.0672
12860TIP3   OH260070   3.163   3.094  12.185 -0.5939  0.3676 -0.0899
12860TIP3    H160071   3.124   3.093  12.097 -0.3220 -1.7561 -0.2443
12860TIP3    H260072   3.088   3.103  12.243 -0.9736 -0.0375 -0.5015
12861TIP3   OH260073   0.465   6.000  13.345 -0.2810 -0.2417  0.2685
12861TIP3    H160074   0.501   6.041  13.266 -0.1351  1.0983  1.0042
12861TIP3    H260075   0.507   5.914  13.347  1.1031  0.3782 -0.1695
12862TIP3   OH260076   5.319   0.438   1.503 -0.1026 -0.5846 -0.1522
12862TIP3    H160077   5.337   0.510   1.564  0.1465 -0.3845 -0.4565
12862TIP3    H260078   5.374   0.366   1.535 -0.8644 -0.8689  0.5571
12863TIP3   OH260079   4.364   5.627   2.935  0.3433  0.0999 -0.7375
12863TIP3    H160080   4.322   5.698   2.886  0.3731  0.5662 -0.0902
12863TIP3    H260081   4.452   5.621   2.896  0.0037 -0.2589 -1.4674
12864TIP3   OH260082   2.174   6.090   1.685 -0.4377  0.5130  0.3762
12864TIP3    H160083   2.261   6.126   1.705  0.0034 -0.3104  0.0112
12864TIP3    H260084   2.116   6.166   1.688  0.7735  1.7006 -2.5021
12865TIP3   OH260085   2.498   5.141  12.937  0.5258  0.7809  0.0550
12865TIP3    H160086   2.441   5.126  13.012 -1.6919 -3.3612 -2.0778
12865TIP3    H260087   2.442   5.186  12.873  1.1415  0.8537 -0.4434
12866TIP3   OH260088   4.459   1.304   4.130 -0.3414 -0.1435 -0.4063
12866TIP3    H160089   4.441   1.338   4.217 -0.1124  0.4718 -0.5945
12866TIP3    H260090   4.541   1.255   4.140  1.3935  2.4616 -0.8676
12867TIP3   OH260091   3.621   4.312  13.280  0.3954  0.0484  0.2682
12867TIP3    H160092   3.600   4.234  13.333 -0.5367 -0.1153 -0.3262
12867TIP3    H260093   3.700   4.347  13.321 -0.4117  0.0468  1.9118
12868TIP3   OH260094   5.552   3.348   0.403  0.4937 -0.2041 -0.5526
12868TIP3    H160095   5.597   3.432   0.410 -0.6614  0.3546  0.6020
12868TIP3    H260096   5.618   3.287   0.369  1.5237  1.0147 -0.7910
12869TIP3   OH260097   5.014   2.322   4.576  0.1170  0.7844  0.2822
12869TIP3    H160098   5.039   2.304   4.666 -0.6504  1.8756  0.7406
12869TIP3    H260099   4.970   2.242   4.546  2.4347 -0.4914  0.0381
12870TIP3   OH260100   2.499   6.570  11.579 -0.8394 -0.2032 -0.2676
12870TIP3    H160101   2.531   6.632  11.645 -3.6660  0.6405  0.4746
12870TIP3    H260102   2.453   6.625  11.516 -0.8140 -1.3005 -1.2697
12871TIP3   OH260103   4.937   3.874   0.130  0.6033  0.1659  0.1841
12871TIP3    H160104   4.926   3.821   0.051  1.1212 -0.3268  0.4358
12871TIP3    H260105   4.858   3.858   0.181 -0.3891  1.5653 -0.8388
12872TIP3   OH260106   4.102   6.678  12.509 -0.1297  0.0160 -0.1768
12872TIP3    H160107   4.130   6.743  12.573  0.5650 -0.3086 -0.1420
12872TIP3    H260108   4.028   6.633  12.551 -0.3738  0.5237 -0.0518
12873TIP3   OH260109   0.766   5.228   5.686  0.1584  0.3862  0.5315
12873TIP3    H160110   0.737   5.239   5.596 -1.3874 -2.7533  0.5399
12873TIP3    H260111   0.709   5.286   5.736 -2.6873 -1.7121 -0.0549
12874TIP3   OH260112   6.054   2.320   2.800  0.0076  0.4233  0.5392
12874TIP3    H160113   6.022   2.286   2.884 -0.3804 -0.3124  0.0923
12874TIP3    H260114   6.144   2.346   2.818  0.4208 -1.1372  0.8110
12875TIP3   OH260115   3.041   6.844   0.192  0.1861  0.2053  0.2612
12875TIP3    H160116   3.100   6.899   0.141  0.1723  1.1762  1.2583
12875TIP3    H260117   3.091   6.823   0.271 -0.7586  0.9861  1.0900
12876TIP3   OH260118   3.017   5.604   4.651  0.2231 -0.1119 -0.3906
12876TIP3    H160119   2.991   5.565   4.734  1.3914 -1.9633 -0.8238
12876TIP3    H260120   3.085   5.667   4.674  0.5957 -0.6701  0.0669
12877TIP3   OH260121   0.082   4.414   3.613 -0.2376  0.2302 -0.6172
12877TIP3    H160122   0.119   4.342   3.665 -2.8685 -2.0575 -1.6607
12877TIP3    H260123   0.122   4.403   3.527 -0.0084  0.5310 -0.5466
12878TIP3   OH260124   0.542   1.417   4.691  0.9954 -0.1487  0.2316
12878TIP3    H160125   0.620   1.468   4.712  1.2068 -0.2306 -0.3443
12878TIP3    H260126   0.519   1.443   4.602  1.7232 -1.8027 -0.4848
12879TIP3   OH260127   1.598   2.879   6.176  0.3110 -0.5264  0.2700
12879TIP3    H160128   1.580   2.801   6.123 -0.1696 -1.3213  1.5449
12879TIP3    H260129   1.672   2.854   6.231  0.2108 -0.0440  0.6307
12880TIP3   OH260130   2.713   5.085  16.924 -0.2498  0.1497 -0.2869
12880TIP3    H160131   2.671   5.130  16.998 -1.2664 -0.1728 -0.6497
12880TIP3    H260132   2.807   5.095  16.940 -0.3930  3.1041 -0.7579
12881TIP3   OH260133   3.438   4.315   2.622  0.2090  0.2155 -0.0417
12881TIP3    H160134   3.499   4.309   2.695 -0.9953  2.3368  1.2501
12881TIP3    H260135   3.480   4.373   2.559  0.6667 -0.5338 -0.4414
12882TIP3   OH260136   5.357   3.529  16.833 -0.1462  0.1460  0.6033
12882TIP3    H160137   5.430   3.475  16.864  0.1269  1.1415  1.7613
12882TIP3    H260138   5.398   3.596  16.779 -0.3538 -0.0948  0.1449
12883TIP3   OH260139   6.650   3.360   5.791 -0.2396  0.7345  0.2014
12883TIP3    H160140   6.711   3.424   5.754  1.4183 -1.1323 -0.4613
12883TIP3    H260141   6.682   3.343   5.879  0.0726 -0.0576 -0.0540
12884TIP3   OH260142   1.927   6.614   2.533  0.0622 -0.2747  0.2917
12884TIP3    H160143   1.951   6.698   2.493 -1.0629  0.3875  0.9732
12884TIP3    H260144   1.972   6.614   2.617 -1.8181  0.7423  1.3476
12885TIP3   OH260145   3.920   0.219  15.127 -0.5948 -0.5076  0.6898
12885TIP3    H160146   3.987   0.199  15.193  2.7393 -0.4444 -2.3764
12885TIP3    H260147   3.934   0.153  15.059 -1.8654  1.1488 -1.2777
12886TIP3   OH260148   0.051   6.530   0.380 -0.3666  0.2058  0.7264
12886TIP3    H160149   0.128   6.539   0.325 -0.9825  2.7329  0.1344
12886TIP3    H260150   0.078   6.471   0.450  0.9605 -1.7579 -1.3248
12887TIP3   OH260151   6.225   3.250  11.065 -0.3426  0.3058 -0.4612
12887TIP3    H160152   6.186   3.313  11.004 -2.2668 -0.5995 -0.2171
12887TIP3    H260153   6.251   3.304  11.140 -1.3061  0.9334 -0.5512
12888TIP3   OH260154   4.032   1.654  12.614  0.1421  0.0301  0.5611
12888TIP3    H160155   4.055   1.651  12.706 -1.1882  0.5550  0.9360
12888TIP3    H260156   4.005   1.565  12.593 -0.9465  0.2206  1.0815
12889TIP3   OH260157   1.691   6.534   2.832 -0.3386 -0.1669 -0.2545
12889TIP3    H160158   1.701   6.441   2.816 -0.7538 -0.2915  0.1866
12889TIP3    H260159   1.763   6.557   2.891 -0.0257 -0.1308 -0.6466
12890TIP3   OH260160   2.397   5.350  12.766  0.4180  0.0092 -0.0952
12890TIP3    H160161   2.344   5.430  12.762  0.9110  0.3444  0.0091
12890TIP3    H260162   2.401   5.319  12.676  0.6090  0.3565 -0.2071
12891TIP3   OH260163   1.757   1.816  15.792 -0.3953  0.2975 -0.3707
12891TIP3    H160164   1.728   1.879  15.726 -1.0849  0.5127  0.1356
12891TIP3    H260165   1.714   1.844  15.872 -0.3114 -0.5308 -0.0333
12892TIP3   OH260166   4.242   1.449   2.182 -0.5408 -0.7053  0.5193
12892TIP3    H160167   4.283   1.415   2.261 -0.6462 -0.6572  0.5944
12892TIP3    H260168   4.148   1.441   2.198 -0.6347  1.3270  1.3201
12893TIP3   OH260169   3.087   4.888  15.383  0.0575 -0.3766  0.3970
12893TIP3    H160170   3.003   4.922  15.351  1.2865  2.2332 -0.3265
12893TIP3    H260171   3.141   4.879  15.305  1.9391  2.6018  1.2078
12894TIP3   OH260172   6.323   4.950   5.477 -0.1722  0.0650  0.3221
12894TIP3    H160173   6.317   4.866   5.523 -0.6985  0.5087  1.1002
12894TIP3    H260174   6.239   4.958   5.431 -0.3550  0.3976  0.6963
12895TIP3   OH260175   5.921   2.855  11.775 -0.0817  0.0169  0.0339
12895TIP3    H160176   5.971   2.819  11.702  0.2278  0.1920  0.1573
12895TIP3    H260177   5.930   2.790  11.845 -1.0424 -0.5404 -0.3339
12896TIP3   OH260178   6.267   5.021  15.373  0.1982 -0.8116 -0.0186
12896TIP3    H160179   6.264   4.990  15.283  0.8644 -0.6201 -0.1116
12896TIP3    H260180   6.208   5.096  15.376  0.2689 -0.7455 -0.3223
12897TIP3   OH260181   3.947   5.139   5.446  0.8703  0.4656  0.4444
12897TIP3    H160182   3.975   5.178   5.363 -1.5387  1.4083 -0.0275
12897TIP3    H260183   3.959   5.208   5.511 -0.7424  1.1021  0.1263
12898TIP3   OH260184   5.936   6.210  12.656 -0.2592 -0.2240 -0.2033
12898TIP3    H160185   5.968   6.266  12.727 -0.0415 -0.3847 -0.1722
12898TIP3    H260186   5.895   6.136  12.700  1.7748 -1.4383 -0.1898
12899TIP3   OH260187   3.955   6.228  13.125  0.2071 -0.3217 -0.4530
12899TIP3    H160188   3.874   6.179  13.134 -0.4525  0.4466 -1.8371
12899TIP3    H260189   4.018   6.182  13.181 -1.0471 -1.2030  0.2729
12900TIP3   OH260190   5.131   4.941   2.524  0.2499 -0.1083  0.2367
12900TIP3    H160191   5.168   5.003   2.461  1.6673 -1.0810  0.0592
12900TIP3    H260192   5.108   4.865   2.472 -1.8738  0.3777  0.3892
12901TIP3   OH260193   5.223   1.851  14.011  0.5109  0.3042  0.4189
12901TIP3    H160194   5.274   1.871  14.090 -2.0565  2.3579  1.7032
12901TIP3    H260195   5.239   1.925  13.952 -1.4623  1.3983  1.1631
12902TIP3   OH260196   3.763   0.206  12.354 -0.6251 -0.1455  0.1679
12902TIP3    H160197   3.858   0.196  12.364 -0.6956  1.0066  2.4579
12902TIP3    H260198   3.754   0.263  12.277  0.4677 -0.9477 -0.5965
12903TIP3   OH260199   3.302   1.504  16.391 -0.4114  0.2765  0.0739
12903TIP3    H160200   3.240   1.444  16.350 -1.4869  1.0616  0.5194
12903TIP3    H260201   3.268   1.591  16.373  0.7515  0.7528  0.0453
12904TIP3   OH260202   1.278   6.442   1.316 -0.6417  0.2821 -0.1029
12904TIP3    H160203   1.336   6.479   1.249 -0.0449  0.2248  0.3744
12904TIP3    H260204   1.235   6.368   1.273  1.3250 -1.1024  0.1887
12905TIP3   OH260205   2.497   0.777  13.816  0.5081  0.5338  0.1374
12905TIP3    H160206   2.553   0.787  13.893  0.3607 -1.1796  0.5125
12905TIP3    H260207   2.556   0.753  13.745  0.3418 -0.7251  0.4052
12906TIP3   OH260208   5.121   1.904   3.858 -0.2013  0.3982  1.1035
12906TIP3    H160209   5.056   1.932   3.921 -0.5328 -0.2191  1.0436
12906TIP3    H260210   5.203   1.944   3.888 -0.4641  0.5770  1.5919
12907TIP3   OH260211   1.909   1.906  12.709 -0.0685  0.5142  0.5229
12907TIP3    H160212   1.878   1.844  12.643  1.5869 -0.9998  1.0661
12907TIP3    H260213   1.845   1.900  12.780 -0.4539  0.1513  0.1466
12908TIP3   OH260214   0.019   3.132  16.543  0.4146 -0.3716 -0.4621
12908TIP3    H160215   0.022   3.171  16.631  1.9957 -1.6586  0.1036
12908TIP3    H260216   0.065   3.048  16.553 -2.2405 -2.1277 -1.7475
12909TIP3   OH260217   3.238   6.054  14.295 -0.0923  0.6101 -0.3888
12909TIP3    H160218   3.187   6.055  14.377 -0.1224  0.0215 -0.4013
12909TIP3    H260219   3.227   5.966  14.260  0.1643  0.7683 -0.8819
12910TIP3   OH260220   4.227   4.777  13.834  0.2662 -0.7649  0.0224
12910TIP3    H160221   4.239   4.867  13.864  1.1663 -0.9934  0.3924
12910TIP3    H260222   4.296   4.727  13.880 -1.0644 -1.8820  0.8770
12911TIP3   OH260223   1.003   2.288  13.717  0.4777 -0.5000  0.3926
12911TIP3    H160224   1.096   2.289  13.696  0.8467  2.3510  1.6336
12911TIP3    H260225   0.999   2.308  13.811 -1.3614  0.4933  0.1704
12912TIP3   OH260226   3.164   6.455   3.863  0.0710 -0.3641 -0.0642
12912TIP3    H160227   3.184   6.433   3.954  2.2949 -3.3286 -1.0909
12912TIP3    H260228   3.111   6.381   3.832  0.3508 -0.0021 -1.4799
12913TIP3   OH260229   4.719   6.292  13.318 -0.1244 -0.4073  0.6593
12913TIP3    H160230   4.746   6.383  13.326 -2.5491  0.3740  0.8704
12913TIP3    H260231   4.646   6.283  13.379  0.2449 -2.6089  0.8807
12914TIP3   OH260232   2.526   5.569  12.552  0.1528 -0.2100 -0.6122
12914TIP3    H160233   2.560   5.590  12.465  0.0605  0.2030 -0.5517
12914TIP3    H260234   2.478   5.487  12.540 -1.6238  0.8752 -1.4122
12915TIP3   OH260235   6.547   3.480   4.213  0.0626  0.0127  0.7459
12915TIP3    H160236   6.593   3.560   4.188  0.5396 -0.0163  1.4787
12915TIP3    H260237   6.540   3.430   4.132  0.9504  0.2100  0.5300
12916TIP3   OH260238   6.552   0.880  15.344 -0.3272 -0.1148 -0.0773
12916TIP3    H160239   6.577   0.859  15.254  0.9738 -0.6415  0.3712
12916TIP3    H260240   6.545   0.795  15.387  1.2878  0.1671  0.8476
12917TIP3   OH260241   1.624   6.188   5.171  0.3644  0.2131 -0.3520
12917TIP3    H160242   1.684   6.144   5.232 -0.0820 -0.3044 -0.2801
12917TIP3    H260243   1.654   6.279   5.171  1.3745 -0.1040 -0.5966
12918TIP3   OH260244   2.701   0.578   4.876 -0.7746  0.0040 -0.0126
12918TIP3    H160245   2.612   0.609   4.859 -0.4534  0.5864 -0.6915
12918TIP3    H260246   2.753   0.615   4.805 -0.1580 -1.1239 -0.1757
12919TIP3   OH260247   3.901   6.739  12.125 -0.2294 -0.3394 -0.1974
12919TIP3    H160248   3.813   6.761  12.155  0.6395 -0.1988  2.6396
12919TIP3    H260249   3.920   6.654  12.165  0.4404 -1.0617 -1.9488
12920TIP3   OH260250   1.765   1.309  13.687 -0.5957 -0.3328 -0.1509
12920TIP3    H160251   1.760   1.404  13.699 -0.5710 -0.1632 -1.3699
12920TIP3    H260252   1.857   1.288  13.704 -0.2040  0.1336 -1.5468
12921TIP3   OH260253   2.835   5.973   2.841 -0.2769 -0.1185  0.2282
12921TIP3    H160254   2.873   5.917   2.772  0.8446 -0.0718  0.7839
12921TIP3    H260255   2.783   6.037   2.793 -3.3083 -2.7639 -0.3929
12922TIP3   OH260256   0.265   5.737  14.623 -0.3993 -0.5257  0.3397
12922TIP3    H160257   0.186   5.741  14.677 -1.8000 -1.8958 -1.4672
12922TIP3    H260258   0.297   5.648  14.635  0.8421 -0.0212  0.9433
12923TIP3   OH260259   4.812   0.076   4.101 -0.8241 -0.2435 -0.6834
12923TIP3    H160260   4.847   0.152   4.054 -0.3436  0.3578  0.6003
12923TIP3    H260261   4.725   0.063   4.063  0.4974 -1.5216 -3.6671
12924TIP3   OH260262   5.417   4.697   2.082  0.3386 -0.5488 -0.0125
12924TIP3    H160263   5.444   4.769   2.140  2.5116 -0.2180 -1.3246
12924TIP3    H260264   5.339   4.660   2.124  0.7786  0.8075  2.1491
12925TIP3   OH260265   5.868   1.633   5.140 -0.4581  0.0685  0.4051
12925TIP3    H160266   5.864   1.608   5.232 -0.8836 -0.8891  0.1343
12925TIP3    H260267   5.870   1.729   5.141 -0.3084  0.0589  1.4080
12926TIP3   OH260268   1.380   1.428  14.574  0.0040 -0.2399  0.8030
12926TIP3    H160269   1.336   1.377  14.642 -0.5436 -0.1907  0.4851
12926TIP3    H260270   1.445   1.368  14.538 -1.1075 -0.9589 -0.0506
12927TIP3   OH260271   6.819   2.487   5.449 -0.3961 -0.3798 -0.6638
12927TIP3    H160272   6.861   2.429   5.512 -0.8364  0.3463  0.3359
12927TIP3    H260273   6.876   2.484   5.371  0.5528 -0.7424  0.0228
12928TIP3   OH260274   0.845   3.918   1.881 -0.6243  0.3215  0.3366
12928TIP3    H160275   0.891   3.967   1.813 -0.7827 -0.3474 -0.2637
12928TIP3    H260276   0.824   3.834   1.840 -0.4471 -0.2127  1.3127
12929TIP3   OH260277   1.490   1.657  15.565  0.6642 -0.1174 -0.1536
12929TIP3    H160278   1.555   1.588  15.548  0.8635  0.3197 -1.2533
12929TIP3    H260279   1.405   1.614  15.555  0.7288 -0.8849  2.0629
12930TIP3   OH260280   5.014   5.590   1.010  0.2074  0.2013 -0.0315
12930TIP3    H160281   4.966   5.520   1.055 -0.9021 -0.3535 -1.9270
12930TIP3    H260282   4.987   5.670   1.053  2.2602 -0.4889  2.8619
12931TIP3   OH260283   5.965   1.950   1.402 -0.5994  0.5050 -0.0369
12931TIP3    H160284   6.050   1.906   1.394 -0.2348  1.1142  0.4201
12931TIP3    H260285   5.906   1.897   1.349  0.1753  0.3761 -0.7880
12932TIP3   OH260286   4.736   3.280  16.966 -0.0319  0.0506  0.0722
12932TIP3    H160287   4.738   3.307  17.058 -0.4510  1.9680 -0.4449
12932TIP3    H260288   4.643   3.266  16.947  0.0234 -0.0242 -0.1483
12933TIP3   OH260289   6.761   5.708  13.033 -0.0224 -0.1892  0.5755
12933TIP3    H160290   6.807   5.649  12.973  0.4338  1.2183 -0.5007
12933TIP3    H260291   6.819   5.715  13.108  0.8591  0.4288 -0.1466
12934TIP3   OH260292   4.992   2.093   3.278  0.1013 -0.3665 -0.4147
12934TIP3    H160293   5.025   2.148   3.349 -0.0808  1.8079 -1.9493
12934TIP3    H260294   4.921   2.143   3.239  1.0411 -0.8780 -2.9689
12935TIP3   OH260295   5.903   4.843  13.322  0.1361 -0.0063  0.2228
12935TIP3    H160296   5.819   4.867  13.361 -0.1900  0.7429 -0.9095
12935TIP3    H260297   5.892   4.751  13.297 -0.0138 -0.1827  0.9100
12936TIP3   OH260298   5.394   1.188  14.904  0.9411 -0.1610  0.9524
12936TIP3    H160299   5.383   1.151  14.992  0.6331 -1.2317  0.4796
12936TIP3    H260300   5.463   1.136  14.864  0.6242 -0.1121  0.3317
12937TIP3   OH260301   4.510   6.707   2.422  0.0550 -0.7656 -0.2738
12937TIP3    H160302   4.464   6.761   2.358 -0.7667 -0.6600  0.3970
12937TIP3    H260303   4.519   6.763   2.499 -0.3502 -1.4075  0.2526
12938TIP3   OH260304   2.523   0.021  12.057  0.4967 -0.5097 -0.1374
12938TIP3    H160305   2.441   0.071  12.059  0.9036  0.2134 -1.0726
12938TIP3    H260306   2.496  -0.069  12.075 -0.0343  0.2338  3.6502
12939TIP3   OH260307   3.166   4.646  16.267 -0.0170  0.3987 -0.0269
12939TIP3    H160308   3.127   4.724  16.306  1.5566  1.3404 -0.2213
12939TIP3    H260309   3.196   4.594  16.342  1.3836  1.3401  0.1139
12940TIP3   OH260310   2.892   1.300   2.098 -0.0790  0.0972  0.1217
12940TIP3    H160311   2.796   1.297   2.104 -0.1362  0.4006 -0.6328
12940TIP3    H260312   2.911   1.285   2.006  0.5652  0.9503  0.1027
12941TIP3   OH260313   1.458   5.231   6.150  0.3239 -0.0085  0.2592
12941TIP3    H160314   1.540   5.278   6.134 -0.3060  1.2189  0.5199
12941TIP3    H260315   1.470   5.190   6.236  0.2550  1.1401  0.8392
12942TIP3   OH260316   5.360   3.096  13.202  0.3057 -0.3882  0.1403
12942TIP3    H160317   5.412   3.146  13.139 -1.2070 -0.4373 -1.2065
12942TIP3    H260318   5.346   3.011  13.160 -1.9336  0.0667 -0.1558
12943TIP3   OH260319   6.223   1.879  12.477  0.3015 -0.6423  0.0512
12943TIP3    H160320   6.194   1.821  12.548  1.4237 -0.1053  0.9918
12943TIP3    H260321   6.319   1.881  12.486  0.4550 -0.5079 -1.4539
12944TIP3   OH260322   0.364   4.082  13.831  0.0236 -0.2122 -0.6100
12944TIP3    H160323   0.284   4.093  13.779 -0.3249 -0.5155 -0.1370
12944TIP3    H260324   0.346   4.127  13.913 -0.2702 -1.6256  0.1303
12945TIP3   OH260325   0.825   5.734  12.839 -0.2900  0.3393 -0.1959
12945TIP3    H160326   0.882   5.744  12.763  0.3188 -0.0558  0.1910
12945TIP3    H260327   0.876   5.680  12.899 -0.6726  0.8231  0.5791
12946TIP3   OH260328   2.217   1.993   6.150 -0.1520 -0.0972 -0.1594
12946TIP3    H160329   2.152   1.956   6.209 -2.7237  2.2237 -1.3024
12946TIP3    H260330   2.174   1.996   6.065  1.1436  2.1723 -0.8330
12947TIP3   OH260331   2.324   4.729  12.321  0.2420  0.1305 -0.0513
12947TIP3    H160332   2.418   4.716  12.329  0.4017  0.1726 -1.5802
12947TIP3    H260333   2.308   4.816  12.357  1.0137  0.7032 -1.0475
12948TIP3   OH260334   2.592   5.938   1.403 -0.3586 -0.1557  0.1135
12948TIP3    H160335   2.575   6.017   1.454 -0.3944  0.3936 -0.7294
12948TIP3    H260336   2.623   5.874   1.468  0.4540  0.7877  0.6857
12949TIP3   OH260337   2.358   5.690   3.450 -0.3097 -0.1277  0.8050
12949TIP3    H160338   2.300   5.728   3.384  0.2506  0.3497  0.5818
12949TIP3    H260339   2.303   5.683   3.528 -0.8097 -0.1466  0.4551
12950TIP3   OH260340   5.225   2.774  13.603  0.5042  0.0788  0.6093
12950TIP3    H160341   5.225   2.688  13.561 -0.0383  0.2728  0.1945
12950TIP3    H260342   5.137   2.781  13.641  0.9228 -0.0133  1.6185
12951TIP3   OH260343   5.744   6.072   4.600  0.2212  0.4964 -0.3961
12951TIP3    H160344   5.799   6.111   4.668  2.0983  1.1112 -2.1407
12951TIP3    H260345   5.710   6.147   4.551 -0.0119  0.0551 -0.9149
12952TIP3   OH260346   4.234   5.781   3.239  0.5621 -0.0631  0.1122
12952TIP3    H160347   4.162   5.807   3.180 -1.1139 -1.0957  1.5888
12952TIP3    H260348   4.190   5.757   3.321  2.3482 -2.8975  0.3999
12953TIP3   OH260349   5.417   0.600  16.932  0.0258 -0.1799  0.0555
12953TIP3    H160350   5.434   0.659  17.005 -1.2876 -0.4018  0.5678
12953TIP3    H260351   5.461   0.641  16.858  0.0188  0.9031  0.6221
12954TIP3   OH260352   2.574   3.743  13.835 -0.4637  0.1434 -0.5381
12954TIP3    H160353   2.613   3.819  13.878  0.4243 -0.5771 -0.0346
12954TIP3    H260354   2.483   3.770  13.818  0.3344  2.0434 -2.2045
12955TIP3   OH260355   5.415   4.185   4.227 -0.3838  0.0488 -0.1761
12955TIP3    H160356   5.470   4.263   4.235 -0.2364  0.1095 -1.5368
12955TIP3    H260357   5.396   4.160   4.317  2.1679 -0.1999  0.3697
12956TIP3   OH260358   0.030   4.992   4.571 -0.3832  0.5619  0.5992
12956TIP3    H160359  -0.046   4.988   4.629  0.8845  1.2887  2.4061
12956TIP3    H260360   0.022   5.077   4.528 -0.2977  0.9126  1.2562
12957TIP3   OH260361   5.233   3.528   0.555  0.3601 -0.1077 -0.1685
12957TIP3    H160362   5.302   3.568   0.502 -0.4093 -1.1841 -2.1058
12957TIP3    H260363   5.278   3.463   0.608  0.8549 -0.8030 -1.4134
12958TIP3   OH260364   3.687   4.241  14.674  0.5672  0.2508  0.1193
12958TIP3    H160365   3.652   4.271  14.589  1.8305 -0.9425 -0.8694
12958TIP3    H260366   3.611   4.204  14.719  0.2573 -1.0908 -1.4270
12959TIP3   OH260367   0.546   6.649   5.588 -0.6361 -0.3099  0.0631
12959TIP3    H160368   0.640   6.665   5.600 -0.8817 -0.3558  2.8959
12959TIP3    H260369   0.505   6.732   5.611 -1.3605 -1.0639  1.6630
12960TIP3   OH260370   6.470   4.292  15.442 -0.1472  0.0304 -0.8149
12960TIP3    H160371   6.470   4.197  15.435 -0.0357  0.0591 -1.2012
12960TIP3    H260372   6.530   4.321  15.374 -0.4509  0.3957 -0.9259
12961TIP3   OH260373   6.294   1.133   5.591  0.0261 -0.3565  0.3441
12961TIP3    H160374   6.294   1.059   5.651  0.1346  0.8899  1.9377
12961TIP3    H260375   6.382   1.170   5.597 -0.1783  0.2141 -0.0065
12962TIP3   OH260376   0.212   0.102   5.143 -0.3653  0.5194 -0.0180
12962TIP3    H160377   0.207   0.112   5.239  0.2954 -0.7921  0.1601
12962TIP3    H260378   0.120   0.105   5.115 -0.7536 -1.3269  0.9144
12963TIP3   OH260379   4.171   4.553   2.716  0.3466 -0.2000 -0.5712
12963TIP3    H160380   4.195   4.466   2.683 -1.1828 -0.4098 -1.2118
12963TIP3    H260381   4.247   4.580   2.768  1.7162 -1.0168 -2.0355
12964TIP3   OH260382   4.649   3.055  15.028 -0.1400  0.2897  0.5149
12964TIP3    H160383   4.595   2.996  15.082  0.9686  0.5218  1.9615
12964TIP3    H260384   4.606   3.140  15.035 -1.9679 -0.3322 -1.8967
12965TIP3   OH260385   2.762   2.355   2.246 -0.3462  0.4762 -0.3975
12965TIP3    H160386   2.838   2.413   2.243 -0.4364  0.7354  1.3330
12965TIP3    H260387   2.723   2.363   2.159  2.3092 -0.6796 -1.8133
12966TIP3   OH260388   5.123   2.787   4.915  0.3169  0.0821 -0.0155
12966TIP3    H160389   5.118   2.843   4.837  4.0118 -0.1035 -0.5800
12966TIP3    H260390   5.058   2.719   4.900  0.1991  0.6358 -2.4877
12967TIP3   OH260391   6.303   2.201  13.401 -0.1897 -0.1650  0.2411
12967TIP3    H160392   6.258   2.267  13.453 -0.5824 -0.9943  0.9745
12967TIP3    H260393   6.235   2.162  13.347  0.4528  1.7410 -2.1227
12968TIP3   OH260394   3.318   1.244   0.434  0.6229 -0.6549 -0.6046
12968TIP3    H160395   3.360   1.323   0.469 -0.1310  0.6843 -2.5746
12968TIP3    H260396   3.251   1.277   0.374  0.3872 -2.8056 -1.6072
12969TIP3   OH260397   4.926   0.384  15.560  0.1044 -0.0196 -0.3387
12969TIP3    H160398   4.956   0.468  15.525  0.5765 -0.7644 -1.8274
12969TIP3    H260399   4.834   0.398  15.581  0.3072  1.0025 -0.0640
12970TIP3   OH260400   6.580   5.166  11.533  0.2603  0.3381 -0.0477
12970TIP3    H160401   6.524   5.189  11.607 -2.3078 -1.4425 -1.3114
12970TIP3    H260402   6.559   5.230  11.466  0.0057 -0.0922 -0.3864
12971TIP3   OH260403   3.417   6.828   2.049 -0.1053  0.3455 -0.1868
12971TIP3    H160404   3.322   6.821   2.044 -0.1541  1.7096 -1.9592
12971TIP3    H260405   3.450   6.768   1.981  0.3787 -0.7121  0.9252
12972TIP3   OH260406   0.235   0.981  14.061  0.3595  0.0194  0.2705
12972TIP3    H160407   0.247   0.931  14.142  1.7466 -2.1262 -1.1502
12972TIP3    H260408   0.324   0.999  14.031 -0.1283  2.1195 -0.0390
12973TIP3   OH260409   0.591   1.013   1.821  0.2822  0.3813 -0.0054
12973TIP3    H160410   0.609   1.016   1.727  1.5252 -0.3619  0.1863
12973TIP3    H260411   0.620   1.098   1.854 -2.0253  1.4473 -0.5650
12974TIP3   OH260412   3.068   3.578  12.974 -0.5356 -0.3386 -0.2647
12974TIP3    H160413   2.983   3.621  12.975 -0.9006 -0.9517  2.4209
12974TIP3    H260414   3.126   3.639  13.020  0.4185 -0.1472 -1.6436
12975TIP3   OH260415   2.279   5.928   0.148  0.2902 -0.4625 -0.9562
12975TIP3    H160416   2.374   5.935   0.147  0.5163 -2.5156  0.2637
12975TIP3    H260417   2.262   5.838   0.174 -2.0065  0.0966 -0.3003
12976TIP3   OH260418   5.115   3.866  15.180 -0.1951 -0.6921  0.1888
12976TIP3    H160419   5.061   3.941  15.156  1.6689  0.4834 -0.5444
12976TIP3    H260420   5.076   3.833  15.261 -1.0191  1.1280  0.5826
12977TIP3   OH260421   5.673   6.185   1.308 -0.6351 -0.5860  0.3676
12977TIP3    H160422   5.746   6.170   1.368 -0.1032 -1.5461 -0.4780
12977TIP3    H260423   5.705   6.251   1.247 -0.0637 -1.7168 -0.6060
12978TIP3   OH260424   1.816   1.767  15.302 -0.0556 -0.1083  0.4588
12978TIP3    H160425   1.828   1.672  15.292  1.9018  0.2268 -0.8891
12978TIP3    H260426   1.834   1.784  15.394  2.0358 -0.7832  0.2281
12979TIP3   OH260427   1.291   5.362   3.168  0.7277  0.1417 -0.6901
12979TIP3    H160428   1.254   5.374   3.081 -0.4358  0.8622 -0.1199
12979TIP3    H260429   1.354   5.434   3.178  0.6329  0.2421 -0.8209
12980TIP3   OH260430   6.704   3.910  15.892 -0.0824  0.0700 -0.1761
12980TIP3    H160431   6.723   3.897  15.799  0.1053 -0.0855 -0.1161
12980TIP3    H260432   6.611   3.890  15.900 -0.4309  1.4200 -0.5745
12981TIP3   OH260433   2.151   6.430   1.741 -0.6814  0.3336 -0.6107
12981TIP3    H160434   2.155   6.520   1.773 -1.4959  0.6951 -1.5062
12981TIP3    H260435   2.184   6.435   1.651 -1.9129 -0.0401 -1.0995
12982TIP3   OH260436   6.111   5.950  14.210 -0.4969  0.0167  0.1931
12982TIP3    H160437   6.060   6.026  14.183  1.4257  0.7361 -1.6770
12982TIP3    H260438   6.179   5.985  14.267  1.3061 -0.0010 -1.8568
12983TIP3   OH260439   0.260   3.346   3.192  0.2429 -0.2987 -0.6595
12983TIP3    H160440   0.280   3.386   3.277 -1.3038 -0.1647 -0.3306
12983TIP3    H260441   0.240   3.421   3.135  1.3237 -0.3842 -1.1841
12984TIP3   OH260442   5.897   2.900   5.300  0.2236  0.2112  0.5072
12984TIP3    H160443   5.833   2.879   5.368  0.1003  1.3663  0.7649
12984TIP3    H260444   5.870   2.986   5.268 -0.8280 -1.0264 -2.2707
12985TIP3   OH260445   3.343   4.584   2.755  0.2832  0.3795 -0.4235
12985TIP3    H160446   3.328   4.501   2.710 -0.2111  1.0268 -1.4877
12985TIP3    H260447   3.285   4.646   2.711  1.1327  1.4395 -0.0954
12986TIP3   OH260448   6.156   5.618  17.087  0.1822  0.1708 -0.8921
12986TIP3    H160449   6.107   5.542  17.057 -0.2455  0.2153 -0.3143
12986TIP3    H260450   6.226   5.581  17.141 -0.3635  0.2121 -0.1451
12987TIP3   OH260451   0.862   0.858   1.345  0.3255  0.3377  0.3342
12987TIP3    H160452   0.934   0.914   1.376 -0.5457  1.1238  0.9921
12987TIP3    H260453   0.862   0.870   1.250  0.6864  0.8008  0.3879
12988TIP3   OH260454   0.708   1.257   1.896 -0.4684 -0.0254  0.1144
12988TIP3    H160455   0.802   1.273   1.900 -0.3502 -0.8663  1.0897
12988TIP3    H260456   0.677   1.317   1.828  0.4250  1.8562  1.2677
12989TIP3   OH260457   2.443   1.791  15.423  0.2434 -0.3792  0.4174
12989TIP3    H160458   2.456   1.879  15.388 -2.1852  0.5901  1.6723
12989TIP3    H260459   2.392   1.746  15.355  0.7007 -0.5104  0.1606
12990TIP3   OH260460   3.612   5.852  13.550  0.6518  0.1527  0.1294
12990TIP3    H160461   3.701   5.859  13.515  0.2768  0.2048 -0.8538
12990TIP3    H260462   3.570   5.786  13.495  0.1812 -0.1147  0.8033
12991TIP3   OH260463   2.111   2.138  15.991  0.5610  0.4942  0.8837
12991TIP3    H160464   2.199   2.151  15.955  0.1791 -0.2032 -0.3707
12991TIP3    H260465   2.053   2.154  15.917 -0.2978 -0.2467  1.3834
12992TIP3   OH260466   3.001   2.821   2.792  0.0431 -0.2648  0.2509
12992TIP3    H160467   2.970   2.777   2.871  0.0722  0.6248  0.7753
12992TIP3    H260468   3.088   2.783   2.776 -0.2200 -0.8900  0.2834
12993TIP3   OH260469   4.088   3.366   1.401  0.4482  0.1288  0.5334
12993TIP3    H160470   4.146   3.311   1.453  0.9770  0.5791  0.4250
12993TIP3    H260471   4.003   3.321   1.404  0.5527 -0.0231  1.5061
12994TIP3   OH260472   3.115   4.105   1.205  0.3050  0.6126  0.3845
12994TIP3    H160473   3.119   4.182   1.149 -1.3185  0.1862 -0.3626
12994TIP3    H260474   3.066   4.134   1.282  0.7631  0.6459  0.6681
12995TIP3   OH260475   3.195   6.478  12.072  0.4509  0.1545  0.0876
12995TIP3    H160476   3.219   6.396  12.031  0.9127  0.5823 -0.5178
12995TIP3    H260477   3.250   6.544  12.029 -1.3444  1.0953 -0.8971
12996TIP3   OH260478   3.155   4.005  16.042 -0.3973 -0.6092 -0.3315
12996TIP3    H160479   3.198   3.927  16.076 -0.0672 -0.0805  0.4991
12996TIP3    H260480   3.211   4.033  15.969 -0.6772 -1.3054 -0.8173
12997TIP3   OH260481   4.910   4.526   5.669  0.1600 -0.1225  0.0746
12997TIP3    H160482   4.934   4.452   5.724  1.6547  0.6552  0.5126
12997TIP3    H260483   4.888   4.595   5.731 -3.0196 -0.6579 -0.2919
12998TIP3   OH260484   5.707   2.973  16.348  0.0929 -0.7494 -0.4424
12998TIP3    H160485   5.699   3.006  16.259  0.8687  0.0059 -0.2460
12998TIP3    H260486   5.801   2.956  16.359  0.1776  0.2675  0.6001
12999TIP3   OH260487   3.234   4.304   3.523 -0.8089  0.1675 -0.0628
12999TIP3    H160488   3.315   4.354   3.513 -0.5994  0.3664  2.1725
12999TIP3    H260489   3.253   4.242   3.593 -2.4512 -0.0779  0.1959
13000TIP3   OH260490   1.955   6.231   0.873  0.3087 -0.5856  0.0336
13000TIP3    H160491   1.873   6.239   0.824  0.6443  2.2383 -0.2186
13000TIP3    H260492   1.928   6.208   0.962 -0.7025 -0.2757 -0.1822
13001TIP3   OH260493   5.391   2.759  11.696  0.0004 -0.5595  0.1161
13001TIP3    H160494   5.372   2.668  11.672 -0.8980 -0.2800 -0.2562
13001TIP3    H260495   5.485   2.768  11.681  0.1229 -1.4676  0.2892
13002TIP3   OH260496   0.944   0.818  13.752 -0.5430  0.3642 -0.3767
13002TIP3    H160497   1.025   0.810  13.803 -1.2827 -1.2854  0.6077
13002TIP3    H260498   0.938   0.912  13.732  0.8678  0.7366  0.7517
13003TIP3   OH260499   0.899   1.874  15.969 -0.2611 -0.0207  0.3956
13003TIP3    H160500   0.872   1.833  16.052 -0.1327  0.7483  0.8245
13003TIP3    H260501   0.994   1.861  15.966 -0.2420  0.0998  0.4561
13004TIP3   OH260502   1.039   6.784  14.596 -0.1108  0.2428  0.9865
13004TIP3    H160503   1.070   6.698  14.625 -0.9695  0.0626  1.4016
13004TIP3    H260504   1.022   6.773  14.503 -0.1455 -0.0150  1.0221
13005TIP3   OH260505   3.194   3.346   1.507 -0.7156 -0.0974  0.0669
13005TIP3    H160506   3.214   3.264   1.552 -0.9479 -0.5093 -0.5772
13005TIP3    H260507   3.274   3.399   1.517 -0.4990 -0.4665  0.3156
13006TIP3   OH260508   2.376   0.722  12.113  0.0987 -0.0995  0.2292
13006TIP3    H160509   2.362   0.649  12.053 -1.1025  0.0286  0.3212
13006TIP3    H260510   2.330   0.696  12.193 -0.3835  0.7644  0.2462
13007TIP3   OH260511   2.689   3.275   1.349  0.3477  0.0341  0.4855
13007TIP3    H160512   2.748   3.293   1.422 -1.3639  1.9163  1.5053
13007TIP3    H260513   2.732   3.205   1.299  2.8776  0.6122  1.7397
13008TIP3   OH260514   2.967   0.737   5.923  0.3948  0.4422  0.5072
13008TIP3    H160515   3.003   0.716   5.836 -0.2538 -0.3727  0.4228
13008TIP3    H260516   2.961   0.832   5.923  1.9802  0.5837  0.3055
13009TIP3   OH260517   4.072   0.794  16.958  0.3284 -0.3641 -0.1253
13009TIP3    H160518   4.102   0.875  16.997 -0.2001  0.0804 -0.6263
13009TIP3    H260519   4.081   0.808  16.864  0.6940 -1.0693 -0.2033
13010TIP3   OH260520   4.879   2.790   3.031 -0.3032  0.3478  0.7308
13010TIP3    H160521   4.901   2.775   3.123  0.9499  0.3411  0.4542
13010TIP3    H260522   4.886   2.704   2.991 -0.7384  0.3699  0.6104
13011TIP3   OH260523   0.296   0.579  13.625 -0.2653 -0.2922 -0.4611
13011TIP3    H160524   0.241   0.605  13.551 -2.9353 -2.3628  0.6389
13011TIP3    H260525   0.354   0.511  13.589  0.1510  0.3926 -1.1324
13012TIP3   OH260526   1.375   1.235  13.324  0.3504  0.3724  0.3177
13012TIP3    H160527   1.388   1.278  13.240  2.3095  0.3034  0.5463
13012TIP3    H260528   1.393   1.303  13.389 -2.2382  0.7521  0.7749
13013TIP3   OH260529   6.548   5.023  12.747 -0.3406  0.6066 -0.2258
13013TIP3    H160530   6.617   4.974  12.792 -0.1438  0.6411 -0.4827
13013TIP3    H260531   6.595   5.075  12.682 -0.6081  0.6527 -0.3845
13014TIP3   OH260532   1.816   2.105   1.141  0.0939 -0.0786 -0.1073
13014TIP3    H160533   1.878   2.033   1.150 -0.2751 -0.3685  0.1896
13014TIP3    H260534   1.752   2.090   1.211  0.0142  0.5410 -0.0378
13015TIP3   OH260535   6.808   3.877   0.537 -0.3481  0.7819 -0.1663
13015TIP3    H160536   6.867   3.801   0.536  1.0977  1.8389  0.9236
13015TIP3    H260537   6.858   3.947   0.496 -1.2996  1.4117 -0.2779
13016TIP3   OH260538   1.527   4.468   3.338  1.0351  0.4110 -0.0351
13016TIP3    H160539   1.435   4.452   3.317  0.9595 -0.8572  1.1788
13016TIP3    H260540   1.525   4.540   3.401  0.8208 -0.0604  0.5017
13017TIP3   OH260541   3.582   4.524   3.983 -0.5445  0.2368  0.1969
13017TIP3    H160542   3.494   4.488   3.973 -0.7001  0.2821  1.3168
13017TIP3    H260543   3.575   4.587   4.054 -0.1833  2.2035 -1.4131
13018TIP3   OH260544   6.127   3.296   3.439  0.5297 -0.4421  0.0584
13018TIP3    H160545   6.100   3.204   3.438  2.2122 -0.9728 -1.5780
13018TIP3    H260546   6.115   3.323   3.530 -3.2810 -1.1877 -0.0363
13019TIP3   OH260547   2.050   3.305  13.200  0.2208  0.1620  0.4638
13019TIP3    H160548   1.967   3.347  13.224 -0.8091  0.6074 -3.3022
13019TIP3    H260549   2.116   3.373  13.215 -0.4658  0.7486  0.9348
13020TIP3   OH260550   3.442   5.727   1.166  0.2855 -0.0367 -0.5047
13020TIP3    H160551   3.408   5.723   1.077  2.4167 -0.6569 -1.3525
13020TIP3    H260552   3.387   5.667   1.216 -1.6074  1.1094 -1.1115
13021TIP3   OH260553   1.100   2.296   4.606  0.2759 -0.6052 -0.2907
13021TIP3    H160554   1.076   2.377   4.650  0.4013  0.2514 -1.7310
13021TIP3    H260555   1.095   2.229   4.674 -0.8050  0.4417  0.7036
13022TIP3   OH260556   0.603   5.744  14.019  0.2880 -0.1747 -0.3528
13022TIP3    H160557   0.587   5.726  14.112 -1.7357  2.2827 -0.1062
13022TIP3    H260558   0.685   5.700  14.000  0.9859 -0.4404  2.7139
13023TIP3   OH260559   2.024   4.358   3.790 -0.1626 -0.9886 -0.0601
13023TIP3    H160560   1.937   4.319   3.804 -0.5204  0.0067  0.6452
13023TIP3    H260561   2.025   4.382   3.698 -0.7518 -0.7785 -0.0202
13024TIP3   OH260562   0.857   6.589  12.877  0.3370  0.5984  0.3423
13024TIP3    H160563   0.947   6.557  12.886  0.1688 -0.0403 -0.1734
13024TIP3    H260564   0.817   6.575  12.962  0.8635  1.3463  0.7266
13025TIP3   OH260565   5.203   4.262  12.725 -0.2565  0.6791 -0.3467
13025TIP3    H160566   5.175   4.304  12.806 -1.4185  1.6700 -1.2156
13025TIP3    H260567   5.274   4.317  12.692  0.8784 -0.2587  0.4407
13026TIP3   OH260568   1.232   1.976  16.076 -0.1478 -0.2728  0.4274
13026TIP3    H160569   1.208   1.892  16.115  1.4044 -0.5325  0.8911
13026TIP3    H260570   1.193   2.042  16.134 -0.3760 -0.6648  0.7223
13027TIP3   OH260571   4.998   1.949  13.126 -0.1478  0.0471  0.0474
13027TIP3    H160572   5.090   1.931  13.104  0.0480 -1.4521  1.8246
13027TIP3    H260573   4.998   1.958  13.221 -1.4707  2.6565 -0.0909
13028TIP3   OH260574   0.115   6.000  13.250 -0.5190 -0.4933  0.8817
13028TIP3    H160575   0.118   5.952  13.167  0.8338  0.8873  0.0814
13028TIP3    H260576   0.170   5.948  13.309 -1.0375 -1.1947  0.7596
13029TIP3   OH260577   2.378   1.680   1.941  0.3275 -0.2364 -0.2453
13029TIP3    H160578   2.347   1.616   1.877 -2.4182  0.3914  0.3190
13029TIP3    H260579   2.394   1.759   1.891 -0.4530 -0.1535 -0.3803
13030TIP3   OH260580   2.369   0.830   3.274 -0.5781  0.0572 -0.6981
13030TIP3    H160581   2.430   0.759   3.295  1.9444  1.9881 -0.9755
13030TIP3    H260582   2.363   0.881   3.354 -2.6692 -0.6037 -0.3840
13031TIP3   OH260583   5.849   0.314   4.485 -0.2648 -0.3688 -0.3978
13031TIP3    H160584   5.787   0.355   4.425 -0.3755 -1.8069 -1.3155
13031TIP3    H260585   5.912   0.270   4.427  0.4625 -0.5863  0.5381
13032TIP3   OH260586   4.399   4.304   3.524 -0.0316 -0.0227 -0.2155
13032TIP3    H160587   4.313   4.263   3.511 -0.5136  0.1854  1.9487
13032TIP3    H260588   4.394   4.343   3.611  2.5683 -0.7687  0.3463
13033TIP3   OH260589   2.252   4.884   5.238 -0.2636 -0.9907  0.9389
13033TIP3    H160590   2.247   4.843   5.324 -2.6805  0.1279  1.4239
13033TIP3    H260591   2.328   4.941   5.242  0.7279 -2.3076  1.6517
13034TIP3   OH260592   3.897   4.329  12.734 -0.3141  0.0434 -0.5098
13034TIP3    H160593   3.937   4.244  12.747  0.5523  0.1985 -1.9334
13034TIP3    H260594   3.903   4.345  12.639  0.9432  2.3243 -0.1353
13035TIP3   OH260595   0.161   1.485   4.163  0.1861 -0.4774  0.7039
13035TIP3    H160596   0.104   1.559   4.184  0.1983 -0.2314 -0.0984
13035TIP3    H260597   0.129   1.453   4.079 -0.9114 -2.4606  1.7932
13036TIP3   OH260598   1.526   4.658  16.288 -0.4914  0.3993 -0.4017
13036TIP3    H160599   1.614   4.667  16.326 -0.3940  1.4861 -0.8641
13036TIP3    H260600   1.536   4.589  16.222 -0.2344 -0.2049  0.2496
13037TIP3   OH260601   0.520   5.406   5.623  0.1010 -0.0968 -0.6201
13037TIP3    H160602   0.521   5.426   5.716  0.6327 -1.0294 -0.4114
13037TIP3    H260603   0.442   5.450   5.589  1.7363  3.2680 -0.4414
13038TIP3   OH260604   3.927   0.003   1.252  0.5916 -0.4102  0.5799
13038TIP3    H160605   3.841   0.043   1.239  0.0693 -1.8173 -0.6441
13038TIP3    H260606   3.947   0.019   1.344 -0.5909  0.6654  0.6866
13039TIP3   OH260607   4.188   6.416   4.368  0.3411 -0.1048 -0.2955
13039TIP3    H160608   4.255   6.350   4.387  0.0749  0.1222  1.5427
13039TIP3    H260609   4.236   6.489   4.329  0.6673 -1.2415 -2.1979
13040TIP3   OH260610   2.422   6.284   3.937 -0.0483  0.2936  0.1490
13040TIP3    H160611   2.480   6.360   3.931  2.7380 -1.5796  1.0078
13040TIP3    H260612   2.457   6.222   3.872 -1.0157 -0.9562  0.7746
13041TIP3   OH260613   0.419   1.072   1.542 -0.9714  0.2781  0.3182
13041TIP3    H160614   0.343   1.042   1.492 -0.4161  2.2836 -1.9416
13041TIP3    H260615   0.389   1.149   1.589 -0.7954 -0.0311  0.9513
13042TIP3   OH260616   2.874   1.149  13.850  0.2924 -0.2063  0.4145
13042TIP3    H160617   2.933   1.076  13.832  1.4565  0.7233  0.3081
13042TIP3    H260618   2.885   1.166  13.944  2.7666  2.0181 -0.1363
13043TIP3   OH260619   6.428   0.919   4.846  0.2659  0.6772 -0.0821
13043TIP3    H160620   6.447   0.970   4.925 -1.0252  0.1356  0.6043
13043TIP3    H260621   6.463   0.832   4.865  0.9844  0.8519 -0.5835
13044TIP3   OH260622   3.857   2.383   5.712  0.1864  0.4506 -0.2879
13044TIP3    H160623   3.907   2.445   5.765  1.1551  0.4163 -1.1276
13044TIP3    H260624   3.832   2.432   5.634  2.2984 -0.5385 -1.7097
13045TIP3   OH260625   1.627   0.482   1.159 -0.4578  0.1751  0.0952
13045TIP3    H160626   1.606   0.439   1.076 -1.1445  0.6746  0.0009
13045TIP3    H260627   1.678   0.559   1.134 -0.8861  0.4656  0.1179
13046TIP3   OH260628   2.709   3.705  14.194  0.1142  0.6176  0.0809
13046TIP3    H160629   2.749   3.659  14.119  0.7758  1.6277 -0.1956
13046TIP3    H260630   2.633   3.650  14.216 -0.1058  0.2861 -1.3312
13047TIP3   OH260631   3.415   3.217  11.946  0.2053 -0.7701 -0.0391
13047TIP3    H160632   3.442   3.146  12.005  1.5450 -0.2900 -0.0405
13047TIP3    H260633   3.472   3.208  11.870  0.0724  0.0388 -0.2424
13048TIP3   OH260634   1.913   4.047  12.156 -0.1508  0.3272 -0.0087
13048TIP3    H160635   1.858   3.970  12.143 -0.1471  0.4624 -0.8615
13048TIP3    H260636   2.001   4.012  12.169  0.2621  0.2299 -2.6181
13049TIP3   OH260637   5.586   0.678   3.109 -0.1880 -0.3189 -0.4681
13049TIP3    H160638   5.668   0.650   3.149 -0.1032 -1.2027 -1.2323
13049TIP3    H260639   5.571   0.766   3.143  0.8696 -0.3079 -0.0126
13050TIP3   OH260640   3.510   6.136   0.355  0.1284 -0.2199 -0.1923
13050TIP3    H160641   3.581   6.197   0.336  0.0907 -0.2327 -0.3687
13050TIP3    H260642   3.470   6.170   0.436  0.7028 -0.5390  0.2318
13051TIP3   OH260643   3.220   6.623   1.227  0.3298  0.1267 -0.0801
13051TIP3    H160644   3.217   6.532   1.259 -0.6496  0.2519  0.2334
13051TIP3    H260645   3.266   6.670   1.296 -2.7045  0.5971  1.8151
13052TIP3   OH260646   0.719   0.867  12.753  0.6931 -0.2626  0.0996
13052TIP3    H160647   0.634   0.877  12.795 -0.4934 -0.3564 -2.1058
13052TIP3    H260648   0.774   0.826  12.819 -0.6507  0.7573  1.9380
13053TIP3   OH260649   5.244   1.483  14.320  0.4995 -0.3466  0.3154
13053TIP3    H160650   5.306   1.544  14.361 -0.9054  2.0850 -0.9588
13053TIP3    H260651   5.293   1.401  14.313  2.9477  0.9458  0.9824
13054TIP3   OH260652   5.194   5.559   3.658 -0.2530 -0.5477  0.2286
13054TIP3    H160653   5.169   5.603   3.740 -0.4025 -1.6524  0.7867
13054TIP3    H260654   5.287   5.542   3.668 -0.1036  0.0044 -0.1699
13055TIP3   OH260655   6.809   1.823   4.946  0.5882  0.6036  0.3339
13055TIP3    H160656   6.724   1.823   4.989  0.9390  0.2051  1.0640
13055TIP3    H260657   6.851   1.743   4.977  0.8066  0.2420 -0.8768
13056TIP3   OH260658   2.414   3.375  16.567 -0.4135 -0.1029  0.3123
13056TIP3    H160659   2.509   3.360  16.567 -0.5162 -0.7728 -0.0585
13056TIP3    H260660   2.405   3.469  16.551  0.1806 -0.1027 -0.0441
13057TIP3   OH260661   2.710   5.078   1.584 -0.0745 -0.1264  0.3586
13057TIP3    H160662   2.772   5.024   1.536 -1.0326  0.0817 -1.1709
13057TIP3    H260663   2.635   5.021   1.601 -0.7646  0.4637 -0.5767
13058TIP3   OH260664   0.768   5.976  13.778  0.2278 -0.3143 -0.0772
13058TIP3    H160665   0.695   5.918  13.756  0.6854 -1.5864  1.5996
13058TIP3    H260666   0.728   6.062  13.791 -1.0176 -1.0473  1.0899
13059TIP3   OH260667   1.374   1.136  10.604  0.6382  0.5588 -0.0284
13059TIP3    H160668   1.467   1.116  10.596  0.5742  0.7574 -1.5014
13059TIP3    H260669   1.356   1.197  10.532 -1.3143 -2.0500 -1.9330
13060TIP3   OH260670   0.486   1.492  12.464  0.0146  0.0504 -0.0021
13060TIP3    H160671   0.502   1.535  12.380  0.1332 -0.2114 -0.1153
13060TIP3    H260672   0.504   1.400  12.447  0.2338  0.0248  0.3610
13061TIP3   OH260673   4.204   5.103   3.292  0.7514 -0.2048  0.5678
13061TIP3    H160674   4.297   5.123   3.280  0.3794  1.2741 -0.1380
13061TIP3    H260675   4.172   5.087   3.203  0.7090 -2.7660  0.9693
13062TIP3   OH260676   4.490   4.959   4.359  0.5914 -1.2218  0.2970
13062TIP3    H160677   4.425   4.888   4.356 -0.3417 -0.3977  0.5943
13062TIP3    H260678   4.448   5.028   4.409  1.2943 -0.2526 -0.4059
13063TIP3   OH260679   1.093   2.444   2.612  0.2869  0.4087 -0.4726
13063TIP3    H160680   1.112   2.461   2.705 -1.3361  0.6437 -0.1551
13063TIP3    H260681   1.034   2.516   2.587  0.2731  0.0341 -1.5367
13064TIP3   OH260682   4.760   3.721   0.265 -0.1335  0.2602 -0.1708
13064TIP3    H160683   4.739   3.652   0.201 -1.4701 -0.2282  0.7616
13064TIP3    H260684   4.683   3.726   0.321  1.0246  0.6272  1.4651
13065TIP3   OH260685   3.587   2.900  15.505 -0.5100  0.1713 -0.6275
13065TIP3    H160686   3.659   2.845  15.473 -0.5082 -1.2219  1.6094
13065TIP3    H260687   3.615   2.990  15.485  0.4753 -0.4939 -2.4131
13066TIP3   OH260688   3.498   2.176  13.984  0.1037 -0.0033 -0.6725
13066TIP3    H160689   3.586   2.167  13.948  0.5344 -0.3527  0.4383
13066TIP3    H260690   3.490   2.104  14.046 -1.3054 -0.5230 -1.4056
13067TIP3   OH260691   2.065   5.214  13.899 -0.1360 -0.0810  0.0443
13067TIP3    H160692   2.156   5.186  13.908 -0.3012 -0.3228  1.1108
13067TIP3    H260693   2.014   5.134  13.914 -0.5754  0.4503  1.5115
13068TIP3   OH260694   5.083   3.168   0.929  0.5475  0.2637 -0.1255
13068TIP3    H160695   5.035   3.085   0.935  0.6650  0.2527  0.9586
13068TIP3    H260696   5.016   3.235   0.920  0.4683  0.0282 -1.4353
13069TIP3   OH260697   1.259   1.608  16.994  0.3541 -0.0002 -0.1190
13069TIP3    H160698   1.337   1.616  17.048 -0.5269 -0.5223  1.2813
13069TIP3    H260699   1.282   1.651  16.912  1.2996  1.9661  1.1217
13070TIP3   OH260700   0.934   4.645  16.785  0.0382 -0.5259  0.2458
13070TIP3    H160701   1.001   4.593  16.829 -0.4850 -0.6616  0.9073
13070TIP3    H260702   0.907   4.591  16.710  1.0932 -0.1946 -0.3920
13071TIP3   OH260703   3.920   1.411   4.242  0.5757  0.2054 -0.2229
13071TIP3    H160704   3.926   1.502   4.213  2.3102 -0.4793 -2.2620
13071TIP3    H260705   3.995   1.399   4.300  1.3794 -0.3349 -1.3341
13072TIP3   OH260706   6.287   0.472  15.718  0.1758 -0.3305 -0.0703
13072TIP3    H160707   6.230   0.403  15.685  0.0248 -1.2334  1.9090
13072TIP3    H260708   6.374   0.432  15.720  0.3261 -0.0102 -0.1539
13073TIP3   OH260709   2.765   2.813  16.638 -0.0936  0.3581  0.3261
13073TIP3    H160710   2.685   2.780  16.598 -0.6452  1.2363  0.6621
13073TIP3    H260711   2.744   2.904  16.661  0.6389  0.2746  1.3944
13074TIP3   OH260712   1.699   5.950   4.986  0.4887  0.0378  0.3186
13074TIP3    H160713   1.635   6.008   5.029  0.9202 -0.2113  1.3288
13074TIP3    H260714   1.751   6.008   4.931  0.8418  0.6083  1.2328
13075TIP3   OH260715   1.402   2.336   1.100  0.3565  0.6441 -0.3811
13075TIP3    H160716   1.394   2.241   1.087  0.7365  0.4230  0.8444
13075TIP3    H260717   1.317   2.371   1.076  0.0331 -0.0833 -0.3140
13076TIP3   OH260718   4.743   2.902  12.320 -0.5024  0.5000  0.1780
13076TIP3    H160719   4.828   2.944  12.309 -0.0124  0.3544  2.8090
13076TIP3    H260720   4.724   2.863  12.234  2.2195  0.2690 -0.4110
13077TIP3   OH260721   5.579   0.287  15.901 -0.5555  0.0330 -0.0315
13077TIP3    H160722   5.523   0.351  15.859 -3.1416 -3.9046 -3.3995
13077TIP3    H260723   5.649   0.270  15.838  0.1788 -0.4044  0.8574
13078TIP3   OH260724   0.778   3.682   4.244  0.3194 -0.3343  0.8548
13078TIP3    H160725   0.759   3.638   4.327  0.8247 -1.9598  0.1649
13078TIP3    H260726   0.724   3.636   4.180  0.1780  0.6896  0.2192
13079TIP3   OH260727   6.350   6.826  16.663 -0.1017  0.9441 -0.0187
13079TIP3    H160728   6.417   6.870  16.716 -1.9889 -0.5529  4.0333
13079TIP3    H260729   6.270   6.874  16.681 -1.4150 -1.5273  1.2328
13080TIP3   OH260730   0.580   6.210   3.664  0.6137 -0.8323  0.0262
13080TIP3    H160731   0.653   6.150   3.683  0.6164 -0.5918  0.8182
13080TIP3    H260732   0.565   6.255   3.747 -0.5008 -0.9424 -0.1082
13081TIP3   OH260733   3.786   3.874   5.137 -0.7563 -0.3963  0.6729
13081TIP3    H160734   3.854   3.907   5.195  0.9714 -0.5410 -1.1791
13081TIP3    H260735   3.828   3.804   5.087 -1.4524  1.1122 -2.2366
13082TIP3   OH260736   6.701   2.799  12.620  0.3375  0.2920  0.5094
13082TIP3    H160737   6.767   2.809  12.689 -0.8970  0.9312  1.6563
13082TIP3    H260738   6.699   2.885  12.577  0.1489  0.3330  0.5956
13083TIP3   OH260739   3.276   6.239   3.469  0.0249 -0.1979  0.1825
13083TIP3    H160740   3.340   6.301   3.502 -0.0844 -0.3182  0.6292
13083TIP3    H260741   3.191   6.280   3.486 -0.0115  0.3563 -1.1965
13084TIP3   OH260742   6.149   5.925  13.136 -0.0841 -0.7201  0.2501
13084TIP3    H160743   6.230   5.884  13.167  1.3760  1.6191 -0.2442
13084TIP3    H260744   6.102   5.949  13.216  1.5352  1.2543  0.6776
13085TIP3   OH260745   3.957   3.129   4.259  0.9786  0.5026  0.4194
13085TIP3    H160746   3.921   3.112   4.346 -0.9240 -1.0648 -0.5884
13085TIP3    H260747   3.881   3.134   4.202  2.1159  2.6048 -1.0420
13086TIP3   OH260748   1.495   6.006   4.113 -0.0239  0.3582  0.1282
13086TIP3    H160749   1.415   5.985   4.066  0.2796  0.6368 -0.5289
13086TIP3    H260750   1.503   5.936   4.178 -0.6671  0.1941  0.0413
13087TIP3   OH260751   4.519   1.760   1.333  0.2150 -0.3550 -0.6902
13087TIP3    H160752   4.491   1.848   1.358  2.5526  0.6929 -1.4411
13087TIP3    H260753   4.613   1.759   1.351  0.5518 -2.1532 -2.2207
13088TIP3   OH260754   4.589   5.512  14.375 -0.0075  0.1759  0.5355
13088TIP3    H160755   4.557   5.422  14.378  0.8972 -0.2859 -1.4269
13088TIP3    H260756   4.534   5.555  14.309  0.9348  0.4073 -0.1332
13089TIP3   OH260757   3.203   0.071  17.094  0.1790  0.4671 -0.0881
13089TIP3    H160758   3.158   0.116  17.022 -1.0881  2.0146  1.5859
13089TIP3    H260759   3.293   0.103  17.090  0.2175  0.2652 -1.1694
13090TIP3   OH260760   1.716   0.878   6.620  0.3869  0.3889  0.7128
13090TIP3    H160761   1.694   0.796   6.576 -2.4281  1.0234  0.7477
13090TIP3    H260762   1.744   0.937   6.549  0.9644 -0.1246  0.5043
13091TIP3   OH260763   0.709   2.359  10.370  0.0891  0.3686  1.1829
13091TIP3    H160764   0.698   2.453  10.389  1.2432  0.3081  2.2930
13091TIP3    H260765   0.803   2.346  10.367 -0.0484 -0.5111 -0.4243
13092TIP3   OH260766   3.670   5.239   1.255 -0.0026 -0.2734  0.0495
13092TIP3    H160767   3.725   5.316   1.266 -0.2158 -0.0052 -0.7356
13092TIP3    H260768   3.585   5.265   1.291  0.3337 -0.6537  1.1665
13093TIP3   OH260769   5.767   3.452  16.559  0.3740  0.1100  0.3171
13093TIP3    H160770   5.771   3.532  16.613 -1.8260 -0.1772  1.0111
13093TIP3    H260771   5.721   3.389  16.614  1.5592 -1.4977 -0.4522
13094TIP3   OH260772   5.717   4.041  15.312 -0.5413 -0.5704 -0.1269
13094TIP3    H160773   5.718   4.134  15.335 -0.5859 -0.0319 -2.0631
13094TIP3    H260774   5.624   4.019  15.307 -0.5252 -0.9430  1.1022
13095TIP3   OH260775   6.503   3.603  16.014  0.7704 -0.4414 -0.2131
13095TIP3    H160776   6.426   3.658  15.999  0.5610  0.5663  3.5567
13095TIP3    H260777   6.567   3.662  16.053  2.1053 -2.0377  0.1148
13096TIP3   OH260778   1.791   5.109   0.683  0.0181  0.5075 -0.3853
13096TIP3    H160779   1.877   5.151   0.674  0.1089 -0.0669 -2.9668
13096TIP3    H260780   1.729   5.175   0.651 -0.6005  1.0117  1.6957
13097TIP3   OH260781   4.234   1.772  13.570 -0.0442  0.0407 -0.1888
13097TIP3    H160782   4.251   1.824  13.491  2.0002 -0.1434  0.0789
13097TIP3    H260783   4.148   1.733  13.555  0.4803 -0.3424 -2.5230
13098TIP3   OH260784   6.623   5.873   1.574 -0.2673 -0.0910  0.0586
13098TIP3    H160785   6.553   5.810   1.588 -1.6954  1.2278 -0.8038
13098TIP3    H260786   6.580   5.949   1.535  1.6405  0.7907 -0.4894
13099TIP3   OH260787   4.441   5.273  12.977 -0.3372 -0.1624 -0.1578
13099TIP3    H160788   4.510   5.299  12.917  2.1162  1.0119  2.9259
13099TIP3    H260789   4.403   5.355  13.008 -0.7580 -0.6807  0.7554
13100TIP3   OH260790   2.532   0.791  16.203 -0.1706 -0.0349 -0.0404
13100TIP3    H160791   2.494   0.857  16.261  0.2821  1.4259 -1.3362
13100TIP3    H260792   2.531   0.832  16.117  3.4137 -0.2985 -0.3381
13101TIP3   OH260793   5.354   0.753  15.296  0.0204 -0.1646 -0.0920
13101TIP3    H160794   5.298   0.713  15.230 -0.6559  0.2165  0.2311
13101TIP3    H260795   5.295   0.811  15.345  1.0705  1.6511 -0.8857
13102TIP3   OH260796   5.140   4.157  14.303 -0.1753 -0.5295  0.1964
13102TIP3    H160797   5.165   4.147  14.395  0.1575 -0.6524  0.0954
13102TIP3    H260798   5.217   4.126  14.255 -0.6026 -1.0937 -0.1260
13103TIP3   OH260799   0.979   4.255   4.505 -0.4165  0.3865 -0.4236
13103TIP3    H160800   0.941   4.168   4.506  1.6889 -0.6196 -0.9645
13103TIP3    H260801   1.042   4.253   4.432  1.5559  1.4705  1.1366
13104TIP3   OH260802   5.699   0.995   2.002 -0.1878  0.1754 -0.3507
13104TIP3    H160803   5.662   0.972   1.917  0.5603 -1.6472 -0.2313
13104TIP3    H260804   5.645   0.946   2.065  0.9301 -0.6355 -0.0029
13105TIP3   OH260805   0.354   6.104  14.088  0.3592  0.0480  0.1221
13105TIP3    H160806   0.315   6.110  14.176 -2.2528  2.7518 -1.0421
13105TIP3    H260807   0.360   6.195  14.059  1.1382 -0.7819 -2.5307
13106TIP3   OH260808   5.206   5.901   4.532  0.1353  0.3151  0.0967
13106TIP3    H160809   5.223   5.831   4.469 -1.0862 -1.7281  1.9075
13106TIP3    H260810   5.110   5.903   4.540  0.2468  0.7720  1.6054
13107TIP3   OH260811   3.192   4.551  11.915 -0.0714  0.2302 -0.4673
13107TIP3    H160812   3.216   4.644  11.915 -1.4771  0.6183 -0.0623
13107TIP3    H260813   3.157   4.535  11.828 -0.2074  0.1818 -0.4033
13108TIP3   OH260814   4.636   0.548   0.217  0.1864  0.2563  0.3263
13108TIP3    H160815   4.731   0.559   0.223 -0.0325  1.3515  2.2120
13108TIP3    H260816   4.605   0.625   0.170  0.1082  0.5526  0.8583
13109TIP3   OH260817   4.086   6.025   5.150 -0.1371  0.5128  0.2109
13109TIP3    H160818   4.043   6.084   5.212  1.4174  0.0931  1.7757
13109TIP3    H260819   4.178   6.050   5.151  0.3917 -1.2374  0.1482
13110TIP3   OH260820   5.777   0.436   5.077  0.2730 -0.1909  0.7834
13110TIP3    H160821   5.839   0.508   5.066  0.1657 -0.4370 -2.3754
13110TIP3    H260822   5.692   0.478   5.089  0.5248  0.1673  1.3420
13111TIP3   OH260823   5.938   5.909  12.178 -0.0675 -0.0339 -0.3107
13111TIP3    H160824   5.850   5.933  12.205 -0.7909 -0.5516 -2.0333
13111TIP3    H260825   5.985   5.992  12.170 -0.0444  0.1806  1.6186
13112TIP3   OH260826   2.828   0.476  10.563 -0.2219  0.1456 -0.5893
13112TIP3    H160827   2.915   0.484  10.601  0.3853  0.1201 -1.9209
13112TIP3    H260828   2.839   0.414  10.491 -1.6341 -0.9089  0.0461
13113TIP3   OH260829   5.001   2.945  14.969 -0.2735 -0.2205  0.6085
13113TIP3    H160830   5.065   2.912  15.033 -0.5136  0.0273  0.9863
13113TIP3    H260831   4.916   2.926  15.009 -0.4203  0.2621  0.5353
13114TIP3   OH260832   6.226   5.392   4.313 -0.5632 -0.0720 -0.0831
13114TIP3    H160833   6.242   5.485   4.299 -0.9643  0.2584  1.4327
13114TIP3    H260834   6.135   5.388   4.343 -0.5944 -0.9710 -0.2734
13115TIP3   OH260835   5.409   6.331   4.532  0.0772  0.3661 -0.0101
13115TIP3    H160836   5.480   6.378   4.489  0.9567 -0.9895 -0.0962
13115TIP3    H260837   5.431   6.239   4.521 -1.3926 -0.0781  0.4923
13116TIP3   OH260838   1.768   3.615  13.631  0.3435  0.3473  0.3536
13116TIP3    H160839   1.825   3.541  13.610 -0.6064  0.2180 -2.1209
13116TIP3    H260840   1.690   3.575  13.669  0.4796  0.2290  0.5122
13117TIP3   OH260841   0.909   3.659  12.563 -0.2360  0.2521  0.4562
13117TIP3    H160842   0.828   3.694  12.527 -1.0082 -1.0251  0.8853
13117TIP3    H260843   0.966   3.735  12.574 -1.1227  1.0677 -0.5013
13118TIP3   OH260844   3.060   0.980   0.986  0.1747  0.3111 -0.2546
13118TIP3    H160845   3.063   1.058   0.930  1.4849  0.1989 -0.3878
13118TIP3    H260846   3.055   1.015   1.075  1.1691  0.5767 -0.2906
13119TIP3   OH260847   0.342   3.862  12.645 -0.0079 -0.9741  0.2479
13119TIP3    H160848   0.418   3.830  12.693  1.9131  1.0011 -1.2583
13119TIP3    H260849   0.374   3.876  12.556 -1.5258  1.8682  0.0233
13120TIP3   OH260850   6.462   4.887   4.102  0.0843 -0.0288 -0.0872
13120TIP3    H160851   6.436   4.822   4.167 -1.9442  0.0690 -0.7314
13120TIP3    H260852   6.423   4.856   4.020  0.7337  0.9995 -0.8172
13121TIP3   OH260853   1.067   2.735  15.306  0.9296 -0.2672  0.0630
13121TIP3    H160854   1.027   2.740  15.219 -2.8132 -0.0086  1.5914
13121TIP3    H260855   1.116   2.817  15.315 -0.8206  0.9642 -0.9067
13122TIP3   OH260856   5.198   2.396   5.389  0.2484  0.2924 -0.5462
13122TIP3    H160857   5.247   2.471   5.356 -0.1995  0.3027 -1.2075
13122TIP3    H260858   5.151   2.431   5.465  0.4748  0.5449 -0.5202
13123TIP3   OH260859   0.411   4.226   3.844  0.3025  0.0289 -1.1453
13123TIP3    H160860   0.489   4.263   3.803 -0.0299  1.3018 -0.6629
13123TIP3    H260861   0.345   4.296   3.839 -0.3413 -0.4843 -0.1995
13124TIP3   OH260862   5.642   4.573   0.357 -0.3918  0.3774  0.3966
13124TIP3    H160863   5.672   4.664   0.349  1.0351 -0.2354 -2.5432
13124TIP3    H260864   5.720   4.524   0.383 -0.1355 -0.4378 -1.6802
13125TIP3   OH260865   5.917   2.683  15.364 -0.3372 -0.2601 -0.1444
13125TIP3    H160866   5.995   2.713  15.318 -0.2826 -1.4858 -0.9061
13125TIP3    H260867   5.843   2.719  15.314 -0.3204 -2.8542 -2.2457
13126TIP3   OH260868   0.735   4.468   5.618 -0.2055 -0.6545 -0.2586
13126TIP3    H160869   0.727   4.465   5.714  0.5081  0.8325 -0.1300
13126TIP3    H260870   0.709   4.557   5.595 -0.0173 -0.8896 -1.4135
13127TIP3   OH260871   5.799   6.063   2.876  0.4137  0.0261 -0.2050
13127TIP3    H160872   5.805   5.968   2.890 -0.0070  0.0430  0.1360
13127TIP3    H260873   5.726   6.073   2.815 -0.4526  0.2041  0.8269
13128TIP3   OH260874   2.632   4.316  11.945  0.2530 -0.7309 -0.0902
13128TIP3    H160875   2.690   4.302  11.870 -1.6110 -0.7952 -1.5925
13128TIP3    H260876   2.649   4.241  12.002  1.7762 -0.6301 -0.3516
13129TIP3   OH260877   3.428   5.504  15.987 -0.0545  0.1039 -0.1926
13129TIP3    H160878   3.390   5.591  16.002  0.3406  0.4529 -1.1857
13129TIP3    H260879   3.462   5.507  15.898 -0.6483 -1.3026 -0.4983
13130TIP3   OH260880   2.745   2.252   4.134  0.4054  0.2223  0.2677
13130TIP3    H160881   2.779   2.248   4.045  0.8817 -1.4408  0.4929
13130TIP3    H260882   2.651   2.265   4.124  0.4409 -0.0674 -0.4781
13131TIP3   OH260883   0.894   4.248   2.421  0.4416  0.3894 -0.1126
13131TIP3    H160884   0.922   4.202   2.500  1.1790  0.3334 -0.4004
13131TIP3    H260885   0.799   4.239   2.420  0.2688  1.6525  1.5406
13132TIP3   OH260886   2.338   5.931  11.957 -0.6343  0.7390  0.8202
13132TIP3    H160887   2.272   5.879  11.911 -0.9860  2.6356 -0.9943
13132TIP3    H260888   2.296   5.956  12.039 -1.2854 -0.0058  0.7249
13133TIP3   OH260889   4.791   4.094   0.947 -0.4286 -0.2746 -0.1746
13133TIP3    H160890   4.832   4.015   0.912  1.0198  1.0655 -1.6668
13133TIP3    H260891   4.698   4.074   0.947 -0.2950 -1.3044 -2.4964
13134TIP3   OH260892   3.893   5.167   3.465 -0.1955  0.2308  0.2110
13134TIP3    H160893   3.847   5.091   3.428 -0.1473  0.0148  0.5879
13134TIP3    H260894   3.975   5.131   3.499  0.1067  0.5610 -0.1676
13135TIP3   OH260895   5.248   0.690  12.811  0.1834  0.4139 -0.1034
13135TIP3    H160896   5.292   0.770  12.840  2.1572 -0.4097 -0.6493
13135TIP3    H260897   5.315   0.621  12.821 -0.8143 -0.8139 -1.4988
13136TIP3   OH260898   2.858   1.927  13.056  0.3299 -0.6837  0.7126
13136TIP3    H160899   2.853   1.850  13.000 -0.7429 -1.8195  2.2841
13136TIP3    H260900   2.804   1.992  13.012  0.6332 -1.0866 -0.2669
13137TIP3   OH260901   2.065   2.712  12.673  0.0493  0.3975 -0.2934
13137TIP3    H160902   2.053   2.617  12.672  0.7375  0.2964 -0.0058
13137TIP3    H260903   2.069   2.736  12.580 -1.8002  0.3991 -0.4123
13138TIP3   OH260904   3.005   0.433   4.863 -0.2213  0.5657 -0.3347
13138TIP3    H160905   3.083   0.376   4.865 -1.0663 -0.7316  2.9336
13138TIP3    H260906   2.937   0.378   4.825 -0.8390 -0.5378  2.1051
13139TIP3   OH260907   2.300   0.499   2.044  0.6459  0.1015  0.3919
13139TIP3    H160908   2.339   0.464   1.964  1.4801 -0.7230  1.1181
13139TIP3    H260909   2.213   0.459   2.049  1.9654 -2.9096  1.7468
13140TIP3   OH260910   1.773   5.383   0.111 -0.0295  0.2872  0.1644
13140TIP3    H160911   1.746   5.473   0.096 -0.2412  0.0754 -0.8328
13140TIP3    H260912   1.744   5.336   0.033  1.4821 -0.3290 -0.0749
13141TIP3   OH260913   3.296   0.445  16.370  0.0744 -0.3837  0.1978
13141TIP3    H160914   3.300   0.529  16.323 -0.1103  0.2351  1.2627
13141TIP3    H260915   3.216   0.451  16.422  0.3508 -1.0023  0.6975
13142TIP3   OH260916   5.141   2.295   2.680 -0.0032 -0.0569 -0.1104
13142TIP3    H160917   5.156   2.204   2.702 -0.3548  0.2174  1.3744
13142TIP3    H260918   5.071   2.293   2.615  2.1081 -0.9839 -2.5426
13143TIP3   OH260919   0.651   6.264   2.914 -0.4227 -0.3489  0.3840
13143TIP3    H160920   0.674   6.268   3.006 -1.2137  0.0226  0.5703
13143TIP3    H260921   0.562   6.298   2.909  1.0378  3.9553 -1.0860
13144TIP3   OH260922   4.452   1.137  16.009  0.3379  0.4880 -0.2230
13144TIP3    H160923   4.454   1.059  16.065 -0.7636  0.4112 -0.2767
13144TIP3    H260924   4.544   1.155  15.992  0.7156  0.4456  1.5173
13145TIP3   OH260925   0.162   0.418  15.992  0.2913  0.1678 -0.0618
13145TIP3    H160926   0.138   0.388  16.080 -1.0817 -1.7449 -1.0009
13145TIP3    H260927   0.167   0.513  15.999 -0.8734  0.1414  1.8261
13146TIP3   OH260928   0.653   4.470   5.879 -0.1290  0.0692 -0.2335
13146TIP3    H160929   0.572   4.447   5.925  0.2444 -1.1715 -0.1576
13146TIP3    H260930   0.714   4.494   5.949  0.2887 -1.3427 -0.0871
13147TIP3   OH260931   3.361   5.315  12.421  0.2358 -0.4421  0.5303
13147TIP3    H160932   3.292   5.311  12.488 -0.8635 -1.2918 -0.6047
13147TIP3    H260933   3.329   5.380  12.358  0.2608 -1.1615 -0.2317
13148TIP3   OH260934   4.122   3.381   4.431  0.3570 -0.5978 -0.3905
13148TIP3    H160935   4.178   3.320   4.479 -0.0939 -0.6333  0.0935
13148TIP3    H260936   4.140   3.361   4.339  0.1607 -1.5154 -0.2393
13149TIP3   OH260937   2.417   5.525  15.422 -0.2156  0.4391 -0.0299
13149TIP3    H160938   2.510   5.501  15.424 -0.4281 -0.4461 -0.3731
13149TIP3    H260939   2.371   5.441  15.424 -0.9868  0.8192 -1.1384
13150TIP3   OH260940   4.064   6.229  14.404  0.5759  0.2367 -0.1225
13150TIP3    H160941   4.121   6.282  14.460  2.1994  0.8374 -2.2235
13150TIP3    H260942   4.116   6.213  14.325 -1.7187 -0.2802 -1.6113
13151TIP3   OH260943   6.489   4.677   5.600  0.7916 -0.0207  0.2772
13151TIP3    H160944   6.440   4.598   5.579  0.8868  0.1717 -0.6882
13151TIP3    H260945   6.545   4.691   5.524  1.0126  0.7923  0.5872
13152TIP3   OH260946   0.066   5.701  11.743 -0.0805 -0.2177 -0.2142
13152TIP3    H160947  -0.016   5.665  11.776  0.6405  0.2290  2.2263
13152TIP3    H260948   0.112   5.625  11.708 -1.1566 -0.6123 -0.8306
13153TIP3   OH260949   5.921   1.683  11.730  0.0681  0.1989  0.5003
13153TIP3    H160950   5.869   1.603  11.727 -0.2402  0.3378  1.7392
13153TIP3    H260951   5.867   1.746  11.777  0.1757  1.2571 -0.7261
13154TIP3   OH260952   6.759   3.051  14.149  0.2993 -0.3941  0.3309
13154TIP3    H160953   6.762   3.039  14.054  0.3910 -0.2585  0.3163
13154TIP3    H260954   6.839   3.008  14.181 -0.0577 -1.0077  0.4102
13155TIP3   OH260955   3.848   2.174   3.235 -0.4361  0.4954  0.4316
13155TIP3    H160956   3.771   2.195   3.288  0.0511  2.5062  0.4217
13155TIP3    H260957   3.914   2.236   3.264 -0.5324  2.6894 -3.3982
13156TIP3   OH260958   0.159   2.924  11.531  0.0871  0.5429 -0.1438
13156TIP3    H160959   0.184   2.838  11.497  0.1604  0.5205 -0.0355
13156TIP3    H260960   0.180   2.919  11.625 -0.8161  0.3293  0.0609
13157TIP3   OH260961   3.627   3.495   5.612 -0.1398  0.3534 -0.3840
13157TIP3    H160962   3.610   3.444   5.692  0.0829  0.8061 -0.0434
13157TIP3    H260963   3.719   3.518   5.617 -0.1482  0.4691 -0.7290
13158TIP3   OH260964   0.573   0.812   2.459 -0.2507  0.0823 -0.0013
13158TIP3    H160965   0.512   0.811   2.533 -0.6285  0.6556 -0.2899
13158TIP3    H260966   0.553   0.894   2.414  1.5498  0.8803  0.5665
13159TIP3   OH260967   5.441   0.387  14.004  0.3709 -0.3047  0.2244
13159TIP3    H160968   5.446   0.481  14.019 -0.5097 -0.3802  1.1074
13159TIP3    H260969   5.524   0.353  14.037 -0.3694 -0.1210  2.4269
13160TIP3   OH260970   5.830   2.376   2.530 -0.2285  0.6553 -0.4096
13160TIP3    H160971   5.828   2.384   2.435  1.8706  0.1860 -0.5459
13160TIP3    H260972   5.827   2.467   2.561  2.4497  1.0508 -1.1030
13161TIP3   OH260973   0.807   4.667   4.243 -0.0051 -0.3115  0.7535
13161TIP3    H160974   0.837   4.652   4.333 -0.0758 -0.9513  0.6744
13161TIP3    H260975   0.711   4.664   4.250 -0.0247  0.1675  0.7415
13162TIP3   OH260976   0.028   3.932   4.497 -0.2881 -0.3494 -0.0908
13162TIP3    H160977  -0.001   3.859   4.550  0.7083 -0.5090  0.2549
13162TIP3    H260978   0.031   4.006   4.557 -1.7362  0.0996 -0.5412
13163TIP3   OH260979   0.996   0.340   2.693 -0.0106  0.2238  0.7427
13163TIP3    H160980   0.943   0.273   2.737 -0.1360 -0.1150  0.0927
13163TIP3    H260981   1.086   0.317   2.715 -0.1464  1.6455  3.0586
13164TIP3   OH260982   4.755   5.203   1.060 -0.1980 -0.1627 -0.5350
13164TIP3    H160983   4.678   5.246   1.098  1.3922  0.8730  1.7799
13164TIP3    H260984   4.765   5.122   1.110  0.3256 -0.1740 -0.6497
13165TIP3   OH260985   1.202   2.653   4.482  0.1891 -0.2531  0.6790
13165TIP3    H160986   1.189   2.575   4.429  0.5024  0.0548  0.1431
13165TIP3    H260987   1.145   2.719   4.443 -2.4183 -0.9957  2.9271
13166TIP3   OH260988   4.992   2.972   1.865  0.5130  0.1336 -0.1397
13166TIP3    H160989   4.948   2.976   1.950  0.1641 -0.3284 -0.2970
13166TIP3    H260990   5.053   2.898   1.874  1.4098  0.8930  0.1463
13167TIP3   OH260991   5.882   3.617  14.920 -0.3425  0.1401 -0.4024
13167TIP3    H160992   5.978   3.615  14.923 -0.3259  0.9767 -0.1276
13167TIP3    H260993   5.857   3.667  14.998 -0.9706  0.5858 -0.8821
13168TIP3   OH260994   1.310   5.896  17.105 -0.1224  0.3701  0.1103
13168TIP3    H160995   1.391   5.845  17.113 -0.0725  0.4776  0.2995
13168TIP3    H260996   1.328   5.959  17.035  0.2240  0.8871  0.6523
13169TIP3   OH260997   2.662   2.407   3.041  0.0204  0.4763  0.3991
13169TIP3    H160998   2.677   2.423   3.134  2.8443 -0.4528  0.2115
13169TIP3    H260999   2.661   2.312   3.033  3.4348  0.3952 -0.8290
13170TIP3   OH261000   4.467   2.960  11.240  0.0510 -0.0203  0.3916
13170TIP3    H161001   4.412   3.008  11.302  0.1100  0.3976  0.1243
13170TIP3    H261002   4.413   2.953  11.161  0.2804  0.1727  0.2140
13171TIP3   OH261003   3.124   0.499   3.800 -0.6320 -0.2976 -0.1151
13171TIP3    H161004   3.072   0.578   3.789  0.1263  0.3196  0.5403
13171TIP3    H261005   3.205   0.517   3.752 -1.5316 -1.8270 -2.4016
13172TIP3   OH261006   5.776   5.389  13.589  0.1046  0.2082 -1.0783
13172TIP3    H161007   5.793   5.295  13.591 -0.5813  0.0801 -1.3245
13172TIP3    H261008   5.853   5.426  13.545 -0.1574 -0.3602 -2.0400
13173TIP3   OH261009   3.171   3.662   1.225  0.5415  0.2584 -0.4780
13173TIP3    H161010   3.199   3.595   1.163  0.5674  0.9190 -1.2001
13173TIP3    H261011   3.077   3.651   1.232  0.1080  1.8725 -2.7510
13174TIP3   OH261012   3.166   3.545   0.173 -0.5899 -0.3794  0.2883
13174TIP3    H161013   3.126   3.595   0.244 -0.2080 -1.6362  1.4454
13174TIP3    H261014   3.127   3.458   0.180 -0.2130 -0.6460 -0.7743
13175TIP3   OH261015   0.202   0.571  14.635  0.1229  0.3371 -0.0636
13175TIP3    H161016   0.184   0.477  14.623 -0.0950  0.4643 -0.7636
13175TIP3    H261017   0.297   0.577  14.634  0.1678  0.0066  0.9441
13176TIP3   OH261018   5.145   3.362  16.908  0.0155  0.7178 -0.2304
13176TIP3    H161019   5.154   3.390  16.999  2.4327 -0.3079 -0.0611
13176TIP3    H261020   5.210   3.415  16.861  1.9575 -1.7443 -0.5218
13177TIP3   OH261021   5.748   2.373   2.255  0.5187  0.5090  0.2465
13177TIP3    H161022   5.666   2.357   2.302  0.3183  0.5139 -0.0985
13177TIP3    H261023   5.748   2.308   2.185  0.7393  0.6057  0.1564
13178TIP3   OH261024   6.313   0.315   0.107  0.4377 -0.7158  0.5769
13178TIP3    H161025   6.284   0.359   0.187  1.6024  0.8382  0.2126
13178TIP3    H261026   6.244   0.332   0.044  1.1556  1.3082  0.2485
13179TIP3   OH261027   3.354   1.880  16.815 -0.0613 -0.4102 -0.1118
13179TIP3    H161028   3.345   1.935  16.737 -0.6307 -0.1334  0.1404
13179TIP3    H261029   3.336   1.940  16.888 -0.0382 -0.7849  0.2009
13180TIP3   OH261030   0.070   3.587   1.959  0.2419 -0.2321  0.1588
13180TIP3    H161031   0.045   3.582   2.051 -0.4032  1.5335  0.1232
13180TIP3    H261032  -0.012   3.572   1.911  0.8301 -2.6851 -0.2308
13181TIP3   OH261033   5.158   5.510  13.992 -0.0821 -0.4278 -0.0518
13181TIP3    H161034   5.084   5.556  13.953 -0.2251 -0.9865 -0.4575
13181TIP3    H261035   5.165   5.546  14.080 -0.5462 -0.0436 -0.1663
13182TIP3   OH261036   6.182   2.589   2.444  0.1895 -0.0852 -0.2389
13182TIP3    H161037   6.236   2.568   2.520  1.8490  0.0357 -1.3085
13182TIP3    H261038   6.171   2.506   2.398 -1.3194 -0.2692  0.4159
13183TIP3   OH261039   4.050   0.155  11.511  0.0705 -0.3584 -0.1311
13183TIP3    H161040   4.129   0.190  11.469 -0.4432 -0.0193 -0.8312
13183TIP3    H261041   4.068   0.062  11.520  0.7624 -0.2040  0.1930
13184TIP3   OH261042   1.117   3.566  15.479  0.3529 -0.0493  0.1617
13184TIP3    H161043   1.207   3.562  15.445 -0.3316  0.8397 -1.9345
13184TIP3    H261044   1.068   3.503  15.426 -0.4997  0.3807  0.4200
13185TIP3   OH261045   1.363   3.324   4.690 -0.4618  0.1689 -0.2705
13185TIP3    H161046   1.298   3.368   4.635 -1.1578 -0.3734  0.0917
13185TIP3    H261047   1.433   3.388   4.701 -0.1948  0.2163 -1.9561
13186TIP3   OH261048   6.572   1.390  12.757  0.3329 -0.1912 -0.1540
13186TIP3    H161049   6.609   1.358  12.839 -0.9221  0.7813  0.8351
13186TIP3    H261050   6.479   1.398  12.775  0.3621  2.3923 -0.8694
13187TIP3   OH261051   4.199   5.781   0.380 -0.6502  0.6307 -0.2016
13187TIP3    H161052   4.138   5.834   0.329 -0.1212  0.0755 -1.4627
13187TIP3    H261053   4.155   5.698   0.392 -1.3707  1.2089  1.5520
13188TIP3   OH261054   5.124   5.917   5.856 -0.8351 -0.0259  0.8530
13188TIP3    H161055   5.122   5.843   5.795  0.4556 -0.4008  1.2416
13188TIP3    H261056   5.195   5.897   5.917  0.3498  2.0786  0.2625
13189TIP3   OH261057   5.813   5.722  13.794 -0.1701  0.8817 -0.1218
13189TIP3    H161058   5.820   5.808  13.753 -0.5045  0.4361 -1.1534
13189TIP3    H261059   5.731   5.686  13.760 -0.5717  0.5754  1.1210
13190TIP3   OH261060   6.430   2.692   4.990 -0.2402 -0.2767 -0.2148
13190TIP3    H161061   6.487   2.706   5.066 -0.6861 -0.8584  0.2333
13190TIP3    H261062   6.440   2.599   4.970 -2.2711 -0.7840  0.9017
13191TIP3   OH261063   6.270   0.779  14.170 -0.5967 -0.0842 -0.0332
13191TIP3    H161064   6.320   0.770  14.088  0.6000  0.3956  0.6225
13191TIP3    H261065   6.179   0.775  14.142 -0.2304 -1.9657 -1.1721
13192TIP3   OH261066   1.389   0.440   2.293 -0.3501  0.1155 -0.1851
13192TIP3    H161067   1.321   0.380   2.323  0.2795 -0.0384  1.0026
13192TIP3    H261068   1.428   0.395   2.218 -2.2663  0.7232 -1.6331
13193TIP3   OH261069   5.019   3.577   0.903 -0.6359 -0.1055  0.5639
13193TIP3    H161070   4.942   3.525   0.881 -0.8208  0.6279 -0.6473
13193TIP3    H261071   5.026   3.640   0.831  0.6603  0.3256  1.0418
13194TIP3   OH261072   0.828   3.811   1.318  0.2395 -0.8122  0.3311
13194TIP3    H161073   0.906   3.863   1.339 -0.0645  0.0936 -0.6927
13194TIP3    H261074   0.858   3.749   1.251 -0.1916  0.4902 -1.1461
13195TIP3   OH261075   2.013   0.255  11.658  0.2773 -0.1462  0.1183
13195TIP3    H161076   1.987   0.220  11.743 -0.5194 -0.3720 -0.2019
13195TIP3    H261077   1.943   0.316  11.635 -0.4095 -1.3651 -1.1322
13196TIP3   OH261078   6.378   6.589  15.171  0.1492 -0.7604 -0.1209
13196TIP3    H161079   6.416   6.673  15.196 -0.1219 -0.2602 -1.3496
13196TIP3    H261080   6.330   6.560  15.249  1.2413 -0.3685  0.7135
13197TIP3   OH261081   3.902   2.344   2.244  0.4770 -0.3033 -0.4045
13197TIP3    H161082   3.868   2.347   2.155  0.2460  0.0724 -0.3067
13197TIP3    H261083   3.928   2.253   2.257  0.5865 -0.3431 -0.8818
13198TIP3   OH261084   2.106   1.296   3.436 -0.4309  0.6389  0.6785
13198TIP3    H161085   2.138   1.291   3.346  0.5776 -0.2991  1.0579
13198TIP3    H261086   2.077   1.386   3.447 -0.7041  0.7280 -0.6268
13199TIP3   OH261087   1.799   3.013  13.521 -0.4437  0.2207 -0.5511
13199TIP3    H161088   1.779   3.025  13.614 -0.3174 -0.2951 -0.4534
13199TIP3    H261089   1.827   3.099  13.491  0.2056  0.2335  0.0647
13200TIP3   OH261090   0.542   5.484   2.055 -0.1147 -0.3868 -0.4656
13200TIP3    H161091   0.479   5.549   2.026 -0.0808 -0.2554 -0.2481
13200TIP3    H261092   0.613   5.535   2.095 -0.3380 -0.5848  0.1851
13201TIP3   OH261093   6.231   6.648  12.901 -0.4882 -0.3740 -0.2730
13201TIP3    H161094   6.301   6.712  12.887 -0.4472 -0.3431  0.0777
13201TIP3    H261095   6.216   6.649  12.995  0.0019 -1.4091 -0.1726
13202TIP3   OH261096   1.482   5.289   1.028 -0.5655  0.0734  1.3555
13202TIP3    H161097   1.557   5.242   0.990 -2.1520  1.7950 -5.2421
13202TIP3    H261098   1.511   5.381   1.031 -1.5016  0.3740  1.3977
13203TIP3   OH261099   1.510   1.846   2.890  0.0291  0.0233 -0.5293
13203TIP3    H161100   1.514   1.786   2.965 -0.6579  0.9166  0.2349
13203TIP3    H261101   1.597   1.885   2.886 -0.0544  0.2753  0.0589
13204TIP3   OH261102   6.341   6.353   4.818 -0.6420  1.0306  0.1117
13204TIP3    H161103   6.366   6.303   4.896  0.1310 -0.3703 -0.9936
13204TIP3    H261104   6.268   6.305   4.780  0.2259  0.5842 -1.0636
13205TIP3   OH261105   4.612   6.331  12.913 -0.0627  0.8720 -0.2957
13205TIP3    H161106   4.581   6.365  12.997  1.1826 -0.6125  0.8033
13205TIP3    H261107   4.698   6.295  12.931 -0.3791 -0.8662 -1.8661
13206TIP3   OH261108   3.050   6.751  11.275  0.1889  0.3916 -0.1018
13206TIP3    H161109   3.025   6.724  11.186  1.0409 -2.6183  0.4408
13206TIP3    H261110   3.129   6.701  11.293 -0.6345 -0.0538  2.7573
13207TIP3   OH261111   2.364   4.980   3.682  0.2035 -0.8423 -0.0837
13207TIP3    H161112   2.445   4.932   3.666 -0.4657 -1.3965 -2.1611
13207TIP3    H261113   2.378   5.066   3.642 -0.1925 -0.9255 -0.4127
13208TIP3   OH261114   4.482   5.129  13.411  0.3319  0.1317 -0.6984
13208TIP3    H161115   4.516   5.074  13.340 -1.1043  0.4124 -1.6432
13208TIP3    H261116   4.504   5.082  13.491  0.2764 -1.1726 -1.4263
13209TIP3   OH261117   0.678   0.799  16.133  0.0145  0.1265 -0.4310
13209TIP3    H161118   0.756   0.852  16.118 -0.7717  0.8071 -2.3868
13209TIP3    H261119   0.620   0.856  16.184 -0.4678  0.8889 -1.7632
13210TIP3   OH261120   0.663   0.213   0.004 -0.3916  0.2766 -0.1235
13210TIP3    H161121   0.695   0.123  -0.002  1.0116  0.6689  0.8192
13210TIP3    H261122   0.743   0.267   0.000 -1.1969  1.4760 -0.6009
13211TIP3   OH261123   4.008   3.526  12.930 -0.4680 -0.1666 -0.1000
13211TIP3    H161124   3.961   3.504  12.849 -0.7585  0.9401 -0.2387
13211TIP3    H261125   3.939   3.530  12.996 -0.8555  2.9332 -0.5753
13212TIP3   OH261126   2.030   0.721   2.941  0.1289  0.2267  0.1722
13212TIP3    H161127   1.987   0.793   2.987 -1.8808 -0.5007 -0.4424
13212TIP3    H261128   2.057   0.759   2.857  3.1402  1.3582  1.5144
13213TIP3   OH261129   2.809   3.194   0.828 -0.0097 -0.0512  0.1093
13213TIP3    H161130   2.795   3.203   0.734  0.8365  2.4753  0.1206
13213TIP3    H261131   2.733   3.238   0.868  0.3067  0.1116  0.5425
13214TIP3   OH261132   0.174   4.147   5.811  0.0964  0.1254  0.6336
13214TIP3    H161133   0.146   4.100   5.889 -0.2104  0.3706  0.6720
13214TIP3    H261134   0.093   4.164   5.763  0.2113  0.5685  0.5960
13215TIP3   OH261135   6.754   5.912   5.479 -0.3630  0.1714  0.1965
13215TIP3    H161136   6.662   5.935   5.467  0.1535  1.2377 -2.4945
13215TIP3    H261137   6.781   5.877   5.394  1.8525  0.4523  0.7252
13216TIP3   OH261138   0.872   3.836  12.856  0.4448 -0.4738 -0.5793
13216TIP3    H161139   0.883   3.912  12.912 -1.0085 -0.2476 -0.5667
13216TIP3    H261140   0.956   3.828  12.810  0.7737  0.8664 -0.2588
13217TIP3   OH261141   3.961   5.723  14.359 -0.7458  0.3333  0.1836
13217TIP3    H161142   3.904   5.760  14.292  0.1766  0.7888 -0.3631
13217TIP3    H261143   4.011   5.655  14.314 -1.7020 -0.9142  0.9476
13218TIP3   OH261144   4.907   3.215  12.049 -0.3049  0.7220 -0.0173
13218TIP3    H161145   4.982   3.275  12.052  0.0437  0.2596  0.5571
13218TIP3    H261146   4.946   3.128  12.047 -0.8174  0.4283  1.5270
13219TIP3   OH261147   5.277   2.268  14.544 -0.0083 -0.1274 -0.1370
13219TIP3    H161148   5.253   2.176  14.550  0.5565 -0.2236  0.8520
13219TIP3    H261149   5.280   2.286  14.450  1.4443 -1.5478 -0.3971
13220TIP3   OH261150   1.599   3.935  16.464 -0.1914 -0.0686  0.0751
13220TIP3    H161151   1.562   4.021  16.442  0.3958  0.1283 -0.1546
13220TIP3    H261152   1.634   3.902  16.382 -1.7543 -1.2147 -0.1722
13221TIP3   OH261153   4.226   4.099   3.762 -0.4416  0.5281  0.2601
13221TIP3    H161154   4.265   4.182   3.792  0.7042  0.1555 -0.1551
13221TIP3    H261155   4.227   4.043   3.839  2.5063 -0.4300 -0.3119
13222TIP3   OH261156   1.872   6.570   0.579  0.5029  0.2616 -0.7579
13222TIP3    H161157   1.936   6.505   0.549  0.3379 -0.2238 -0.0678
13222TIP3    H261158   1.790   6.543   0.537  0.6117  0.5375 -1.1620
13223TIP3   OH261159   2.687   1.720   1.079  0.0429 -0.4118  0.2173
13223TIP3    H161160   2.661   1.655   1.013  1.6373  0.2118 -1.1119
13223TIP3    H261161   2.705   1.668   1.158  1.6941 -1.6889 -0.9355
13224TIP3   OH261162   1.283   2.928  15.596 -0.2697  0.1378  0.2370
13224TIP3    H161163   1.266   2.838  15.567 -0.4732  0.2977 -0.1476
13224TIP3    H261164   1.240   2.982  15.530 -0.3582  0.5141  0.6035
13225TIP3   OH261165   5.791   4.700  11.506  0.8780 -0.4634  0.2029
13225TIP3    H161166   5.839   4.617  11.499  0.5876 -0.6323  0.1958
13225TIP3    H261167   5.728   4.685  11.575  1.0648 -0.1226  0.4485
13226TIP3   OH261168   2.678   5.647  15.853 -0.4282 -0.0735 -0.2088
13226TIP3    H161169   2.614   5.638  15.782 -2.6731 -0.4490  1.7220
13226TIP3    H261170   2.656   5.731  15.894  1.8149  0.8760 -0.7940
13227TIP3   OH261171   0.890   2.428   0.459 -0.6128  0.4154 -0.2971
13227TIP3    H161172   0.873   2.333   0.455 -1.5859  0.6086 -1.3791
13227TIP3    H261173   0.983   2.435   0.477 -1.0109 -0.7331  2.8285
13228TIP3   OH261174   2.915   0.111   4.688  0.1670 -0.2215  0.2167
13228TIP3    H161175   2.964   0.099   4.770  1.7363  2.1757 -0.2748
13228TIP3    H261176   2.851   0.180   4.709  1.1265  0.9967 -0.7372
13229TIP3   OH261177   5.849   3.851   0.348 -0.1401 -0.0462 -0.0187
13229TIP3    H161178   5.944   3.848   0.351 -0.0912  0.1755 -1.0050
13229TIP3    H261179   5.824   3.782   0.287 -0.6977 -0.9323  1.1650
13230TIP3   OH261180   3.947   6.703   4.276 -0.4984 -0.1662  0.5164
13230TIP3    H161181   3.858   6.737   4.268 -0.4126  0.2720  1.3618
13230TIP3    H261182   3.936   6.608   4.280 -0.8284 -0.1889 -0.5833
13231TIP3   OH261183   4.611   1.459  11.659  0.0840  0.1995  0.0999
13231TIP3    H161184   4.676   1.415  11.605  2.2709  3.8122 -0.5174
13231TIP3    H261185   4.629   1.428  11.748  1.7172  0.0666 -0.2433
13232TIP3   OH261186   4.947   5.123   4.784 -0.7069  0.3315  0.2652
13232TIP3    H161187   5.038   5.153   4.775 -0.4410 -0.8881 -1.6609
13232TIP3    H261188   4.951   5.055   4.851 -0.3919  0.9656  0.9055
13233TIP3   OH261189   3.195   0.049  12.046 -0.1576  0.1101 -0.4001
13233TIP3    H161190   3.247  -0.021  12.007 -2.9415 -2.0024 -0.7121
13233TIP3    H261191   3.155   0.094  11.972 -1.7322 -0.8302 -0.1732
13234TIP3   OH261192   1.977   6.352   4.853 -0.3513 -0.0037 -0.0296
13234TIP3    H161193   1.927   6.416   4.903  0.2263  1.5161 -1.2993
13234TIP3    H261194   1.971   6.382   4.762  2.5364  0.0938 -0.2825
13235TIP3   OH261195   6.807   1.363  14.847 -0.0194 -0.1798 -0.4971
13235TIP3    H161196   6.823   1.312  14.927 -2.0221 -1.7808 -1.0158
13235TIP3    H261197   6.833   1.306  14.776  2.7583  1.6341 -1.0958
13236TIP3   OH261198   4.498   6.138  16.300 -0.3884 -0.0539  0.5221
13236TIP3    H161199   4.521   6.208  16.239  2.1228 -1.0160  0.2459
13236TIP3    H261200   4.433   6.086  16.254 -0.5183  0.7520 -0.2240
13237TIP3   OH261201   2.954   0.395  12.307 -0.5673  0.1341 -0.1732
13237TIP3    H161202   2.969   0.415  12.400  0.3589  0.7142 -0.4292
13237TIP3    H261203   2.945   0.300  12.304 -0.8643  0.1298  0.5464
13238TIP3   OH261204   2.411   2.894  14.995 -0.6111  0.3062 -0.2497
13238TIP3    H161205   2.331   2.920  15.041  0.8277 -0.2236  2.8407
13238TIP3    H261206   2.481   2.910  15.058  1.6080 -0.4448 -2.3619
13239TIP3   OH261207   3.890   1.557   2.769  0.0110  0.2003  0.0815
13239TIP3    H161208   3.847   1.641   2.754 -1.3922 -0.2358  1.4062
13239TIP3    H261209   3.946   1.572   2.846  3.4123  1.1175 -2.3475
13240TIP3   OH261210   2.935   5.990   3.122  0.1070  0.1008 -0.3141
13240TIP3    H161211   2.910   6.053   3.190 -1.4706 -1.7316  0.8895
13240TIP3    H261212   2.874   6.007   3.051  0.8440  1.0666 -0.7497
13241TIP3   OH261213   5.687   5.018  12.131  0.0173  0.0005 -0.2456
13241TIP3    H161214   5.709   5.003  12.223 -0.8980 -1.8225 -0.2837
13241TIP3    H261215   5.768   4.998  12.083  0.0201 -0.7500  0.0578
13242TIP3   OH261216   3.712   2.026  16.849  0.5280 -0.2273 -0.1580
13242TIP3    H161217   3.710   2.067  16.763  0.1210  0.5787  0.2154
13242TIP3    H261218   3.671   2.091  16.907 -0.7696 -1.4339  0.3512
13243TIP3   OH261219   2.499   3.509  14.269  0.4888 -0.2492  0.1103
13243TIP3    H161220   2.525   3.516  14.361  0.2711 -1.3002  0.2761
13243TIP3    H261221   2.511   3.416  14.249 -1.4604 -0.4400 -0.3080
13244TIP3   OH261222   6.479   6.518  10.805  0.6069 -0.6467 -1.0554
13244TIP3    H161223   6.389   6.484  10.807  0.1021  0.4963 -2.5029
13244TIP3    H261224   6.515   6.484  10.724  0.4950  1.2042 -1.9256
13245TIP3   OH261225   5.115   1.028  14.915 -0.1960  0.1752  0.3037
13245TIP3    H161226   5.170   0.983  14.979 -3.2639 -1.6497  1.8966
13245TIP3    H261227   5.161   1.015  14.831  2.3443 -0.1284  1.6456
13246TIP3   OH261228   6.437   2.067   4.654  0.0896  0.0001 -0.4608
13246TIP3    H161229   6.352   2.056   4.612 -0.5131 -2.0627  1.1767
13246TIP3    H261230   6.435   2.009   4.730  2.1148  1.6214  0.9440
13247TIP3   OH261231   0.567   4.434  14.023  0.0860  0.0402 -0.5268
13247TIP3    H161232   0.516   4.433  13.942 -1.9406 -0.6522  0.6836
13247TIP3    H261233   0.561   4.345  14.056 -0.6212  0.7084  1.2515
13248TIP3   OH261234   5.736   0.526   4.311 -0.2472 -0.1809  0.7103
13248TIP3    H161235   5.645   0.552   4.325 -1.5678 -3.3441 -1.0341
13248TIP3    H261236   5.735   0.479   4.227  2.7233 -1.5374  1.3189
13249TIP3   OH261237   2.834   1.165  11.825 -0.1148 -0.6788  0.4762
13249TIP3    H161238   2.867   1.254  11.820 -0.9574 -0.4010 -0.5630
13249TIP3    H261239   2.739   1.174  11.820 -0.1696 -1.6768 -0.8810
13250TIP3   OH261240   3.823   4.287   1.672 -0.4264 -0.0063 -0.1551
13250TIP3    H161241   3.831   4.297   1.767  0.6235 -1.5197 -0.0438
13250TIP3    H261242   3.831   4.376   1.638 -0.1720  0.4935  1.1423
13251TIP3   OH261243   2.579   4.951   5.234 -0.6036  0.3851 -0.0879
13251TIP3    H161244   2.549   4.860   5.241 -2.1936  0.8899  0.1288
13251TIP3    H261245   2.672   4.947   5.254 -0.4881 -1.2923 -0.7651
13252TIP3   OH261246   4.788   1.153  13.511  0.0983  0.2902  0.3610
13252TIP3    H161247   4.772   1.064  13.479 -0.8587 -0.0520  1.6971
13252TIP3    H261248   4.747   1.155  13.597  2.2195  1.2849  1.4318
13253TIP3   OH261249   6.533   3.323  12.249  0.6206 -0.4027  0.1387
13253TIP3    H161250   6.460   3.359  12.301 -0.3502  0.0578 -1.4819
13253TIP3    H261251   6.605   3.385  12.263  0.1686  0.0755  0.4132
13254TIP3   OH261252   5.392   2.668   4.981 -0.8498 -0.0713 -0.2630
13254TIP3    H161253   5.302   2.696   4.964 -1.5326 -2.1969 -0.4263
13254TIP3    H261254   5.441   2.695   4.903 -1.9227 -1.1715 -1.3554
13255TIP3   OH261255   6.579   2.219   2.267 -0.5168  0.4434 -0.1602
13255TIP3    H161256   6.626   2.220   2.184 -2.6339  2.7479 -1.4489
13255TIP3    H261257   6.563   2.126   2.284  1.4548 -0.1764 -1.3851
13256TIP3   OH261258   3.998   3.106  13.269 -0.1890 -0.3937  0.0387
13256TIP3    H161259   4.062   3.067  13.329 -0.7406 -1.8653 -0.2851
13256TIP3    H261260   3.957   3.031  13.226 -2.4624  0.4725  0.5635
13257TIP3   OH261261   3.407   3.422   4.553  0.1036 -0.3908 -0.3019
13257TIP3    H161262   3.386   3.371   4.632  0.5907 -1.7442 -1.0080
13257TIP3    H261263   3.503   3.426   4.552  0.0571  1.3611  0.2178
13258TIP3   OH261264   0.774   0.674   2.618  0.4787 -0.2062  0.6351
13258TIP3    H161265   0.683   0.683   2.591  0.3760 -2.9031 -0.1947
13258TIP3    H261266   0.826   0.708   2.545  0.2248  1.7370  1.2827
13259TIP3   OH261267   4.648   6.557  12.762 -0.1608  0.0385  0.4136
13259TIP3    H161268   4.633   6.481  12.819  0.8132 -0.1732  0.4046
13259TIP3    H261269   4.662   6.630  12.823  0.5117 -0.1149  0.4501
13260TIP3   OH261270   4.456   1.492  11.909 -0.1024 -0.3907  0.0826
13260TIP3    H161271   4.442   1.398  11.921 -0.2444 -0.3646  0.1178
13260TIP3    H261272   4.368   1.530  11.912 -0.0668 -0.2842 -0.1619
13261TIP3   OH261273   6.680   3.679  17.021  0.1258 -0.8433 -0.3475
13261TIP3    H161274   6.766   3.706  16.988  0.4932 -0.9145  0.5232
13261TIP3    H261275   6.638   3.636  16.946 -0.3210  1.6956 -1.6854
13262TIP3   OH261276   1.659   3.489   1.041 -0.0708  0.1053 -0.4871
13262TIP3    H161277   1.725   3.558   1.043 -1.9321  1.9709  1.1834
13262TIP3    H261278   1.674   3.443   0.959  0.9385  2.8559 -1.9483
13263TIP3   OH261279   2.357   4.573  14.489  0.3196 -0.6695  0.1212
13263TIP3    H161280   2.345   4.491  14.535 -0.9085 -0.2556  0.5704
13263TIP3    H261281   2.361   4.549  14.396 -2.0752 -1.0739  0.0777
13264TIP3   OH261282   4.252   5.200  15.524  0.1244  0.5135  0.1052
13264TIP3    H161283   4.338   5.242  15.526  0.5658 -0.3891  0.2377
13264TIP3    H261284   4.262   5.126  15.464 -0.6018  0.4899  0.0049
13265TIP3   OH261285   0.512   3.293  12.140 -0.5634 -0.1370  0.2299
13265TIP3    H161286   0.597   3.330  12.160  0.3559 -2.0769  0.0751
13265TIP3    H261287   0.526   3.239  12.062 -2.0824  0.0522 -0.2213
13266TIP3   OH261288   5.534   2.229   1.786 -0.0845  0.1739 -0.4115
13266TIP3    H161289   5.562   2.309   1.830  2.9082  0.4569 -2.5294
13266TIP3    H261290   5.592   2.161   1.821 -1.8633 -0.9206  0.5502
13267TIP3   OH261291   2.345   6.466   3.280  0.6998 -0.8414  0.4026
13267TIP3    H161292   2.263   6.422   3.305  0.6304 -1.4097 -0.7737
13267TIP3    H261293   2.376   6.417   3.204  1.4911  0.1339  0.0836
13268TIP3   OH261294   4.138   3.266   3.309 -0.2865  0.4727 -0.0081
13268TIP3    H161295   4.084   3.342   3.331 -0.7714 -0.0647  0.6903
13268TIP3    H261296   4.202   3.262   3.380 -0.0852  0.3928 -0.1937
13269TIP3   OH261297   4.843   1.296  16.589 -0.4908  1.0322  0.1381
13269TIP3    H161298   4.832   1.223  16.528  0.8253  1.1877 -0.3121
13269TIP3    H261299   4.901   1.260  16.657  0.3359  1.6970 -0.1956
13270TIP3   OH261300   5.980   4.636   1.502  0.0985  0.4776  0.6246
13270TIP3    H161301   5.886   4.640   1.520  0.2352  0.3502  1.4030
13270TIP3    H261302   6.015   4.718   1.538  0.1521  0.9787 -0.5316
13271TIP3   OH261303   4.066   5.531  11.741  0.0863 -0.0104  0.0833
13271TIP3    H161304   4.084   5.470  11.812  1.4778  1.3635  0.9916
13271TIP3    H261305   4.148   5.579  11.729 -0.3923  0.4327 -1.8509
13272TIP3   OH261306   6.490   5.780   2.912  0.0612  0.2263  0.0573
13272TIP3    H161307   6.462   5.689   2.921 -0.9174  0.5495  0.3318
13272TIP3    H261308   6.586   5.776   2.918 -0.0461 -0.6160  1.5523
13273TIP3   OH261309   0.819   3.051   5.356 -0.1558  0.2702 -0.7156
13273TIP3    H161310   0.734   3.095   5.356  0.0715  0.7679 -2.1380
13273TIP3    H261311   0.801   2.964   5.322 -0.1623  0.1982 -0.5330
13274TIP3   OH261312   5.807   1.330   4.999  0.1412 -0.4771  0.2066
13274TIP3    H161313   5.801   1.274   4.922 -0.2307  0.1484 -0.2274
13274TIP3    H261314   5.760   1.281   5.067 -2.6181  0.4473 -0.8636
13275TIP3   OH261315   0.287   3.922   1.059 -0.1210  0.5213  0.0295
13275TIP3    H161316   0.329   3.854   1.111  1.4974  0.7255 -0.9661
13275TIP3    H261317   0.276   3.996   1.119  1.0622  0.5034  0.2734
13276TIP3   OH261318   4.992   0.874  14.311 -0.4035  0.4124 -0.2412
13276TIP3    H161319   4.960   0.787  14.336  1.5181 -0.4741 -0.7235
13276TIP3    H261320   4.915   0.931  14.319 -1.4220 -1.0826  1.2592
13277TIP3   OH261321   6.201   0.192   3.380 -0.5337  0.1714 -0.1930
13277TIP3    H161322   6.209   0.140   3.300  0.3552 -0.3791  0.2388
13277TIP3    H261323   6.286   0.234   3.390 -0.1426 -0.8897  1.2111
13278TIP3   OH261324   1.473   3.565  12.228 -0.0957 -0.1126  0.4060
13278TIP3    H161325   1.536   3.602  12.290  0.4396 -1.3089  0.6293
13278TIP3    H261326   1.418   3.508  12.282 -1.4941  1.0397  0.2331
13279TIP3   OH261327   4.016   0.570  11.632  0.0261 -0.1406  0.1353
13279TIP3    H161328   4.062   0.648  11.664  2.1493 -1.5174  0.6689
13279TIP3    H261329   3.924   0.595  11.632  0.5458  2.0626  1.1673
13280TIP3   OH261330   0.691   1.709   3.645 -0.5316  0.0060 -0.3070
13280TIP3    H161331   0.605   1.750   3.635  0.1495  1.3132 -1.1398
13280TIP3    H261332   0.746   1.752   3.580  0.7410 -0.8623  0.1491
13281TIP3   OH261333   4.381   3.182  16.683 -1.4834  0.5534  0.0243
13281TIP3    H161334   4.392   3.088  16.671  0.3445  1.0084 -2.9490
13281TIP3    H261335   4.317   3.207  16.617  0.1733  1.7051 -1.2400
13282TIP3   OH261336   4.761   3.714  16.742  0.0196  0.0658 -0.1390
13282TIP3    H161337   4.702   3.727  16.816 -0.0168  0.5238 -0.2461
13282TIP3    H261338   4.790   3.623  16.750 -1.2256 -0.3821 -0.4540
13283TIP3   OH261339   0.296   3.221   4.711 -0.5165  0.2199 -0.1733
13283TIP3    H161340   0.362   3.283   4.743 -0.3134 -0.3220  0.4739
13283TIP3    H261341   0.298   3.231   4.616  1.9992 -1.2729 -0.3648
13284TIP3   OH261342   3.559   2.474   3.270  0.5277  0.1841 -0.3861
13284TIP3    H161343   3.618   2.537   3.311  0.9132  1.2491 -2.4553
13284TIP3    H261344   3.584   2.390   3.307  1.3408  0.9964  0.9730
13285TIP3   OH261345   1.934   5.123   0.164 -0.4135  0.1186  0.1267
13285TIP3    H161346   1.922   5.202   0.112 -0.8209 -0.1947 -0.2600
13285TIP3    H261347   1.858   5.121   0.223 -0.4033  0.0199  0.1374
13286TIP3   OH261348   5.460   2.628   2.501  0.2000  0.4649  0.0415
13286TIP3    H161349   5.425   2.678   2.575 -1.5701  0.0415 -0.4669
13286TIP3    H261350   5.438   2.681   2.425 -0.3405 -0.3471 -0.3800
13287TIP3   OH261351   2.816   6.047  14.733 -0.4739  0.5093  0.0292
13287TIP3    H161352   2.877   6.120  14.726  1.9296 -0.8201  3.7918
13287TIP3    H261353   2.867   5.970  14.708 -1.2413 -0.4089  1.1821
13288TIP3   OH261354   4.008   3.186   6.142 -0.5836  0.0301 -0.1591
13288TIP3    H161355   3.984   3.093   6.151 -0.6346  0.1763  1.5320
13288TIP3    H261356   3.998   3.222   6.230 -2.8732  2.2319 -1.1905
13289TIP3   OH261357   3.564   5.565   6.640 -0.1662 -0.0777 -0.1471
13289TIP3    H161358   3.518   5.621   6.577 -1.3723 -2.2244 -1.2798
13289TIP3    H261359   3.649   5.549   6.599 -0.7747 -1.0875 -1.0815
13290TIP3   OH261360   4.494   3.833  11.861 -0.1972  0.2984  0.4072
13290TIP3    H161361   4.585   3.837  11.831 -0.2908 -0.9877 -0.1129
13290TIP3    H261362   4.448   3.896  11.805  0.0851 -0.2316 -0.4453
13291TIP3   OH261363   1.717   5.488   5.290 -0.2570  0.4094 -0.2840
13291TIP3    H161364   1.742   5.412   5.238 -0.7285  1.1546 -1.6297
13291TIP3    H261365   1.794   5.507   5.344  0.6788  0.3480 -1.5766
13292TIP3   OH261366   4.648   4.001   2.586  0.2290  0.1717 -0.0266
13292TIP3    H161367   4.725   4.042   2.547  1.1391  0.2835  1.7843
13292TIP3    H261368   4.673   3.985   2.677 -1.4605 -0.9275  0.2879
13293TIP3   OH261369   5.588   4.766   0.669 -0.0981  0.3408 -0.3439
13293TIP3    H161370   5.551   4.847   0.704 -3.5359 -0.9319 -0.5767
13293TIP3    H261371   5.611   4.715   0.747 -1.1565  0.2595 -0.0631
13294TIP3   OH261372   4.336   6.101   3.290 -0.2843  0.2891  0.1664
13294TIP3    H161373   4.322   6.041   3.217  1.0357 -0.9688  0.9098
13294TIP3    H261374   4.421   6.076   3.326 -1.1671  0.4446  2.5213
13295TIP3   OH261375   1.823   0.515  14.550 -0.1245  0.0331  0.0699
13295TIP3    H161376   1.833   0.480  14.462  0.2945  1.5729 -0.5333
13295TIP3    H261377   1.762   0.455  14.593 -1.1630 -0.1674 -1.5923
13296TIP3   OH261378   2.271   4.167  15.630 -0.3252 -0.1539  0.0604
13296TIP3    H161379   2.228   4.102  15.575  0.1282 -0.4546  0.0540
13296TIP3    H261380   2.315   4.225  15.568  0.2943 -0.5696  0.1026
13297TIP3   OH261381   2.924   4.759  14.399 -0.1253  0.7784 -0.1548
13297TIP3    H161382   2.840   4.733  14.439  0.7569  0.6629  1.7478
13297TIP3    H261383   2.971   4.804  14.469  1.6201  0.3982 -1.0264
13298TIP3   OH261384   2.802   6.620  11.850 -0.5026  0.2122 -0.1987
13298TIP3    H161385   2.839   6.549  11.902  1.3041  0.4891 -1.0489
13298TIP3    H261386   2.712   6.628  11.882 -0.6151 -2.1302  0.2441
13299TIP3   OH261387   3.432   5.086  13.019  0.0880  0.4399 -0.3591
13299TIP3    H161388   3.506   5.128  13.063  0.7541 -0.1486 -0.8872
13299TIP3    H261389   3.395   5.154  12.964 -0.5010  1.0709  0.7929
13300TIP3   OH261390   5.734   0.126   4.135 -0.6584  0.1255 -0.1344
13300TIP3    H161391   5.804   0.089   4.188  0.1686 -0.4969 -1.6173
13300TIP3    H261392   5.656   0.075   4.159 -0.2835 -0.2086  0.3916
13301TIP3   OH261393   4.682   1.419   3.103  0.0215  0.3073 -0.6595
13301TIP3    H161394   4.592   1.432   3.133  0.4082 -0.4853  1.0181
13301TIP3    H261395   4.733   1.482   3.153  0.5394 -0.1426 -0.6049
13302TIP3   OH261396   1.937   4.034   0.591 -0.0363  0.1482 -0.5837
13302TIP3    H161397   1.892   4.050   0.508  0.0313  2.5077 -0.2282
13302TIP3    H261398   1.870   4.053   0.658 -0.7134 -3.5794  0.0203
13303TIP3   OH261399   3.053   2.548  16.243 -0.0991  0.2897  0.0862
13303TIP3    H161400   3.129   2.606  16.242  1.4868 -1.6547  1.1930
13303TIP3    H261401   2.978   2.607  16.247  1.3025  2.2864 -1.1738
13304TIP3   OH261402   5.358   2.915   6.287 -0.3783  0.0077 -0.2551
13304TIP3    H161403   5.346   2.932   6.380  0.9604  1.9465 -0.3725
13304TIP3    H261404   5.269   2.905   6.253 -0.9325  0.2764  1.0671
13305TIP3   OH261405   4.451   4.477  15.178 -0.0365 -0.2159 -0.2732
13305TIP3    H161406   4.539   4.456  15.208 -0.0359  0.4612  0.2326
13305TIP3    H261407   4.406   4.511  15.255 -0.7029 -0.4389 -0.5561
13306TIP3   OH261408   0.809   0.739   4.600 -0.0801 -0.0538 -0.4849
13306TIP3    H161409   0.843   0.667   4.547  0.6075 -0.1057  0.0197
13306TIP3    H261410   0.724   0.760   4.560  0.3713 -0.1673 -1.5295
13307TIP3   OH261411   6.683   4.516   3.903  0.0543  0.3796  0.0386
13307TIP3    H161412   6.674   4.565   3.822 -0.8638 -1.3096 -0.9335
13307TIP3    H261413   6.596   4.521   3.943  0.2750  0.4976  0.5117
13308TIP3   OH261414   1.432   0.706  16.558 -0.0612  0.5868  0.2139
13308TIP3    H161415   1.355   0.652  16.576 -1.6207  2.4477 -0.4760
13308TIP3    H261416   1.454   0.686  16.467  0.9154 -0.6497  0.6944
13309TIP3   OH261417   6.245   5.724  14.091  0.0229 -0.0113 -0.0135
13309TIP3    H161418   6.184   5.785  14.133  0.6998  0.5169  0.2165
13309TIP3    H261419   6.189   5.670  14.035 -0.3202  2.8217 -2.6798
13310TIP3   OH261420   4.114   3.466   0.120  0.2018  0.0853 -0.7454
13310TIP3    H161421   4.194   3.478   0.171 -0.0053 -0.3005 -0.3218
13310TIP3    H261422   4.145   3.447   0.031  0.5626  0.7967 -0.7818
13311TIP3   OH261423   4.432   1.050   3.892  0.3426  0.2654  0.2447
13311TIP3    H161424   4.417   0.987   3.821  2.1749  1.1079 -0.9794
13311TIP3    H261425   4.418   1.135   3.851  1.0787  0.7562  0.9881
13312TIP3   OH261426   2.960   2.777   3.068 -0.5761 -0.0807  0.2530
13312TIP3    H161427   3.000   2.840   3.128 -1.2394  0.5909  0.0148
13312TIP3    H261428   2.870   2.769   3.099 -0.2087 -1.7562  0.9330
13313TIP3   OH261429   0.661   4.404  13.648 -0.4388 -0.0643 -0.6736
13313TIP3    H161430   0.663   4.320  13.694  0.1891 -0.1876 -0.9255
13313TIP3    H261431   0.739   4.450  13.678  0.4092 -0.4544 -2.1993
13314TIP3   OH261432   1.666   3.926   1.951 -0.0947  0.0944 -0.1238
13314TIP3    H161433   1.598   3.993   1.948 -0.3069 -0.1112  0.0311
13314TIP3    H261434   1.620   3.844   1.931 -0.3314 -0.3776  2.0594
13315TIP3   OH261435   1.302   2.322  13.969 -1.0297  0.4758 -0.4024
13315TIP3    H161436   1.290   2.227  13.965 -2.3600  0.6624 -1.5000
13315TIP3    H261437   1.397   2.333  13.971 -0.8400 -0.8668 -0.6592
13316TIP3   OH261438   2.093   6.605  14.382 -0.3279 -0.6129 -0.3755
13316TIP3    H161439   2.073   6.566  14.297 -1.0269 -2.0025  0.3954
13316TIP3    H261440   2.154   6.676  14.362 -1.1101 -0.3820 -2.1162
13317TIP3   OH261441   2.314   3.784  13.831  0.0358  0.8812  0.0476
13317TIP3    H161442   2.278   3.765  13.918 -1.8886 -3.7380 -1.4730
13317TIP3    H261443   2.237   3.794  13.775  1.1795 -0.1232 -1.7664
13318TIP3   OH261444   2.298   6.282  14.154  0.5328  0.2302 -0.2946
13318TIP3    H161445   2.223   6.340  14.170  1.0287  0.9274 -0.4507
13318TIP3    H261446   2.326   6.255  14.241  1.0438  1.1985 -0.1472
13319TIP3   OH261447   0.500   2.373  16.612  0.0571  0.0458  0.0102
13319TIP3    H161448   0.480   2.458  16.651  1.1653 -1.0020  3.2316
13319TIP3    H261449   0.595   2.369  16.609  0.0069 -0.3584 -1.9769
13320TIP3   OH261450   1.744   2.948  12.683  0.0918  0.1528 -0.5698
13320TIP3    H161451   1.793   2.938  12.765 -0.6358  1.1315  0.0231
13320TIP3    H261452   1.680   3.018  12.703 -0.3365  0.1461 -1.8605
13321TIP3   OH261453   4.087   3.739  12.367  0.5229  0.7042  0.2367
13321TIP3    H161454   4.020   3.803  12.345 -2.3041 -2.6821 -2.3312
13321TIP3    H261455   4.139   3.730  12.287  1.8772  0.8367  1.0698
13322TIP3   OH261456   4.160   3.670   0.454  0.1704  0.5717 -0.0008
13322TIP3    H161457   4.064   3.671   0.455  0.1635  0.0828  0.2538
13322TIP3    H261458   4.184   3.738   0.391 -0.3598  0.3204 -0.4897
13323TIP3   OH261459   1.773   2.657  12.661 -0.1197  0.0167 -0.1358
13323TIP3    H161460   1.814   2.649  12.575  0.7956  0.8851  0.2011
13323TIP3    H261461   1.751   2.750  12.669  1.5608  0.3571  1.3048
13324TIP3   OH261462   5.227   4.087   1.949 -0.7898  0.3976  0.3280
13324TIP3    H161463   5.139   4.123   1.961 -1.5549 -0.8357 -1.1765
13324TIP3    H261464   5.228   4.058   1.857  1.2713  0.6020  0.2505
13325TIP3   OH261465   3.425   4.841  15.389 -0.2004  0.1450  0.3101
13325TIP3    H161466   3.370   4.881  15.322 -0.9937  0.5901  1.2096
13325TIP3    H261467   3.364   4.794  15.445  0.0579  2.0888  2.3545
13326TIP3   OH261468   5.182   1.167  15.979  0.3712  0.5097  0.3607
13326TIP3    H161469   5.268   1.126  15.991  0.1428 -0.0687  0.0302
13326TIP3    H261470   5.119   1.096  15.992 -0.0705  0.9616  0.7477
13327TIP3   OH261471   1.774   6.399   1.524 -0.0195 -0.0039  0.1715
13327TIP3    H161472   1.799   6.430   1.436 -0.7559 -0.1060 -0.0867
13327TIP3    H261473   1.839   6.334   1.547  0.5200  0.4518 -0.0513
13328TIP3   OH261474   5.936   6.286   5.767 -0.6941  0.3434  0.1864
13328TIP3    H161475   6.015   6.341   5.769  0.2841 -0.9776 -0.3670
13328TIP3    H261476   5.899   6.295   5.855 -0.9828  2.4148 -0.0780
13329TIP3   OH261477   1.305   4.065   6.404 -0.6640 -0.6149 -0.0791
13329TIP3    H161478   1.375   4.009   6.436 -1.5569 -0.4858  2.3191
13329TIP3    H261479   1.350   4.144   6.373  0.2732  0.3808  3.3706
13330TIP3   OH261480   2.217   4.786   4.717 -0.3768 -0.8591 -0.2268
13330TIP3    H161481   2.247   4.790   4.807 -2.7153 -0.2951  0.5866
13330TIP3    H261482   2.145   4.722   4.718  0.1606 -1.5758 -1.9078
13331TIP3   OH261483   5.566   0.230  10.793 -0.0150  0.0332  0.4794
13331TIP3    H161484   5.605   0.280  10.866  1.2848 -0.3707  0.0903
13331TIP3    H261485   5.641   0.197  10.744 -0.7837  2.0424 -2.2884
13332TIP3   OH261486   3.265   0.450  16.708 -0.6307  0.4918 -0.3358
13332TIP3    H161487   3.328   0.516  16.680  0.0494 -0.0968 -0.1900
13332TIP3    H261488   3.218   0.492  16.780  1.1604  0.1146  1.1187
13333TIP3   OH261489   4.806   1.945   3.912  0.3003  0.6203  0.0115
13333TIP3    H161490   4.789   1.988   3.828  0.8216 -0.7730 -0.8459
13333TIP3    H261491   4.773   1.856   3.900  0.1879  0.4650  1.3718
13334TIP3   OH261492   5.124   1.410   4.967  0.4173  0.2362 -0.4029
13334TIP3    H161493   5.212   1.446   4.979  1.0102 -0.1512 -3.0566
13334TIP3    H261494   5.111   1.406   4.872 -2.3090 -0.1474 -0.1219
13335TIP3   OH261495   3.674   2.265   2.392 -0.1133  0.7604 -0.1094
13335TIP3    H161496   3.724   2.280   2.311  1.0642 -2.4462 -0.1133
13335TIP3    H261497   3.723   2.313   2.459  1.9150 -0.7007 -0.4654
13336TIP3   OH261498   1.784   4.542   0.938  0.1968 -0.0235 -0.1786
13336TIP3    H161499   1.708   4.569   0.989  0.8411  1.3638  0.0919
13336TIP3    H261500   1.756   4.547   0.847 -0.1802  0.0131 -0.0623
13337TIP3   OH261501   2.165   3.579  14.870  0.0628 -0.0618 -0.1354
13337TIP3    H161502   2.227   3.557  14.801  0.0384  1.0962 -0.5561
13337TIP3    H261503   2.088   3.613  14.823 -0.6780 -0.9604  0.3976
13338TIP3   OH261504   2.336   3.117   4.793  0.4914 -0.0098 -0.3724
13338TIP3    H161505   2.398   3.153   4.857  0.8214 -2.1568  0.5834
13338TIP3    H261506   2.265   3.081   4.846 -1.6468  2.3476 -1.4434
13339TIP3   OH261507   2.705   5.176  16.579  0.2528 -0.3284 -0.0201
13339TIP3    H161508   2.710   5.254  16.633 -2.0352 -0.7631  0.9513
13339TIP3    H261509   2.627   5.130  16.610  0.5432 -2.1270 -1.7197
13340TIP3   OH261510   0.427   1.210  13.191 -0.6817 -0.3238 -0.0171
13340TIP3    H161511   0.406   1.116  13.189 -0.7121 -0.3359 -2.0781
13340TIP3    H261512   0.480   1.221  13.269 -1.5881 -1.8514  0.8669
13341TIP3   OH261513   2.060   0.066  15.732 -0.1690  0.3834 -0.5851
13341TIP3    H161514   2.029   0.155  15.753 -1.4193 -0.3201  0.7651
13341TIP3    H261515   2.002   0.037  15.662  0.3995  0.7137 -1.1974
13342TIP3   OH261516   0.346   6.108  13.553  0.1144 -0.7333  0.2371
13342TIP3    H161517   0.385   6.068  13.476 -1.0196 -0.0006 -0.7577
13342TIP3    H261518   0.379   6.198  13.554 -2.0178  0.1343 -1.0537
13343TIP3   OH261519   5.367   1.727  16.683 -0.2252  0.5644 -0.5280
13343TIP3    H161520   5.346   1.639  16.713 -0.8695 -0.0974 -2.7311
13343TIP3    H261521   5.462   1.725  16.668 -0.0585  0.6106  0.4331
13344TIP3   OH261522   2.548   2.451   0.845 -0.2972 -0.0236 -0.3016
13344TIP3    H161523   2.631   2.428   0.804  0.7996 -0.7585  2.1291
13344TIP3    H261524   2.492   2.375   0.829  0.1653 -0.3648 -0.3311
13345TIP3   OH261525   5.785   6.210  15.050  0.1025  0.2326  0.2976
13345TIP3    H161526   5.757   6.222  15.141 -0.2286  0.7875  0.1288
13345TIP3    H261527   5.709   6.238  14.998  0.9972  1.9038 -0.1760
13346TIP3   OH261528   4.504   3.402  13.490 -0.3040 -0.0543 -0.0060
13346TIP3    H161529   4.506   3.309  13.511  0.0106 -0.0849 -0.1617
13346TIP3    H261530   4.497   3.446  13.575  1.0937 -0.1713  0.2020
13347TIP3   OH261531   2.788   6.110  16.271  0.3910 -0.0913  0.3176
13347TIP3    H161532   2.780   6.124  16.177  2.3635  1.8445  0.3584
13347TIP3    H261533   2.864   6.051  16.281  0.7623  0.4464  0.7184
13348TIP3   OH261534   2.750   1.643  14.029 -0.1740  0.1089  0.5818
13348TIP3    H161535   2.769   1.737  14.029  1.0369 -0.1105 -0.5316
13348TIP3    H261536   2.826   1.603  14.071 -0.5208 -0.4109  0.7212
13349TIP3   OH261537   4.693   6.431   3.573  0.2085  0.0407 -0.4030
13349TIP3    H161538   4.665   6.341   3.554  0.3244 -0.2564  0.7519
13349TIP3    H261539   4.618   6.473   3.614  0.6016  0.0166  0.3737
13350TIP3   OH261540   4.082   3.664  10.824 -0.4697  0.1674 -0.3294
13350TIP3    H161541   4.171   3.661  10.859 -0.9331 -0.6792  0.8791
13350TIP3    H261542   4.075   3.750  10.783  1.0913  0.0108 -1.0003
13351TIP3   OH261543   0.517   1.590  15.193 -0.0713 -0.4786 -0.2965
13351TIP3    H161544   0.504   1.665  15.135  1.7585 -0.2739 -0.5133
13351TIP3    H261545   0.429   1.562  15.216 -0.8216  1.5739 -0.4268
13352TIP3   OH261546   0.689   4.702   5.512 -0.7099 -0.2025  0.1579
13352TIP3    H161547   0.704   4.795   5.497 -0.6694 -0.0769  0.9233
13352TIP3    H261548   0.618   4.679   5.452  0.2659 -0.0243 -1.0894
13353TIP3   OH261549   2.045   5.149   4.466 -0.7605  0.1932 -0.5358
13353TIP3    H161550   2.136   5.175   4.457 -0.3347 -0.4145  1.4750
13353TIP3    H261551   1.996   5.231   4.454 -0.0525  0.4112 -2.3009
13354TIP3   OH261552   4.880   5.339  13.921 -0.3207  0.2769  0.3199
13354TIP3    H161553   4.889   5.432  13.902  0.4452  0.3827  1.1275
13354TIP3    H261554   4.847   5.336  14.011 -0.5456 -0.2361  0.2271
13355TIP3   OH261555   5.207   3.089   2.693 -0.4228 -0.1429  0.2502
13355TIP3    H161556   5.165   3.013   2.732  1.7326 -1.9873 -0.7901
13355TIP3    H261557   5.137   3.132   2.643 -1.6528 -1.5130  0.7366
13356TIP3   OH261558   0.908   0.357  13.566  0.1662 -0.4700  0.2102
13356TIP3    H161559   0.975   0.420  13.542  0.3075 -0.5875  0.2970
13356TIP3    H261560   0.956   0.282  13.601  0.0054 -0.6856 -0.0285
13357TIP3   OH261561   5.944   0.018   3.650  0.2669  0.1398  0.1862
13357TIP3    H161562   5.932  -0.014   3.561  0.8005  1.3073 -0.3289
13357TIP3    H261563   5.898   0.102   3.652  2.5097  1.4543  0.1572
13358TIP3   OH261564   3.548   5.510   1.414  0.6406 -0.1397  0.3243
13358TIP3    H161565   3.552   5.424   1.456 -0.4432 -0.1122  0.5137
13358TIP3    H261566   3.630   5.517   1.365  1.0195 -1.0134  0.8181
13359TIP3   OH261567   3.047   3.695   6.116 -0.0622 -1.1276 -0.5461
13359TIP3    H161568   2.952   3.701   6.109 -0.1143  2.3294  0.7894
13359TIP3    H261569   3.063   3.674   6.208  0.3269  1.4357  0.0674
13360TIP3   OH261570   2.036   5.688   6.553 -0.2966  0.3948 -0.4923
13360TIP3    H161571   2.009   5.701   6.462 -0.6007 -0.6056 -0.5618
13360TIP3    H261572   1.977   5.621   6.586  0.3289  0.1705  0.1976
13361TIP3   OH261573   3.580   0.244   6.351 -0.0384  0.8003  0.4588
13361TIP3    H161574   3.494   0.284   6.335  0.0359  0.8420  0.1567
13361TIP3    H261575   3.641   0.297   6.299 -0.1256 -0.6154 -1.1768
13362TIP3   OH261576   3.259   3.237  14.077  0.1377  0.3372 -0.1882
13362TIP3    H161577   3.346   3.252  14.115  0.8769  1.2064 -2.1156
13362TIP3    H261578   3.260   3.144  14.053  0.0287  0.0255  0.9604
13363TIP3   OH261579   4.685   2.642   0.912  0.4879 -0.4005  0.0408
13363TIP3    H161580   4.642   2.636   0.997  1.0987 -1.8391  0.2668
13363TIP3    H261581   4.663   2.560   0.868  0.5877  0.1166 -0.9995
13364TIP3   OH261582   4.779   0.063  16.342  0.0079 -0.0697  0.1417
13364TIP3    H161583   4.724   0.130  16.382  0.3660  0.4844 -0.2737
13364TIP3    H261584   4.772  -0.013  16.400 -1.4445 -0.1224 -0.0747
13365TIP3   OH261585   1.463   0.552   0.175 -0.2745  0.0989 -0.3346
13365TIP3    H161586   1.559   0.555   0.177 -0.1347 -2.5197 -0.4236
13365TIP3    H261587   1.436   0.584   0.261  0.4947  3.0434 -1.0569
13366TIP3   OH261588   4.042   5.923   3.109 -0.5983  0.0610  0.0018
13366TIP3    H161589   3.968   5.984   3.106 -1.7797 -1.3205 -0.9017
13366TIP3    H261590   4.081   5.928   3.021  0.0078  0.3377  0.2820
13367TIP3   OH261591   1.517   1.956  16.710  0.3152  0.0682 -0.2903
13367TIP3    H161592   1.554   1.957  16.798 -0.1756  0.2045 -0.0784
13367TIP3    H261593   1.570   1.892  16.662 -0.3430 -1.1372  0.5289
13368TIP3   OH261594   4.846   5.365   3.822 -0.2616 -0.3450 -0.2562
13368TIP3    H161595   4.760   5.327   3.804 -0.0492 -0.6842 -0.5589
13368TIP3    H261596   4.881   5.314   3.895 -1.1592  1.0862  1.2408
13369TIP3   OH261597   1.324   0.529  11.993 -0.0046  0.4563  0.2724
13369TIP3    H161598   1.262   0.582  12.043 -1.4750  1.2494 -2.2195
13369TIP3    H261599   1.271   0.461  11.952  0.8633  0.6220 -1.2144
13370TIP3   OH261600   0.855   2.035  16.621  0.0663  0.0993  0.3205
13370TIP3    H161601   0.862   2.117  16.669  0.5447  0.8042 -0.8984
13370TIP3    H261602   0.942   2.022  16.583 -0.4355 -0.1431 -0.7749
13371TIP3   OH261603   1.193   3.333   0.517 -0.4406  0.3668 -0.1247
13371TIP3    H161604   1.113   3.281   0.527  0.0885 -0.2990  0.8636
13371TIP3    H261605   1.182   3.405   0.579 -0.9922  1.2230 -1.1970
13372TIP3   OH261606   1.612   3.863   4.352  0.0841 -0.1935 -0.0342
13372TIP3    H161607   1.684   3.916   4.385  1.4426 -1.9645 -0.0578
13372TIP3    H261608   1.558   3.925   4.303  0.7382  1.4754  1.2482
13373TIP3   OH261609   4.318   5.398   1.905 -0.0078  0.2935  0.6741
13373TIP3    H161610   4.337   5.307   1.882  0.2590  0.5293 -0.0658
13373TIP3    H261611   4.361   5.411   1.989 -1.3814 -0.7265  1.5769
13374TIP3   OH261612   3.955   5.828  16.580  0.5587  0.1031 -0.0339
13374TIP3    H161613   4.027   5.826  16.643 -0.6002  1.0907  1.3779
13374TIP3    H261614   3.993   5.866  16.501  2.0193 -1.0785  0.0598
13375TIP3   OH261615   4.093   0.746   3.904 -0.0025 -0.3211 -0.1053
13375TIP3    H161616   4.113   0.834   3.935 -1.6852 -0.5700  1.9162
13375TIP3    H261617   3.999   0.735   3.920 -0.1901 -1.8895 -1.9260
13376TIP3   OH261618   6.503   6.368   4.160  0.1000 -0.9697  0.2566
13376TIP3    H161619   6.494   6.462   4.147 -0.0654 -1.0387 -0.1344
13376TIP3    H261620   6.421   6.341   4.202  1.1244 -0.5436  2.6853
13377TIP3   OH261621   1.111   6.828   1.714 -0.6083 -0.2533  0.1798
13377TIP3    H161622   1.133   6.869   1.630  2.4045 -0.2366  0.8649
13377TIP3    H261623   1.176   6.759   1.724 -2.5115 -1.9781  1.3684
13378TIP3   OH261624   3.158   0.977   4.185  0.4801  0.6428  0.3208
13378TIP3    H161625   3.110   0.894   4.191  0.9304  0.2964 -0.7769
13378TIP3    H261626   3.220   0.964   4.114  1.5760  1.4155  1.0983
13379TIP3   OH261627   1.832   2.803   1.232 -0.6492  0.1927 -0.2323
13379TIP3    H161628   1.789   2.801   1.146  0.3610 -0.0109 -0.7390
13379TIP3    H261629   1.773   2.857   1.286 -2.2458 -1.1733 -0.5004
13380TIP3   OH261630   1.972   5.138  16.960  0.2378 -0.6032  0.2759
13380TIP3    H161631   1.896   5.181  17.000  1.9050  1.8195  1.1138
13380TIP3    H261632   1.949   5.130  16.868 -1.3925 -0.8048  0.6758
13381TIP3   OH261633   5.025   4.023  13.440 -0.4832 -0.5057 -0.4174
13381TIP3    H161634   5.082   4.019  13.516 -0.3741 -0.6893 -0.5077
13381TIP3    H261635   5.078   3.990  13.368 -0.4503  0.0671 -0.6586
13382TIP3   OH261636   0.886   4.579  14.290  0.2778  0.1835  0.3386
13382TIP3    H161637   0.831   4.508  14.322  0.3802  0.0749  0.2751
13382TIP3    H261638   0.851   4.657  14.332 -1.9913  0.6323 -2.1378
13383TIP3   OH261639   1.541   4.425   1.288  0.3543  0.1843  0.0918
13383TIP3    H161640   1.534   4.496   1.224  0.1456  1.7271  1.7514
13383TIP3    H261641   1.450   4.405   1.311  0.4424 -0.1233  0.1755
13384TIP3   OH261642   5.337   1.971   5.415  0.4540  0.5137 -0.2735
13384TIP3    H161643   5.356   1.937   5.327 -0.4410  0.4724 -0.4605
13384TIP3    H261644   5.351   2.065   5.408 -0.5639  0.6344 -0.7265
13385TIP3   OH261645   0.580   6.222   3.382  0.5751  0.0576  0.3545
13385TIP3    H161646   0.521   6.297   3.377  0.2414 -0.1311  1.3331
13385TIP3    H261647   0.536   6.160   3.440  1.1764 -0.5983  0.1272
13386TIP3   OH261648   1.617   3.681  14.354  0.4603 -0.9206 -0.4467
13386TIP3    H161649   1.689   3.660  14.294  1.6716  0.8616  0.2957
13386TIP3    H261650   1.620   3.612  14.421  1.1248 -1.1649 -0.7212
13387TIP3   OH261651   1.377   1.721   1.200  0.1075  0.0615 -0.3481
13387TIP3    H161652   1.333   1.701   1.117 -0.2446 -1.0991  0.0957
13387TIP3    H261653   1.374   1.639   1.249 -0.6248  0.9753  1.2388
13388TIP3   OH261654   0.654   1.037   3.740 -0.3407  0.2181 -0.0811
13388TIP3    H161655   0.596   0.981   3.792  1.7303 -0.2710  1.8576
13388TIP3    H261656   0.608   1.049   3.657 -1.7836 -2.7136  0.1725
13389TIP3   OH261657   5.301   2.143  14.290  0.6366 -0.2237 -0.1706
13389TIP3    H161658   5.379   2.138  14.235  1.4584  0.2235  0.9196
13389TIP3    H261659   5.271   2.053  14.299  0.0801 -0.2496 -1.8706
13390TIP3   OH261660   2.245   1.239  15.698 -0.5275 -0.0636  0.1600
13390TIP3    H161661   2.157   1.207  15.683 -0.6943  0.0070  0.9548
13390TIP3    H261662   2.233   1.331  15.724 -0.1223  0.3835 -1.1371
13391TIP3   OH261663   2.720   4.209  12.882 -0.0976 -0.0718  0.2748
13391TIP3    H161664   2.708   4.191  12.976  0.5157 -0.7687  0.2258
13391TIP3    H261665   2.641   4.258  12.858  0.4139  1.4304  1.4811
13392TIP3   OH261666   2.651   4.680  17.065 -0.5277  0.1920 -0.1783
13392TIP3    H161667   2.735   4.636  17.079  0.2010  1.1242 -1.3765
13392TIP3    H261668   2.649   4.750  17.130 -0.7960 -0.3600  0.4248
13393TIP3   OH261669   2.152   4.676   2.299  0.0141  0.1999  0.3423
13393TIP3    H161670   2.156   4.771   2.295  1.9676  0.1602  0.5714
13393TIP3    H261671   2.194   4.654   2.383 -2.5732 -0.7872  1.4846
13394TIP3   OH261672   3.997   2.087   1.715 -0.1144 -0.2970  0.1187
13394TIP3    H161673   3.972   2.105   1.625 -1.0291  0.7947  0.5667
13394TIP3    H261674   4.086   2.122   1.722 -0.4470  0.6313 -0.0809
13395TIP3   OH261675   5.960   4.699   2.909  0.2176 -0.2640 -0.0213
13395TIP3    H161676   5.911   4.638   2.964  0.4373 -0.0929  0.3650
13395TIP3    H261677   6.022   4.741   2.968 -0.9506  1.4513  0.0816
13396TIP3   OH261678   6.426   4.358   2.407 -0.3556 -0.6379  0.2883
13396TIP3    H161679   6.446   4.364   2.314 -0.7889 -2.0412  0.0840
13396TIP3    H261680   6.402   4.447   2.432  0.9074  0.0056 -0.6530
13397TIP3   OH261681   6.212   2.396  15.968  0.3234  0.1579 -0.1315
13397TIP3    H161682   6.208   2.378  15.874 -0.5880 -1.2005  0.1487
13397TIP3    H261683   6.192   2.490  15.974  1.4416  0.5046 -1.3549
13398TIP3   OH261684   6.709   3.103   3.335  0.0677  0.7319 -0.3269
13398TIP3    H161685   6.664   3.021   3.314  1.6605  0.0623 -1.2769
13398TIP3    H261686   6.644   3.171   3.316 -1.0484 -0.2543 -0.1913
13399TIP3   OH261687   0.579   6.152  16.894  0.2359  0.1601  0.2773
13399TIP3    H161688   0.537   6.113  16.817  0.7193 -1.0359  0.6022
13399TIP3    H261689   0.640   6.085  16.925  0.6143  0.9281  1.2480
13400TIP3   OH261690   0.469   6.365   2.104  0.3113  0.1773  0.7090
13400TIP3    H161691   0.379   6.397   2.094 -0.8866 -3.2138 -1.3948
13400TIP3    H261692   0.481   6.354   2.198 -2.3226 -1.1940  0.9767
13401TIP3   OH261693   2.067   1.809  13.361 -0.2421 -0.4168  0.1489
13401TIP3    H161694   2.044   1.862  13.284 -1.2844 -0.0775  0.6691
13401TIP3    H261695   1.984   1.800  13.409  0.4802 -0.1929  1.4944
13402TIP3   OH261696   5.358   1.659  16.404  0.3794 -0.1904 -0.0847
13402TIP3    H161697   5.415   1.604  16.350 -0.9917 -1.4986 -0.2629
13402TIP3    H261698   5.419   1.712  16.456  1.7396 -0.1452 -1.6357
13403TIP3   OH261699   3.174   5.704  12.369  0.1323 -0.5169  0.7964
13403TIP3    H161700   3.144   5.788  12.333 -1.4948 -1.3870  0.0063
13403TIP3    H261701   3.180   5.719  12.464  2.3168  1.1740  0.4482
13404TIP3   OH261702   5.640   3.487   4.918 -0.4543 -0.0396  0.0585
13404TIP3    H161703   5.567   3.473   4.978 -0.2981  0.6295  0.4133
13404TIP3    H261704   5.714   3.512   4.974 -0.0149 -0.4603 -0.3169
13405TIP3   OH261705   5.135   5.700  10.991 -0.4300 -0.1007  0.1825
13405TIP3    H161706   5.094   5.693  10.905  1.1707 -0.5008 -0.5678
13405TIP3    H261707   5.072   5.658  11.051 -1.4228 -0.0746 -0.8097
13406TIP3   OH261708   4.425   4.329  12.746 -0.1889 -0.2957 -0.1914
13406TIP3    H161709   4.388   4.318  12.833 -1.6603 -0.1161 -0.7544
13406TIP3    H261710   4.372   4.273  12.690 -0.3761  0.8579 -1.2331
13407TIP3   OH261711   6.393   5.509   0.100  0.3345 -0.0638  0.0919
13407TIP3    H161712   6.435   5.463   0.172  0.5032  1.4597  1.0306
13407TIP3    H261713   6.465   5.537   0.044  0.9119  3.4957  2.2630
13408TIP3   OH261714   3.534   2.276   5.497 -0.1648 -0.2204 -0.8342
13408TIP3    H161715   3.609   2.246   5.445  0.1454  1.4119 -1.4020
13408TIP3    H261716   3.531   2.217   5.572  1.0682 -0.9405 -1.3230
13409TIP3   OH261717   5.683   1.094   0.141 -0.1518  0.3243 -0.1042
13409TIP3    H161718   5.626   1.150   0.089  0.3971  1.7244  0.7360
13409TIP3    H261719   5.757   1.151   0.165  0.7390 -0.9446  0.2649
13410TIP3   OH261720   3.798   6.624   6.626  0.1476 -0.0574 -0.2867
13410TIP3    H161721   3.881   6.637   6.672  0.7676 -1.1853 -1.0463
13410TIP3    H261722   3.800   6.690   6.556 -0.3870  1.0506  0.7063
13411TIP3   OH261723   5.030   5.024   3.141  0.0326  0.5082 -0.6726
13411TIP3    H161724   4.966   5.029   3.212  1.4994  1.2257  0.6541
13411TIP3    H261725   5.026   5.110   3.099  1.5680  1.3341  0.7678
13412TIP3   OH261726   2.888   0.102  16.334  0.5465  0.6840 -0.5151
13412TIP3    H161727   2.805   0.121  16.377  1.0183  1.8288 -0.0657
13412TIP3    H261728   2.924   0.028  16.382  0.0316  0.5237 -0.3718
13413TIP3   OH261729   5.851   3.781  16.547 -0.3551 -0.1688 -0.4513
13413TIP3    H161730   5.897   3.864  16.562 -0.7016 -0.1034  0.3360
13413TIP3    H261731   5.822   3.786  16.456 -1.6167  1.2358 -0.0293
13414TIP3   OH261732   2.085   0.153  13.354  0.2593 -0.1530  0.1855
13414TIP3    H161733   2.058   0.100  13.279  0.8182 -0.5972  0.2857
13414TIP3    H261734   2.109   0.238  13.317 -0.7329  0.0714  0.0342
13415TIP3   OH261735   0.858   0.290  10.388  0.0260  0.4959 -0.0294
13415TIP3    H161736   0.918   0.363  10.374 -0.8216  1.3975  0.8797
13415TIP3    H261737   0.914   0.219  10.418  0.9342  0.5851 -1.3772
13416TIP3   OH261738   5.959   1.589  13.236  0.4527  0.1420  0.7434
13416TIP3    H161739   5.964   1.495  13.256  0.9587 -0.2145 -0.9283
13416TIP3    H261740   5.885   1.597  13.176 -0.6882  1.1048  2.1942
13417TIP3   OH261741   3.626   6.404  16.861  0.5710 -0.3331 -0.2712
13417TIP3    H161742   3.641   6.486  16.814 -0.8065  0.4346  0.5660
13417TIP3    H261743   3.541   6.373  16.830  1.2807 -1.7324 -0.9343
13418TIP3   OH261744   5.793   6.451  13.778  0.5003 -0.5944  0.6703
13418TIP3    H161745   5.817   6.543  13.786 -0.0766 -0.5200  1.8594
13418TIP3    H261746   5.744   6.446  13.696  0.3028  0.2096  0.7289
13419TIP3   OH261747   4.648   1.602   5.451  0.3640 -0.2690  0.4804
13419TIP3    H161748   4.559   1.572   5.472 -0.0604  0.2909 -0.4326
13419TIP3    H261749   4.697   1.589   5.532 -1.0113  1.2096  1.6293
13420TIP3   OH261750   2.670   4.471   5.140  0.4374  0.0824  0.1883
13420TIP3    H161751   2.659   4.406   5.210 -0.9643  0.3158  0.2125
13420TIP3    H261752   2.657   4.555   5.184 -2.5880  0.1656 -0.6592
13421TIP3   OH261753   5.689   2.009  10.740  0.0195 -0.2156  0.1415
13421TIP3    H161754   5.782   1.987  10.745 -0.1937 -1.0493  0.7470
13421TIP3    H261755   5.657   1.997  10.829 -0.6745  0.0526 -0.0657
13422TIP3   OH261756   4.474   3.573  16.240 -0.3554 -0.1885  0.7019
13422TIP3    H161757   4.545   3.585  16.176  0.0748 -0.4045  1.1245
13422TIP3    H261758   4.515   3.591  16.324 -0.9298  0.1284  0.9152
13423TIP3   OH261759   1.731   5.596  11.791  0.4203  0.1722  0.1935
13423TIP3    H161760   1.716   5.540  11.868 -0.2997 -0.7335 -0.5792
13423TIP3    H261761   1.647   5.640  11.777  0.5038  0.2198 -0.1607
13424TIP3   OH261762   3.654   0.427  16.970 -0.0888  0.1126 -0.2409
13424TIP3    H161763   3.583   0.490  16.983  0.8553  1.1680  0.0316
13424TIP3    H261764   3.732   0.482  16.960  0.9877 -1.0352  1.4100
13425TIP3   OH261765   1.422   5.472  16.574  0.3335  0.2076  0.0090
13425TIP3    H161766   1.410   5.380  16.551  2.6620 -0.3213  0.5879
13425TIP3    H261767   1.373   5.483  16.655  2.5573 -1.5057  1.7418
13426TIP3   OH261768   4.058   2.269   0.238 -0.0628 -0.4116  0.3970
13426TIP3    H161769   4.111   2.293   0.314  0.2969 -0.6387  0.2188
13426TIP3    H261770   4.090   2.183   0.212  1.4624  0.6181 -1.4365
13427TIP3   OH261771   3.382   5.924   3.362  0.0345  0.0438 -0.2017
13427TIP3    H161772   3.361   5.948   3.452  1.5550  0.1091  0.1508
13427TIP3    H261773   3.297   5.908   3.321 -0.6610 -0.2803  1.3174
13428TIP3   OH261774   4.180   0.976   4.058 -0.1723  0.2741  0.8274
13428TIP3    H161775   4.135   1.050   4.100  1.9093  1.5491  0.9312
13428TIP3    H261776   4.255   1.015   4.014  0.2937 -1.6525 -0.1975
13429TIP3   OH261777   4.720   2.194  12.231  0.5344  0.2638  0.2284
13429TIP3    H161778   4.789   2.198  12.297 -1.4328  2.6968  2.3569
13429TIP3    H261779   4.641   2.223  12.277 -1.7188 -1.2124 -2.3711
13430TIP3   OH261780   1.338   5.385  13.303  0.2081 -0.0872  0.3456
13430TIP3    H161781   1.300   5.322  13.241  1.7627  0.9481 -1.8075
13430TIP3    H261782   1.368   5.457  13.248  0.7053  1.4288  2.4727
13431TIP3   OH261783   5.168   6.683  13.122  0.1312 -0.1405  0.1721
13431TIP3    H161784   5.091   6.644  13.164 -1.5399  2.1074 -0.5772
13431TIP3    H261785   5.155   6.665  13.028  1.8820 -1.8999  0.2143
13432TIP3   OH261786   3.974   2.833  14.477  0.0037 -0.2196  0.7218
13432TIP3    H161787   4.026   2.826  14.557 -1.0210 -0.3408  1.3938
13432TIP3    H261788   3.932   2.748  14.468 -1.9859  0.5992  1.5637
13433TIP3   OH261789   4.480   0.146  13.180 -0.2539  0.1993  0.7258
13433TIP3    H161790   4.563   0.180  13.147 -0.0856 -0.5216  0.3742
13433TIP3    H261791   4.467   0.189  13.264  0.9494 -0.3890  1.2199
13434TIP3   OH261792   6.304   0.599  14.375  0.5490  0.3710 -0.0136
13434TIP3    H161793   6.281   0.668  14.313 -0.0275 -1.0312 -1.4085
13434TIP3    H261794   6.224   0.585  14.425  1.1917  1.9445  1.5758
13435TIP3   OH261795   4.295   1.446  13.865 -0.1572  0.2185 -0.4599
13435TIP3    H161796   4.252   1.406  13.790  1.7663 -0.1686 -1.4383
13435TIP3    H261797   4.344   1.520  13.828  2.1698 -0.9632  0.0531
13436TIP3   OH261798   4.471   3.236  16.946 -0.1792 -0.1707 -0.1506
13436TIP3    H161799   4.409   3.247  16.874 -1.0216  0.7016  0.6740
13436TIP3    H261800   4.433   3.166  16.999 -0.8329  0.7778  0.6876
13437TIP3   OH261801   1.901   2.946   2.312 -0.4349 -0.3801 -0.2888
13437TIP3    H161802   1.918   2.911   2.224 -0.0610  0.3314 -0.5023
13437TIP3    H261803   1.966   2.903   2.368 -0.4616 -0.5898 -0.4187
13438TIP3   OH261804   2.567   4.991  14.567 -0.1787 -0.0832 -0.1030
13438TIP3    H161805   2.485   4.970  14.612 -0.9390 -0.1128 -1.4391
13438TIP3    H261806   2.578   5.086  14.579 -0.2593 -0.1255  0.3091
13439TIP3   OH261807   1.169   3.368   0.056  0.1787  0.4299 -0.6217
13439TIP3    H161808   1.142   3.289   0.102 -0.5700  1.2800  0.4373
13439TIP3    H261809   1.221   3.417   0.120  1.6316  0.2780 -1.6389
13440TIP3   OH261810   5.280   2.567  15.441  0.4751 -0.1151  0.2818
13440TIP3    H161811   5.342   2.608  15.380 -0.4826  1.1831  0.1531
13440TIP3    H261812   5.329   2.559  15.523  1.2996 -0.5250 -0.2332
13441TIP3   OH261813   2.964   3.947  10.637  0.0959  0.2667  0.4400
13441TIP3    H161814   2.900   3.917  10.572 -1.1021  1.8570  0.8160
13441TIP3    H261815   2.966   4.042  10.627  0.5609  0.4721  2.0984
13442TIP3   OH261816   4.498   1.266   3.257 -0.0842  0.1028  1.2930
13442TIP3    H161817   4.585   1.225   3.255 -0.2308 -0.2243  1.5184
13442TIP3    H261818   4.513   1.352   3.295  0.8781  1.8462 -2.5021
13443TIP3   OH261819   1.956   1.530  12.205  0.6905  0.5471  0.4544
13443TIP3    H161820   1.972   1.446  12.161  0.4005 -0.2005  1.7343
13443TIP3    H261821   2.041   1.553  12.244  0.5585  0.4133  0.8242
13444TIP3   OH261822   3.873   1.460   1.232  0.0532  0.2933  0.2494
13444TIP3    H161823   3.784   1.454   1.199  0.0250  2.5241 -0.2749
13444TIP3    H261824   3.870   1.419   1.318 -1.0492 -1.1879 -0.4582
13445TIP3   OH261825   5.043   3.604  14.507  0.4443  0.4429 -0.0122
13445TIP3    H161826   5.126   3.556  14.512  0.5642  0.4806 -1.3569
13445TIP3    H261827   5.067   3.688  14.469 -0.0317  0.9228  0.7491
13446TIP3   OH261828   6.507   4.114   0.778  0.4176  0.0408  0.0124
13446TIP3    H161829   6.505   4.128   0.873 -0.4099 -1.3592  0.2356
13446TIP3    H261830   6.550   4.029   0.768  1.6732  0.7648 -0.9746
13447TIP3   OH261831   3.627   3.076  17.041  0.1718  0.0599  0.4123
13447TIP3    H161832   3.629   2.982  17.058 -2.7048  0.1118  1.6964
13447TIP3    H261833   3.629   3.083  16.945  0.8314 -1.2556  0.3093
13448TIP3   OH261834   4.103   2.860  11.854 -0.1175  0.8941  0.1180
13448TIP3    H161835   4.190   2.822  11.867 -1.2037 -1.7620  0.1921
13448TIP3    H261836   4.075   2.888  11.942  0.2345  0.7744  0.2679
13449TIP3   OH261837   6.169   1.204   2.485  0.2357 -0.5178  0.6171
13449TIP3    H161838   6.238   1.158   2.534  2.5666  0.9025 -1.1720
13449TIP3    H261839   6.197   1.198   2.394 -0.4948  2.5517  0.1168
13450TIP3   OH261840   3.574   1.443  13.449 -0.2831  0.1241  0.1502
13450TIP3    H161841   3.527   1.380  13.504 -1.0056 -0.8886 -1.5688
13450TIP3    H261842   3.597   1.394  13.370  1.0635  1.4413 -0.3282
13451TIP3   OH261843   2.873   0.810   0.221 -0.1123  0.0555  0.1242
13451TIP3    H161844   2.888   0.791   0.129  1.7573  1.0842  0.1522
13451TIP3    H261845   2.890   0.904   0.229  1.5121 -0.3017  1.7786
13452TIP3   OH261846   3.081   1.819  16.662  0.4184  1.1120  0.2902
13452TIP3    H161847   3.085   1.789  16.753  2.1462 -0.1180 -0.1355
13452TIP3    H261848   3.108   1.910  16.666 -0.8363  1.4808  1.1400
13453TIP3   OH261849   5.153   6.327  14.284  0.3393  0.4007 -0.5645
13453TIP3    H161850   5.144   6.236  14.311 -0.4678  0.4731 -0.5683
13453TIP3    H261851   5.244   6.349  14.304  0.4937 -0.3537 -0.4141
13454TIP3   OH261852   1.497   2.867   0.647  0.2541  0.1488  0.1577
13454TIP3    H161853   1.415   2.821   0.629 -0.3348  1.0351  0.4988
13454TIP3    H261854   1.483   2.908   0.732 -0.5146  3.6554 -1.4722
13455TIP3   OH261855   4.781   5.631  12.491  0.3442  0.5993 -0.2531
13455TIP3    H161856   4.842   5.627  12.417 -0.9380  0.4174 -1.3305
13455TIP3    H261857   4.700   5.666  12.453 -0.8304 -0.9559  0.7244
13456TIP3   OH261858   6.136   4.479  13.627 -0.4461  0.7372 -0.1621
13456TIP3    H161859   6.149   4.444  13.539  0.0926 -0.2998  0.3035
13456TIP3    H261860   6.205   4.545  13.637 -3.6944  4.9308 -2.4192
13457TIP3   OH261861   5.290   6.786   2.719  0.4320 -0.1941  0.9748
13457TIP3    H161862   5.269   6.780   2.625  1.1164  0.3389  0.7778
13457TIP3    H261863   5.205   6.801   2.761  0.1126 -0.4640  0.4416
13458TIP3   OH261864   3.842   4.269   4.721  0.5799  0.2467 -0.1436
13458TIP3    H161865   3.885   4.350   4.749 -0.1159  0.1910  1.1751
13458TIP3    H261866   3.749   4.290   4.722  0.4544 -0.2327 -0.9712
13459TIP3   OH261867   2.247   1.423   5.617  0.0591  0.0827  0.1443
13459TIP3    H161868   2.220   1.492   5.555  0.1554 -1.0327 -1.1900
13459TIP3    H261869   2.167   1.402   5.665 -0.7758 -1.0529 -1.6553
13460TIP3   OH261870   2.074   1.816  15.544  0.1850  0.5746 -0.1377
13460TIP3    H161871   2.093   1.780  15.458  0.6291  0.6701 -0.0842
13460TIP3    H261872   2.153   1.865  15.567  0.3023  0.0722  0.5679
13461TIP3   OH261873   0.611   2.522   5.972  0.5731 -0.8242  0.0921
13461TIP3    H161874   0.602   2.613   5.943  0.1314 -1.2172 -1.0773
13461TIP3    H261875   0.591   2.525   6.066  0.2439  0.2345  0.0105
13462TIP3   OH261876   0.961   2.473  14.842 -0.2604 -0.2241  0.0291
13462TIP3    H161877   0.960   2.388  14.885  1.2353  0.1937  0.9488
13462TIP3    H261878   0.870   2.487  14.815 -0.6957 -1.7112  0.6194
13463TIP3   OH261879   4.940   6.439   4.752  0.0555 -0.2582 -0.8828
13463TIP3    H161880   4.848   6.417   4.764  0.1130 -0.0880 -0.1142
13463TIP3    H261881   4.986   6.355   4.761  0.2812  0.1013  2.1252
13464TIP3   OH261882   0.038   1.001  14.914 -0.4888  0.6821 -0.4161
13464TIP3    H161883   0.018   1.056  14.839  0.3779 -0.5407 -1.6139
13464TIP3    H261884   0.103   1.051  14.965  0.8271  0.5292 -1.8544
13465TIP3   OH261885   3.516   5.196  11.316  0.3559 -0.1395  0.7318
13465TIP3    H161886   3.479   5.121  11.269 -1.0617 -0.2165  1.9106
13465TIP3    H261887   3.508   5.269  11.254  0.0345 -0.5696  0.2585
13466TIP3   OH261888   5.269   5.507   1.170 -0.2419  0.2867  0.5453
13466TIP3    H161889   5.175   5.524   1.171 -0.4323 -0.7097  0.9401
13466TIP3    H261890   5.302   5.558   1.096 -1.3399 -0.5237 -0.5507
13467TIP3   OH261891   4.013   4.287  16.754 -0.0853 -0.1515  0.0043
13467TIP3    H161892   4.081   4.244  16.806  0.0317  0.3181  0.2545
13467TIP3    H261893   4.005   4.374  16.794 -1.8972 -0.6880  0.9646
13468TIP3   OH261894   3.452   1.396   1.779 -0.6808 -0.0505 -0.4883
13468TIP3    H161895   3.466   1.490   1.769 -0.7659  0.1206  0.8130
13468TIP3    H261896   3.371   1.389   1.829 -1.3630 -0.8571 -1.6804
13469TIP3   OH261897   4.991   4.353  12.518 -0.1652  0.3772 -0.1767
13469TIP3    H161898   4.937   4.275  12.513 -1.8574  1.4193  0.8048
13469TIP3    H261899   5.060   4.331  12.581  0.8712 -1.1185 -1.7723
13470TIP3   OH261900   6.543   1.495   0.507  0.1379  0.4069  0.3592
13470TIP3    H161901   6.460   1.504   0.460 -0.0316  0.1271  0.5956
13470TIP3    H261902   6.540   1.406   0.543  1.0454 -0.0229 -0.5783
13471TIP3   OH261903   2.212   2.337   0.292  0.5212 -0.6566 -0.2971
13471TIP3    H161904   2.244   2.265   0.236  1.2653 -1.1528  0.7180
13471TIP3    H261905   2.246   2.416   0.250  0.6369 -0.9764 -0.8269
13472TIP3   OH261906   5.542   3.578  15.426  0.1335  0.5744  0.2823
13472TIP3    H161907   5.611   3.531  15.379 -0.0112  0.7036 -0.0564
13472TIP3    H261908   5.479   3.510  15.449  1.0329  0.1975  1.8305
13473TIP3   OH261909   4.241   6.013  12.087  0.1445 -0.1626  0.1931
13473TIP3    H161910   4.220   5.932  12.133  0.0123  0.9140  2.1452
13473TIP3    H261911   4.290   5.985  12.010  1.5028 -2.0137  1.6287
13474TIP3   OH261912   5.025   4.609  17.081 -0.0030  0.1169 -0.2298
13474TIP3    H161913   5.112   4.637  17.054  0.0850 -0.2769 -0.3722
13474TIP3    H261914   5.003   4.664  17.156  1.0395 -0.8765  0.8300
13475TIP3   OH261915   3.254   3.176  15.020 -0.4904 -0.7758  0.3870
13475TIP3    H161916   3.247   3.138  15.108 -0.7497  0.1071  0.7646
13475TIP3    H261917   3.223   3.266  15.031 -1.5039 -0.9528 -0.8183
13476TIP3   OH261918   3.246   5.682  13.957 -0.7159 -0.0883 -0.4973
13476TIP3    H161919   3.338   5.697  13.977 -0.9417 -0.3021  0.7584
13476TIP3    H261920   3.237   5.707  13.865  0.2870  1.2814 -0.2433
13477TIP3   OH261921   1.970   3.553   1.306  0.1202  0.1821 -0.6538
13477TIP3    H161922   2.011   3.468   1.292 -0.7123 -0.2880 -0.2991
13477TIP3    H261923   2.034   3.603   1.357  1.0184  0.1173 -1.6817
13478TIP3   OH261924   2.174   6.037  14.095  0.6672 -0.5575  0.4305
13478TIP3    H161925   2.226   6.113  14.120  1.0663 -0.2253 -1.2964
13478TIP3    H261926   2.084   6.069  14.090  0.9323  0.0371 -1.0517
13479TIP3   OH261927   3.138   3.543  11.757 -0.1201  0.4940 -0.0211
13479TIP3    H161928   3.126   3.448  11.750 -1.9394  0.7267 -0.7271
13479TIP3    H261929   3.217   3.561  11.707  0.5136 -0.6825  0.5034
13480TIP3   OH261930   0.167   1.032   3.733  0.0357  0.4208 -0.1140
13480TIP3    H161931   0.129   1.092   3.668 -2.6698 -1.5549 -0.5133
13480TIP3    H261932   0.095   0.975   3.758  2.1958 -2.0082  1.0516
13481TIP3   OH261933   0.892   4.536  13.729 -0.3330  0.2498  0.4840
13481TIP3    H161934   0.938   4.530  13.813 -0.5795 -0.5838  0.5741
13481TIP3    H261935   0.962   4.532  13.664 -0.0934  1.4814  0.6464
13482TIP3   OH261936   1.340   0.732   2.900  0.3581 -0.2378  0.5413
13482TIP3    H161937   1.307   0.683   2.825  1.2279 -0.7637  0.4893
13482TIP3    H261938   1.263   0.745   2.955 -0.5919  1.3906 -1.0681
13483TIP3   OH261939   2.702   4.819  14.876  0.1541  0.1288  0.6804
13483TIP3    H161940   2.670   4.902  14.840  1.2414  0.3535  0.1852
13483TIP3    H261941   2.708   4.834  14.970  2.0031  1.2279  0.4271
13484TIP3   OH261942   2.218   3.314   4.204 -0.3225  0.2074  0.3256
13484TIP3    H161943   2.283   3.355   4.146  1.3273  0.0220  1.9495
13484TIP3    H261944   2.139   3.308   4.151  0.8041  1.0147 -1.5432
13485TIP3   OH261945   2.892   3.862   5.651 -0.7300 -0.5821  0.3412
13485TIP3    H161946   2.981   3.844   5.682 -0.6931  0.4624  0.8797
13485TIP3    H261947   2.836   3.844   5.727 -0.8926 -0.4696  0.2484
13486TIP3   OH261948   4.318   5.966  11.538  0.3452 -0.5339  0.1870
13486TIP3    H161949   4.237   5.954  11.489 -0.3666  1.7779  0.6720
13486TIP3    H261950   4.342   6.057  11.522  2.8966 -1.1716  0.0248
13487TIP3   OH261951   4.602   3.360   5.559 -0.2883 -0.1884  0.1899
13487TIP3    H161952   4.698   3.353   5.563 -0.1446  0.2466 -1.7492
13487TIP3    H261953   4.574   3.280   5.516 -0.6961  0.2429 -0.3488
13488TIP3   OH261954   0.513   3.761   1.000 -0.0215  0.0481 -0.5008
13488TIP3    H161955   0.457   3.822   0.951 -1.5990 -0.7986  0.1745
13488TIP3    H261956   0.599   3.802   0.999 -1.0333  2.3621 -0.0166
13489TIP3   OH261957   4.197   1.656   4.426  0.1175  0.0104  0.1638
13489TIP3    H161958   4.250   1.735   4.437 -0.0404  0.2577 -0.7620
13489TIP3    H261959   4.114   1.676   4.468  1.1417 -0.8436  2.7820
13490TIP3   OH261960   1.428   1.973   5.985  0.0083  0.0621  0.0403
13490TIP3    H161961   1.397   1.918   5.913 -0.5875  0.1667  0.2109
13490TIP3    H261962   1.350   2.021   6.013 -0.1295 -1.1257  1.8009
13491TIP3   OH261963   5.310   4.587  12.815  0.2720  0.0013 -0.5935
13491TIP3    H161964   5.360   4.534  12.753  0.0008  0.2536 -1.0310
13491TIP3    H261965   5.221   4.553  12.810  0.6038 -1.1897  1.0134
13492TIP3   OH261966   2.118   3.683   0.363  0.2738  0.0528  0.1374
13492TIP3    H161967   2.145   3.599   0.325 -1.1004 -0.3476 -0.0265
13492TIP3    H261968   2.086   3.660   0.450 -2.8559 -0.1433 -0.9218
13493TIP3   OH261969   3.600   3.527   0.533 -0.1331 -0.2090 -0.6219
13493TIP3    H161970   3.552   3.590   0.479  0.1794 -0.6451 -1.4174
13493TIP3    H261971   3.536   3.460   0.555 -0.3279  0.1002 -0.2140
13494TIP3   OH261972   1.694   1.882  12.073 -0.5755 -0.2637  0.4292
13494TIP3    H161973   1.632   1.856  12.141 -1.0045 -0.3297  0.0180
13494TIP3    H261974   1.670   1.828  11.997  1.4628 -2.0402  0.9262
13495TIP3   OH261975   3.919   4.101  16.547 -0.0467 -0.0369 -0.0344
13495TIP3    H161976   3.826   4.117  16.565  0.7218  3.7833  1.7489
13495TIP3    H261977   3.962   4.108  16.633  2.1957  2.1874 -1.1863
13496TIP3   OH261978   1.221   1.557  11.741  0.0596 -0.4048 -0.7736
13496TIP3    H161979   1.165   1.606  11.800  1.3659 -0.7970  0.8624
13496TIP3    H261980   1.248   1.620  11.675  1.5872  1.1117  1.1932
13497TIP3   OH261981   5.977   1.112  16.808 -0.2821  0.1328 -0.2765
13497TIP3    H161982   6.020   1.126  16.892  1.6594  0.8188 -1.3061
13497TIP3    H261983   5.945   1.021  16.812  0.2521 -0.0208  0.9925
13498TIP3   OH261984   0.962   0.145   0.344 -0.3026  0.3047 -0.1174
13498TIP3    H161985   0.918   0.090   0.408 -0.6044 -0.9711 -1.3501
13498TIP3    H261986   0.908   0.223   0.337  0.3045  0.9684  1.9068
13499TIP3   OH261987   6.741   2.276   0.413 -0.9054  0.1541  0.2396
13499TIP3    H161988   6.647   2.274   0.427 -0.8488 -0.3404  0.5802
13499TIP3    H261989   6.776   2.328   0.486 -1.1430  2.7287 -1.3566
13500TIP3   OH261990   3.239   3.332  12.639 -0.0646  0.2509 -0.1888
13500TIP3    H161991   3.281   3.303  12.720  0.6346  2.9573  0.5147
13500TIP3    H261992   3.209   3.251  12.598  1.2743 -1.3770  1.8066
13501TIP3   OH261993   4.944   2.950  12.061 -0.6108 -0.2344 -0.4842
13501TIP3    H161994   4.989   2.871  12.031 -0.3790  0.5243 -2.2661
13501TIP3    H261995   4.851   2.930  12.050 -0.6801 -0.9872  1.0941
13502TIP3   OH261996   0.903   4.301  14.775  0.0348  0.4699 -0.3170
13502TIP3    H161997   0.831   4.362  14.792  0.9319  1.2658  0.8196
13502TIP3    H261998   0.893   4.277  14.683 -1.0741  1.3768 -0.4570
13503TIP3   OH261999   3.374   3.184   0.323 -0.0022  0.4633  0.1549
13503TIP3    H162000   3.286   3.170   0.288 -0.6562  1.4189  1.3268
13503TIP3    H262001   3.424   3.222   0.250 -0.2441 -1.0090 -0.8220
13504TIP3   OH262002   2.955   3.935   1.471 -0.1114 -0.0546 -0.1682
13504TIP3    H162003   3.024   3.997   1.447  1.3385 -0.8531  1.6148
13504TIP3    H262004   2.996   3.879   1.537 -2.5460 -0.4741  1.0978
13505TIP3   OH262005   3.312   4.320   4.421  0.8000 -0.7242 -0.1703
13505TIP3    H162006   3.298   4.228   4.444  0.5010 -1.0462 -1.5372
13505TIP3    H262007   3.352   4.317   4.334  0.6689  0.4436 -0.2902
13506TIP3   OH262008   4.337   2.397   1.929 -0.0838  0.1139  0.4058
13506TIP3    H162009   4.429   2.391   1.956  0.3986 -0.0406 -1.1273
13506TIP3    H262010   4.304   2.476   1.971  0.9419  0.5074  0.4972
13507TIP3   OH262011   6.762   3.823  15.018  0.0960  0.3589 -0.3053
13507TIP3    H162012   6.741   3.899  14.963  2.0023  1.3959  0.3093
13507TIP3    H262013   6.857   3.816  15.013  0.3453  0.3428  2.6071
13508TIP3   OH262014   2.621   2.391  11.909  0.0179  0.0620 -0.7251
13508TIP3    H162015   2.652   2.435  11.830  0.3395 -0.2837 -0.7930
13508TIP3    H262016   2.664   2.438  11.981 -1.2165  1.1646 -0.6729
13509TIP3   OH262017   0.865   2.823  10.848 -0.8137  0.4971  0.0702
13509TIP3    H162018   0.913   2.906  10.853  0.8088 -0.3269 -1.0098
13509TIP3    H262019   0.858   2.806  10.754 -2.5055  0.1429  0.2311
13510TIP3   OH262020   4.371   1.607   4.178  0.4570 -0.6208  0.2432
13510TIP3    H162021   4.334   1.567   4.099  1.5196  0.3949 -0.8102
13510TIP3    H262022   4.301   1.663   4.211  0.4903  0.1254 -0.8745
13511TIP3   OH262023   3.420   3.176   4.761 -0.0595  0.1349  0.7866
13511TIP3    H162024   3.372   3.218   4.833  1.0188  1.1375  0.9599
13511TIP3    H262025   3.511   3.204   4.773  0.4872 -1.2565  0.1448
13512TIP3   OH262026   5.993   1.292   0.189  0.2918  0.0132 -0.1506
13512TIP3    H162027   5.955   1.318   0.273 -1.5603  0.2321 -1.0000
13512TIP3    H262028   6.084   1.322   0.194  0.0382  0.6316  1.4964
13513TIP3   OH262029   3.584   4.987   1.357  0.2886  0.3121 -0.8757
13513TIP3    H162030   3.619   5.072   1.385 -0.3269 -0.0484  1.2029
13513TIP3    H262031   3.525   5.008   1.285  0.5833  1.5860 -0.7679
13514TIP3   OH262032   1.145   4.445  13.095  0.1757  0.3630 -0.4407
13514TIP3    H162033   1.223   4.402  13.129  0.2887  1.0604  0.2048
13514TIP3    H262034   1.092   4.465  13.172 -0.6062 -0.0305 -0.8655
13515TIP3   OH262035   3.774   1.849  16.308  0.1749 -0.0031  0.1194
13515TIP3    H162036   3.718   1.905  16.254 -0.9723 -0.3316  0.9281
13515TIP3    H262037   3.748   1.870  16.398  0.8277 -0.7201  0.4832
13516TIP3   OH262038   1.075   1.371  16.993 -0.1015 -0.2137  0.3461
13516TIP3    H162039   1.146   1.434  17.008 -0.8341  0.9310 -0.8464
13516TIP3    H262040   1.119   1.293  16.960  0.7799 -0.1867  1.4092
13517TIP3   OH262041   3.669   5.535   2.440 -0.0547 -0.1704  0.0635
13517TIP3    H162042   3.684   5.516   2.532  0.0094 -1.1939 -0.1448
13517TIP3    H262043   3.750   5.575   2.409 -0.1488  0.3561  0.4910
13518TIP3   OH262044   5.451   3.368   5.126  0.3057  0.1001  0.1010
13518TIP3    H162045   5.491   3.355   5.212 -0.1475  2.5033  0.7555
13518TIP3    H262046   5.361   3.337   5.137  0.2416  0.4186  0.5134
13519TIP3   OH262047   4.486   6.854  15.249 -0.0013  0.3365 -0.9197
13519TIP3    H162048   4.474   6.870  15.156  1.8175  0.0302 -1.2434
13519TIP3    H262049   4.513   6.939  15.284 -1.1891  0.5771 -0.5607
13520TIP3   OH262050   6.129   1.681   4.442 -0.5581 -0.1753 -0.3839
13520TIP3    H162051   6.038   1.665   4.464 -0.3830 -1.4216 -0.5004
13520TIP3    H262052   6.136   1.657   4.350  0.0297 -0.7810 -0.1922
13521TIP3   OH262053   6.335   5.644  12.661  0.2641  0.2440  0.0797
13521TIP3    H162054   6.293   5.693  12.732  0.4006  0.1631  0.2201
13521TIP3    H262055   6.271   5.578  12.636 -0.3758  1.2149 -0.8995
13522TIP3   OH262056   2.170   6.720  16.628 -0.1649  0.1430 -0.3754
13522TIP3    H162057   2.115   6.695  16.702 -0.1304 -2.3999 -1.1159
13522TIP3    H262058   2.108   6.750  16.561 -0.4884 -0.6254 -0.4310
13523TIP3   OH262059   2.327   1.411  13.856  0.2840 -0.2894  0.0455
13523TIP3    H162060   2.351   1.330  13.810  0.5486 -0.4997  0.5402
13523TIP3    H262061   2.398   1.472  13.835  0.1050 -0.2027 -0.2975
13524TIP3   OH262062   1.386   5.755   1.569  0.7671 -0.1034  0.2250
13524TIP3    H162063   1.385   5.673   1.520  1.5909  0.6097 -1.0604
13524TIP3    H262064   1.294   5.778   1.580  0.5452 -0.3095 -1.0060
13525TIP3   OH262065   4.661   4.313   4.013 -0.1022 -0.1071 -0.0403
13525TIP3    H162066   4.726   4.248   3.985  1.9569  0.8019  2.3003
13525TIP3    H262067   4.582   4.261   4.030  1.1060 -1.8480  0.6015
13526TIP3   OH262068   2.429   0.300   6.119  0.0079 -0.1028 -0.2616
13526TIP3    H162069   2.463   0.351   6.045  2.1985  0.8936  1.2976
13526TIP3    H262070   2.344   0.339   6.139 -0.4092 -0.0965 -1.9284
13527TIP3   OH262071   2.588   6.368  16.306 -0.2165  0.3328 -0.4111
13527TIP3    H162072   2.599   6.393  16.398 -1.6141  1.3795 -0.5027
13527TIP3    H262073   2.530   6.435  16.270 -0.9158 -0.9125 -1.6767
13528TIP3   OH262074   2.144   5.662  14.803  0.1258  0.2671 -0.3997
13528TIP3    H162075   2.181   5.656  14.891  2.2293  0.3443 -1.2009
13528TIP3    H262076   2.076   5.729  14.810 -0.4467 -0.4373  1.3461
13529TIP3   OH262077   5.313   4.656  13.444  0.0879 -0.5158  0.1692
13529TIP3    H162078   5.263   4.735  13.465 -1.2204 -2.0018  3.2571
13529TIP3    H262079   5.306   4.648  13.349 -2.1888  1.5151  0.0604
13530TIP3   OH262080   3.236   5.624  14.640  0.3240  0.1897  0.1715
13530TIP3    H162081   3.142   5.623  14.655  0.3556  1.4004  0.5674
13530TIP3    H262082   3.274   5.618  14.728  0.5691  1.8544  0.2201
13531TIP3   OH262083   5.159   3.317  11.979 -0.5797 -0.1208 -0.0445
13531TIP3    H162084   5.249   3.348  11.994 -0.6706  0.6968 -1.0455
13531TIP3    H262085   5.105   3.396  11.985 -0.6321  0.4382 -4.3101
13532TIP3   OH262086   2.767   2.426   4.803  0.6739  0.4986  0.1956
13532TIP3    H162087   2.737   2.498   4.860  1.6064  0.9569  0.1229
13532TIP3    H262088   2.766   2.463   4.715 -0.4291 -0.1034 -0.0619
13533TIP3   OH262089   6.495   1.871  14.354  0.4861  0.1030 -0.1018
13533TIP3    H162090   6.449   1.916  14.283 -1.5707  1.0914  1.7284
13533TIP3    H262091   6.528   1.941  14.409  0.5421 -0.6245  0.8090
13534TIP3   OH262092   6.848   5.186  15.729  0.1872 -0.0162 -0.6185
13534TIP3    H162093   6.838   5.259  15.667 -0.6373 -0.8367 -1.4715
13534TIP3    H262094   6.761   5.147  15.734  0.1162  0.3344  1.4642
13535TIP3   OH262095   2.926   4.979   2.814  0.2412  0.0121 -0.4949
13535TIP3    H162096   2.989   4.908   2.804  0.6665  0.3760 -0.4316
13535TIP3    H262097   2.859   4.943   2.871  0.4701 -0.3283 -0.4355
13536TIP3   OH262098   1.386   2.015   0.127 -0.0118 -0.5740 -0.2796
13536TIP3    H162099   1.381   1.919   0.126 -1.5890 -0.5303 -0.3877
13536TIP3    H262100   1.453   2.037   0.063  0.6078 -1.6189 -0.0013
13537TIP3   OH262101   0.462   4.080   6.104  0.4258 -0.4504 -0.4372
13537TIP3    H162102   0.526   4.039   6.163 -1.4736 -0.6968  1.5884
13537TIP3    H262103   0.466   4.173   6.125  0.5446 -0.3831 -0.7543
13538TIP3   OH262104   0.535   2.620   1.393 -0.2225 -0.0960 -0.0552
13538TIP3    H162105   0.589   2.633   1.316  0.1875 -2.4794 -0.2678
13538TIP3    H262106   0.446   2.611   1.359  0.1342 -2.6462 -0.5255
13539TIP3   OH262107   2.030   5.419   6.129 -0.2512 -0.3961  0.0797
13539TIP3    H162108   2.120   5.453   6.123 -0.2294 -0.2617  1.0107
13539TIP3    H262109   2.019   5.366   6.050  0.1677  0.6994 -0.7466
13540TIP3   OH262110   3.358   1.411   4.298 -0.7089 -0.0940  0.3563
13540TIP3    H162111   3.327   1.419   4.208  0.7347  1.9402 -0.0284
13540TIP3    H262112   3.319   1.330   4.330 -0.4825 -1.3961 -2.4141
13541TIP3   OH262113   5.021   4.833  12.433  0.0423  0.0285  0.1196
13541TIP3    H162114   5.004   4.781  12.354 -0.3747  1.4060 -0.7235
13541TIP3    H262115   5.045   4.768  12.499 -3.6402 -1.6743  0.0503
13542TIP3   OH262116   4.114   1.454   1.755  0.1090 -0.7728  0.8387
13542TIP3    H162117   4.025   1.486   1.741  0.3836  0.0075  0.8424
13542TIP3    H262118   4.152   1.515   1.818  1.4002  0.3253 -0.8940
13543TIP3   OH262119   5.911   4.608  15.511  0.4249 -0.5627  0.3907
13543TIP3    H162120   5.901   4.696  15.547  3.2609  0.0019  0.0553
13543TIP3    H262121   5.907   4.551  15.587 -0.4837 -0.0496  0.7353
13544TIP3   OH262122   1.060   6.636   3.484  0.0682  0.0544 -0.0199
13544TIP3    H162123   0.994   6.698   3.515 -2.3039 -0.8903 -2.7473
13544TIP3    H262124   1.103   6.681   3.411  2.1602  0.4252  1.3496
13545TIP3   OH262125   5.080   0.058   1.550 -0.4372  0.2083  0.3678
13545TIP3    H162126   5.104   0.104   1.469 -1.7516  0.3559  0.0344
13545TIP3    H262127   5.017   0.117   1.592 -2.2550 -1.2858 -0.1152
13546TIP3   OH262128   2.453   3.690   1.815  0.4160  0.8359  0.3048
13546TIP3    H162129   2.529   3.639   1.844  0.6393  1.4340  0.7966
13546TIP3    H262130   2.381   3.627   1.812  1.0893  0.0898 -0.9392
13547TIP3   OH262131   5.446   5.460   3.666 -0.1481 -0.4293 -0.3064
13547TIP3    H162132   5.398   5.439   3.586 -0.6420  0.1414 -0.1661
13547TIP3    H262133   5.530   5.415   3.656 -0.2293 -0.4167 -1.1130
13548TIP3   OH262134   4.768   5.974   3.553  0.1675 -0.4610  0.2843
13548TIP3    H162135   4.770   6.036   3.626  0.9915 -0.4620  0.2695
13548TIP3    H262136   4.858   5.973   3.520  0.0613 -1.3425  0.0103
13549TIP3   OH262137   3.131   2.853  13.783  0.2042  0.0931 -0.4415
13549TIP3    H162138   3.225   2.835  13.782  0.3881  0.9267  0.3004
13549TIP3    H262139   3.104   2.835  13.873 -0.3506 -0.1571 -0.6527
13550TIP3   OH262140   5.133   6.351   2.862  0.1362 -0.7314  0.5338
13550TIP3    H162141   5.083   6.277   2.899 -0.4938 -1.5679 -1.8074
13550TIP3    H262142   5.219   6.314   2.843  0.0207 -0.6885 -0.0685
13551TIP3   OH262143   0.577   0.651   5.516  0.8359 -0.5247  0.0153
13551TIP3    H162144   0.518   0.577   5.506  0.0286 -0.1020  1.2872
13551TIP3    H262145   0.664   0.612   5.524  0.5370 -1.2648 -0.2634
13552TIP3   OH262146   3.305   0.202   3.669 -0.4495  0.2320 -0.4197
13552TIP3    H162147   3.296   0.148   3.748 -1.2672 -1.4956 -1.6208
13552TIP3    H262148   3.216   0.205   3.633 -0.5120  2.7502 -0.2278
13553TIP3   OH262149   6.039   2.600  10.916  0.0756  0.9925 -0.4336
13553TIP3    H162150   6.108   2.664  10.899  1.4715 -0.4172 -0.3321
13553TIP3    H262151   6.059   2.564  11.002  1.5585 -2.1417 -1.9015
13554TIP3   OH262152   4.950   4.292  13.052 -0.0731  0.4719  0.5172
13554TIP3    H162153   4.874   4.253  13.010  0.3256  1.1546 -0.8884
13554TIP3    H262154   4.936   4.277  13.146 -1.1364 -0.8067  0.1806
13555TIP3   OH262155   6.377   6.822  11.535  0.1600 -0.9009  0.0640
13555TIP3    H162156   6.340   6.769  11.465  0.3864  0.7033 -1.3257
13555TIP3    H262157   6.459   6.856  11.500  0.1377  0.1723  0.9859
13556TIP3   OH262158   4.449   2.926  11.974 -0.6982 -0.0089 -0.7387
13556TIP3    H162159   4.396   2.854  11.940 -0.6461 -0.0468 -0.7392
13556TIP3    H262160   4.422   2.934  12.066 -2.0762  1.2126 -1.2247
13557TIP3   OH262161   0.152   0.685  15.980  0.0522  0.1983 -0.1558
13557TIP3    H162162   0.107   0.714  16.059  0.1320  0.9450 -0.3708
13557TIP3    H262163   0.209   0.759  15.957 -0.0819  0.0492 -0.9915
13558TIP3   OH262164   0.276   2.726   4.221 -0.1451 -0.3827 -0.4040
13558TIP3    H162165   0.312   2.795   4.276 -0.3988 -0.1785 -0.4955
13558TIP3    H262166   0.348   2.702   4.162  0.0615 -0.4597 -0.1241
13559TIP3   OH262167   1.813   6.336  16.853 -0.0211  0.1208  0.3759
13559TIP3    H162168   1.777   6.424  16.851  0.5495  0.3624 -1.6901
13559TIP3    H262169   1.907   6.349  16.863  0.0875 -0.2176 -0.1342
13560TIP3   OH262170   2.924   3.728  15.027 -0.1152 -0.3625 -0.0875
13560TIP3    H162171   2.874   3.659  15.071 -0.8183  1.3146  1.8938
13560TIP3    H262172   2.970   3.682  14.957 -1.7493 -2.5682  0.1554
13561TIP3   OH262173   4.973   2.329  13.031 -0.2965 -0.2830 -0.2292
13561TIP3    H162174   4.910   2.268  12.992  0.9433 -1.2628 -0.7514
13561TIP3    H262175   4.949   2.414  12.994 -0.7047 -0.7972 -1.1843
13562TIP3   OH262176   4.653   2.755   3.459  0.6024  0.1057  0.0495
13562TIP3    H162177   4.591   2.772   3.530  0.7601  1.4261 -0.0941
13562TIP3    H262178   4.599   2.760   3.379 -0.1479 -4.0687  0.0784
13563TIP3   OH262179   2.073   0.237  15.378  0.0559 -0.1325  0.5979
13563TIP3    H162180   2.024   0.225  15.296 -1.4204 -1.2181  1.5898
13563TIP3    H262181   2.086   0.148  15.412 -0.0168  0.3387  1.9106
13564TIP3   OH262182   6.106   1.693  12.635 -0.1795  0.3769  0.5566
13564TIP3    H162183   6.143   1.635  12.702  0.9518  0.1095 -0.2700
13564TIP3    H262184   6.025   1.726  12.674  0.6220  0.5168  2.2048
13565TIP3   OH262185   6.207   1.643  13.103  0.5641 -1.0507 -0.1344
13565TIP3    H162186   6.140   1.620  13.167  0.6515 -1.7890 -0.2999
13565TIP3    H262187   6.284   1.595  13.131  1.4798  0.8643  0.8682
13566TIP3   OH262188   4.796   5.268  14.171  0.0472  0.5054  0.3753
13566TIP3    H162189   4.747   5.232  14.246  0.0169 -0.7699 -0.2292
13566TIP3    H262190   4.885   5.234  14.182  0.3953  1.4276  0.5459
13567TIP3   OH262191   0.686   6.533  13.101  0.2680  0.0391  0.0465
13567TIP3    H162192   0.670   6.602  13.165  2.2164 -0.2727  0.9296
13567TIP3    H262193   0.612   6.472  13.113 -0.7593  1.2574  0.1718
13568TIP3   OH262194   0.248   0.204   0.373  0.8880 -0.7477 -0.0739
13568TIP3    H162195   0.334   0.168   0.353  1.1119 -1.2661  1.6747
13568TIP3    H262196   0.191   0.127   0.381  0.6751 -0.5242  0.6148
13569TIP3   OH262197   5.594   3.024   5.013 -0.1235 -0.0120  0.0135
13569TIP3    H162198   5.510   3.013   5.057 -0.6111  2.0226 -0.3000
13569TIP3    H262199   5.650   3.064   5.078 -0.2060  1.0401 -0.5431
13570TIP3   OH262200   1.965   5.564  12.252  0.2614 -0.3953 -0.1815
13570TIP3    H162201   1.874   5.551  12.280  0.5444 -0.0103  0.9933
13570TIP3    H262202   1.993   5.478  12.219 -1.0142 -0.1227 -2.1281
13571TIP3   OH262203   4.165   2.276  12.306  0.8106  0.0461 -0.4155
13571TIP3    H162204   4.120   2.192  12.316 -0.9506  0.9060 -0.7051
13571TIP3    H262205   4.160   2.294  12.212  1.5970  0.2639 -0.4184
13572TIP3   OH262206   2.666   4.110   4.222 -0.3825 -0.0797  0.5446
13572TIP3    H162207   2.690   4.168   4.150  1.6346  0.1765  1.3491
13572TIP3    H262208   2.678   4.022   4.186  0.8855  0.0477  0.5982
13573TIP3   OH262209   4.675   4.590   0.012  0.0762  0.0820  0.4750
13573TIP3    H162210   4.613   4.520   0.034 -0.3261 -0.0174 -0.8688
13573TIP3    H262211   4.734   4.594   0.087 -1.2301 -0.1794  1.5634
13574TIP3   OH262212   1.691   5.719   2.595  0.1497  0.4734 -0.3631
13574TIP3    H162213   1.646   5.661   2.534 -0.7383 -0.3607  1.0356
13574TIP3    H262214   1.627   5.736   2.664  1.2049  1.1766  0.4711
13575TIP3   OH262215   5.870   4.177   2.189 -0.1446  0.1019 -0.0551
13575TIP3    H162216   5.849   4.270   2.193  2.2583  0.8334 -1.8747
13575TIP3    H262217   5.919   4.160   2.269  0.1160  0.6068 -0.1036
13576TIP3   OH262218   1.380   1.892   2.161 -0.5571  0.2596  0.0811
13576TIP3    H162219   1.306   1.855   2.210  0.1716  0.7339  1.6015
13576TIP3    H262220   1.392   1.979   2.199  2.2924 -0.6800  1.5867
13577TIP3   OH262221   3.555   2.243  15.128 -0.7842 -0.6607 -0.4083
13577TIP3    H162222   3.531   2.259  15.037  1.4923  0.1084 -0.9540
13577TIP3    H262223   3.637   2.194  15.123 -0.2137  0.0564  1.2146
13578TIP3   OH262224   5.382   4.458  11.734 -0.8053  0.1107  0.2202
13578TIP3    H162225   5.334   4.423  11.659  0.0913  0.2256 -0.4291
13578TIP3    H262226   5.455   4.506  11.695  0.5427 -1.0906  1.1752
13579TIP3   OH262227   3.601   6.439   4.691  0.4005 -0.2307 -0.4038
13579TIP3    H162228   3.618   6.430   4.597 -0.2621 -1.8809 -0.3986
13579TIP3    H262229   3.641   6.361   4.729  0.2987  0.2213  0.6479
13580TIP3   OH262230   5.867   5.716   6.316 -0.1856 -1.0413  0.2057
13580TIP3    H162231   5.819   5.796   6.340 -0.3997 -0.6409 -1.4351
13580TIP3    H262232   5.801   5.660   6.274  0.7469 -0.3899 -2.2980
13581TIP3   OH262233   3.307   6.215   6.449  0.4291 -0.5632 -0.2980
13581TIP3    H162234   3.345   6.133   6.415 -0.9003 -1.6435  0.7118
13581TIP3    H262235   3.246   6.187   6.517  0.2530  1.3200  0.3832
13582TIP3   OH262236   0.634   0.206  15.009  0.3543 -0.3369 -0.2413
13582TIP3    H162237   0.707   0.259  15.039  0.8989 -1.1585 -0.0742
13582TIP3    H262238   0.604   0.159  15.087 -0.9036  0.6180 -0.1265
13583TIP3   OH262239   3.518   1.936  14.155  0.2408 -0.6977 -0.4555
13583TIP3    H162240   3.570   1.896  14.224  0.1457 -0.4093 -0.2134
13583TIP3    H262241   3.509   1.868  14.089 -0.1047 -1.1509  0.0456
13584TIP3   OH262242   6.515   0.345  15.773 -0.2313 -0.5994 -0.3203
13584TIP3    H162243   6.592   0.397  15.795 -0.8090 -0.1814  0.7925
13584TIP3    H262244   6.550   0.257  15.756  0.3755 -0.7630  1.5434
13585TIP3   OH262245   4.169   0.632  12.260  0.2780  0.1819  0.4200
13585TIP3    H162246   4.091   0.687  12.269  0.2439  0.1334  0.4228
13585TIP3    H262247   4.230   0.685  12.209  0.1293  0.1018  0.1583
13586TIP3   OH262248   2.998   6.261  12.869 -0.2092  0.6586  0.3756
13586TIP3    H162249   2.973   6.330  12.808 -1.6514 -0.5510 -0.4715
13586TIP3    H262250   3.039   6.307  12.942 -2.5675  2.5774  0.6059
13587TIP3   OH262251   4.775   3.896  14.014  0.0007  0.3652  0.4187
13587TIP3    H162252   4.801   3.956  14.084 -0.0551 -1.2082  1.8307
13587TIP3    H262253   4.801   3.810  14.045 -2.4890 -0.7163 -0.2811
13588TIP3   OH262254   6.111   5.037   0.248  0.4973  0.4528 -0.1544
13588TIP3    H162255   6.114   4.950   0.208  0.6587 -0.9939  2.7652
13588TIP3    H262256   6.023   5.043   0.285 -0.0802  2.2680 -1.6305
13589TIP3   OH262257   0.574   4.720   2.627 -0.0183 -0.3178 -0.1866
13589TIP3    H162258   0.534   4.651   2.679 -2.4102  1.1039 -0.0164
13589TIP3    H262259   0.663   4.728   2.662 -0.6580 -1.2571  1.8090
13590TIP3   OH262260   0.378   2.696  15.458 -0.1138 -0.2054 -0.3397
13590TIP3    H162261   0.396   2.787  15.480 -2.3712  0.6719 -1.7325
13590TIP3    H262262   0.420   2.646  15.527  2.0014  1.8007 -0.0345
13591TIP3   OH262263   4.388   0.725   0.670  0.2297  0.2619  0.2404
13591TIP3    H162264   4.316   0.720   0.607  0.4531  0.6367 -0.0583
13591TIP3    H262265   4.463   0.686   0.624  0.6395  1.4163 -0.1104
13592TIP3   OH262266   0.221   6.155  13.821 -0.0433  0.2878  0.4574
13592TIP3    H162267   0.287   6.193  13.763  0.1222  1.9084  1.6464
13592TIP3    H262268   0.271   6.104  13.884 -0.0893 -0.0822  0.1964
13593TIP3   OH262269   2.509   6.585   1.604 -0.2387  0.2959  0.3186
13593TIP3    H162270   2.487   6.584   1.697 -1.0586  0.0416  0.1300
13593TIP3    H262271   2.468   6.506   1.568  2.0600 -0.9240  0.1594
13594TIP3   OH262272   1.858   2.609  11.273  0.1231 -0.0727  0.3585
13594TIP3    H162273   1.785   2.644  11.221 -0.9925 -0.1195  1.8063
13594TIP3    H262274   1.922   2.680  11.273 -0.4829  0.4966  0.1208
13595TIP3   OH262275   0.548   5.705   2.998 -0.0401 -0.0972  0.3478
13595TIP3    H162276   0.473   5.665   2.954 -0.3039  0.9904 -0.2311
13595TIP3    H262277   0.550   5.664   3.084 -1.8585  0.5130  0.7140
13596TIP3   OH262278   3.373   1.999   0.291 -0.3988  0.1005  0.2056
13596TIP3    H162279   3.291   1.949   0.290 -1.4467  1.7061  0.5573
13596TIP3    H262280   3.380   2.032   0.381  0.8989 -0.3935  0.3020
13597TIP3   OH262281   0.171   1.001   0.573 -0.4816  0.0262  0.7028
13597TIP3    H162282   0.237   0.937   0.548  0.4651  0.5388  1.8225
13597TIP3    H262283   0.087   0.955   0.561  0.0653 -0.7338 -0.4262
13598TIP3   OH262284   1.976   5.386  14.795 -0.0031  0.0584  0.6031
13598TIP3    H162285   2.047   5.350  14.744 -0.4646 -0.4131  0.2859
13598TIP3    H262286   1.998   5.479  14.805 -1.2602  0.8998 -2.9116
13599TIP3   OH262287   1.684   0.024   0.768  0.1589 -0.1454  0.3588
13599TIP3    H162288   1.709  -0.041   0.834  0.0460 -0.3921  0.1613
13599TIP3    H262289   1.625   0.083   0.815 -0.5290 -0.7603  0.2886
13600TIP3   OH262290   6.049   5.642  13.901  0.4644 -0.4188  0.4545
13600TIP3    H162291   5.964   5.661  13.861 -0.5021 -0.7371  2.2752
13600TIP3    H262292   6.112   5.659  13.831 -1.2159 -2.5549 -1.7686
13601TIP3   OH262293   0.861   1.666  11.557  0.5905  0.1543  0.3270
13601TIP3    H162294   0.779   1.716  11.567  0.7509  0.3093  0.9260
13601TIP3    H262295   0.926   1.719  11.602  1.4606  1.0378 -1.8442
13602TIP3   OH262296   5.310   3.662  14.077 -0.0318  0.7449  0.2721
13602TIP3    H162297   5.366   3.698  14.009 -0.5987 -2.1838 -1.9528
13602TIP3    H262298   5.313   3.727  14.148 -0.5773  4.7409 -3.0126
13603TIP3   OH262299   1.570   5.281   3.310 -0.5358  0.4114  0.0458
13603TIP3    H162300   1.574   5.370   3.275 -1.5035  0.4594  0.0141
13603TIP3    H262301   1.502   5.238   3.257 -0.6898 -0.0812  0.6287
13604TIP3   OH262302   5.192   3.398  13.513  0.1714  0.6204  0.0145
13604TIP3    H162303   5.210   3.313  13.474  0.0813  0.7297 -0.2674
13604TIP3    H262304   5.115   3.430  13.466 -0.3386  0.4690  0.7243
13605TIP3   OH262305   3.388   5.674  16.329  0.3120  0.0903  0.3925
13605TIP3    H162306   3.467   5.709  16.286 -0.8939  0.3489 -1.7808
13605TIP3    H262307   3.332   5.647  16.256 -1.6213 -0.1065  1.8834
13606TIP3   OH262308   4.432   5.802   3.568  0.0119 -0.1485  0.0019
13606TIP3    H162309   4.486   5.769   3.640  0.4358  1.2134  0.3320
13606TIP3    H262310   4.486   5.788   3.489 -0.3703 -1.4539 -0.0505
13607TIP3   OH262311   0.903   6.577  16.828 -0.0292  0.8182  0.1055
13607TIP3    H162312   0.849   6.517  16.880 -1.4407  0.1966 -1.9467
13607TIP3    H262313   0.840   6.636  16.787  0.9036  0.5933 -1.7340
13608TIP3   OH262314   4.090   2.668  10.945 -0.1876 -0.7382 -0.2315
13608TIP3    H162315   4.135   2.628  10.871 -1.3311 -1.7901 -0.3947
13608TIP3    H262316   4.006   2.622  10.950 -0.2846 -0.4520  1.5011
13609TIP3   OH262317   3.026   5.351   1.342  0.1512 -0.2105 -0.6136
13609TIP3    H162318   2.971   5.416   1.298  1.1519  0.5027 -0.8525
13609TIP3    H262319   3.005   5.268   1.299  0.0487  0.2330 -1.4387
13610TIP3   OH262320   0.411   1.619  13.640  0.1870 -0.1150  0.2447
13610TIP3    H162321   0.411   1.713  13.658  0.4996 -0.2130  0.7894
13610TIP3    H262322   0.426   1.612  13.546 -0.6369  0.3977  0.0659
13611TIP3   OH262323   3.936   2.601   3.689 -0.5572 -0.4048 -0.3632
13611TIP3    H162324   3.965   2.692   3.682 -0.2552 -0.4328  0.4135
13611TIP3    H262325   4.016   2.553   3.711 -0.9912 -0.6233  0.8391
13612TIP3   OH262326   6.455   1.658  11.314  0.2409 -0.5253 -0.2544
13612TIP3    H162327   6.532   1.682  11.367 -0.9210  1.3935  0.6917
13612TIP3    H262328   6.470   1.566  11.291  2.3291 -0.5105  0.7388
13613TIP3   OH262329   5.518   1.340  15.896 -0.4865  0.3078 -0.0333
13613TIP3    H162330   5.499   1.247  15.882 -0.5282  0.3999 -0.6304
13613TIP3    H262331   5.434   1.379  15.919 -0.5214  0.2408 -0.0480
13614TIP3   OH262332   6.164   5.911  14.873 -0.2246 -0.3489  0.3459
13614TIP3    H162333   6.247   5.953  14.852  0.2489 -2.0480 -1.6535
13614TIP3    H262334   6.098   5.967  14.832  0.0438  0.3767  0.8973
13615TIP3   OH262335   3.658   2.948  16.425  0.0564  0.5767 -0.6537
13615TIP3    H162336   3.675   3.029  16.377 -0.4430  1.3495  0.4145
13615TIP3    H262337   3.717   2.884  16.387  1.1254  1.6836 -0.9166
13616TIP3   OH262338   1.252   0.500  16.599 -0.1297  0.1767  0.3273
13616TIP3    H162339   1.166   0.459  16.589 -0.0904  0.3948 -1.1336
13616TIP3    H262340   1.290   0.457  16.675 -0.0126 -2.6926 -1.1915
13617TIP3   OH262341   4.074   3.543   3.756 -0.2568  0.0153  0.1005
13617TIP3    H162342   4.166   3.540   3.783 -0.0634  0.5504 -0.4595
13617TIP3    H262343   4.055   3.637   3.748  0.2737 -0.0327 -3.3797
13618TIP3   OH262344   2.801   3.811  12.954 -0.3162 -0.2275  0.6134
13618TIP3    H162345   2.774   3.888  13.003 -0.4392 -0.0502  0.2664
13618TIP3    H262346   2.858   3.844  12.885  2.6474 -0.7668  2.6064
13619TIP3   OH262347   3.333   0.021   6.492  0.5489 -0.3137 -0.1317
13619TIP3    H162348   3.391   0.079   6.444  0.4879 -0.1222  0.0248
13619TIP3    H262349   3.392  -0.033   6.545  0.5328  0.8355  1.1031
13620TIP3   OH262350   6.378   1.211  15.417 -0.7188 -0.0286  0.2364
13620TIP3    H162351   6.316   1.161  15.364 -1.5317  3.5122 -2.5612
13620TIP3    H262352   6.336   1.296  15.429  2.2765  1.4949  0.9238
13621TIP3   OH262353   1.056   1.123  10.252 -0.1788 -0.1367  0.2314
13621TIP3    H162354   1.128   1.115  10.190 -1.3989  1.8066 -1.6058
13621TIP3    H262355   1.093   1.167  10.328  0.4017  1.8022 -1.1180
13622TIP3   OH262356   1.597   4.234   3.195  0.1269 -0.1982  0.5318
13622TIP3    H162357   1.531   4.251   3.128 -0.2997  0.4945  1.1223
13622TIP3    H262358   1.592   4.309   3.255  2.6743  0.8072 -0.3715
13623TIP3   OH262359   1.658   1.332  14.257  0.9514  0.3739  0.4933
13623TIP3    H162360   1.608   1.293  14.329  0.5571 -1.0072 -0.5016
13623TIP3    H262361   1.721   1.264  14.231  1.4030  1.0303 -0.1703
13624TIP3   OH262362   5.797   3.926  13.255  0.0491 -0.3563 -1.0545
13624TIP3    H162363   5.812   4.020  13.257  1.2763 -0.5458 -0.4473
13624TIP3    H262364   5.757   3.910  13.169 -0.7417  0.7779 -0.9236
13625TIP3   OH262365   4.373   2.917  10.958  0.0382  0.1097  0.1944
13625TIP3    H162366   4.412   2.842  10.914 -1.2746 -0.9978  0.8430
13625TIP3    H262367   4.279   2.909  10.940 -0.2244  1.0744  1.0527
13626TIP3   OH262368   1.451   4.768   4.015 -0.3337 -0.0475 -0.0192
13626TIP3    H162369   1.385   4.836   4.027 -0.0900  0.1273  0.3412
13626TIP3    H262370   1.417   4.693   4.064  0.0057  0.2267  0.6466
13627TIP3   OH262371   1.374   4.607  15.150 -0.8066  1.0469  0.2403
13627TIP3    H162372   1.401   4.567  15.232  2.3354  2.2759 -0.0382
13627TIP3    H262373   1.410   4.696  15.154  0.2774  0.8783 -2.7543
13628TIP3   OH262374   5.707   5.769   3.426 -0.5534  0.3673 -0.4379
13628TIP3    H162375   5.720   5.697   3.364  0.4840  0.3586 -0.2169
13628TIP3    H262376   5.750   5.844   3.385  0.8712  0.1706  0.6190
13629TIP3   OH262377   2.358   1.576  12.183  0.6918 -0.0970  0.0870
13629TIP3    H162378   2.291   1.532  12.236  2.2908 -0.3297  2.0250
13629TIP3    H262379   2.312   1.603  12.104 -2.3256  1.7603  2.2383
13630TIP3   OH262380   4.415   5.205   0.123 -0.1251 -0.4374  0.0901
13630TIP3    H162381   4.420   5.134   0.059 -1.7662 -2.2206  1.8000
13630TIP3    H262382   4.334   5.188   0.172  1.6492  0.0332  3.5014
13631TIP3   OH262383   4.205   4.108   3.279 -0.4699 -0.1903  0.3490
13631TIP3    H162384   4.110   4.106   3.264 -0.4993  1.3795  0.1748
13631TIP3    H262385   4.221   4.037   3.342 -1.6894 -0.7366  0.0771
13632TIP3   OH262386   3.885   3.689  13.839  0.2757 -0.3178 -0.9610
13632TIP3    H162387   3.859   3.608  13.795  1.2907 -1.5505  0.6274
13632TIP3    H262388   3.910   3.663  13.927  0.4786  1.7614 -0.3370
13633TIP3   OH262389   0.357   2.348   3.021  0.1209 -0.2403  0.1725
13633TIP3    H162390   0.401   2.337   2.936 -0.4011 -1.2966  0.0204
13633TIP3    H262391   0.427   2.369   3.082  0.3999  1.4535 -0.6725
13634TIP3   OH262392   4.547   5.959   4.902 -0.4543 -1.0666  0.3628
13634TIP3    H162393   4.530   5.915   4.986 -0.3130 -0.6084  0.6339
13634TIP3    H262394   4.636   5.991   4.909 -0.7494 -0.2257  0.4028
13635TIP3   OH262395   6.522   4.482  15.835 -0.1300 -0.0116 -0.4251
13635TIP3    H162396   6.536   4.417  15.904 -0.5754  0.5363  0.1949
13635TIP3    H262397   6.430   4.507  15.844  0.4973  2.1527  0.6895
13636TIP3   OH262398   0.003   1.799  11.526  0.0797 -0.1806 -0.2210
13636TIP3    H162399   0.004   1.883  11.479  0.4652 -0.4191 -0.6415
13636TIP3    H262400  -0.032   1.737  11.463  1.0621 -0.6030 -0.3706
13637TIP3   OH262401   2.775   4.417   5.870  0.1476 -0.0958  0.8064
13637TIP3    H162402   2.818   4.458   5.945 -1.3256 -1.4667  2.5017
13637TIP3    H262403   2.785   4.323   5.885 -0.3558 -0.3984 -0.6278
13638TIP3   OH262404   5.287   6.690   5.723  0.4229  0.1350  0.4358
13638TIP3    H162405   5.336   6.768   5.749 -0.6930  1.1038 -0.2855
13638TIP3    H262406   5.229   6.720   5.653 -0.4781 -1.1980  0.5772
13639TIP3   OH262407   5.051   0.148  13.366 -0.0490  0.1857  1.1776
13639TIP3    H162408   5.130   0.125  13.318  0.3201  2.3339  0.6202
13639TIP3    H262409   5.082   0.173  13.453 -0.4455 -1.3959  1.8067
13640TIP3   OH262410   4.627   4.227  16.796  0.0010  0.0528 -0.2739
13640TIP3    H162411   4.712   4.225  16.751 -0.4980 -0.1963 -1.2272
13640TIP3    H262412   4.650   4.231  16.889  1.0583  0.1283 -0.5170
13641TIP3   OH262413   2.751   6.410  12.962 -0.4267 -0.1818 -0.6841
13641TIP3    H162414   2.718   6.387  12.875  1.2859  0.7393 -1.6255
13641TIP3    H262415   2.778   6.501  12.954  0.4734 -0.3117  0.5930
13642TIP3   OH262416   0.047   1.289   3.275 -0.1676  0.0523  0.3259
13642TIP3    H162417   0.139   1.309   3.260 -0.3143  0.6340  0.1739
13642TIP3    H262418   0.004   1.309   3.192 -0.3535 -0.7380  0.2195
13643TIP3   OH262419   2.180   6.467   3.747 -0.1055  0.1627 -0.0207
13643TIP3    H162420   2.239   6.535   3.779  0.8428  0.2363 -1.8186
13643TIP3    H262421   2.236   6.406   3.700 -0.8330 -2.3192  2.1357
13644TIP3   OH262422   3.188   2.723  15.488  0.3002 -0.7894 -0.0460
13644TIP3    H162423   3.234   2.730  15.405 -1.3881 -2.1386 -1.1652
13644TIP3    H262424   3.132   2.801  15.491  0.6932 -0.5078  0.0607
13645TIP3   OH262425   5.340   5.901  15.650 -0.2148  0.2419  0.2280
13645TIP3    H162426   5.326   5.806  15.657 -0.2008  0.2841  0.8778
13645TIP3    H262427   5.293   5.937  15.725 -2.8896  1.0380 -1.6617
13646TIP3   OH262428   0.242   5.348   3.768 -0.5233  0.0986 -0.1021
13646TIP3    H162429   0.330   5.366   3.735 -0.8354 -0.8266 -1.5792
13646TIP3    H262430   0.255   5.320   3.858  0.8380 -1.0672 -0.6185
13647TIP3   OH262431   4.923   4.298  14.777  0.3331  0.2350  0.4442
13647TIP3    H162432   4.842   4.309  14.827  1.3847  0.0325  2.2953
13647TIP3    H262433   4.975   4.237  14.829  2.7769  2.3996  0.7939
13648TIP3   OH262434   6.424   0.811   2.573 -0.6004 -0.4621 -0.4203
13648TIP3    H162435   6.360   0.804   2.502 -1.1670 -2.3152  0.2044
13648TIP3    H262436   6.488   0.742   2.553  1.0050  1.0867 -0.8063
13649TIP3   OH262437   4.135   3.539  16.190 -0.2592 -0.4296 -0.5526
13649TIP3    H162438   4.184   3.554  16.110 -0.0926 -0.7279 -0.5059
13649TIP3    H262439   4.047   3.572  16.171 -0.2506 -0.6036 -0.8934
13650TIP3   OH262440   5.002   1.198   5.086 -0.0265 -0.0501 -0.0649
13650TIP3    H162441   4.986   1.140   5.011 -1.3836  1.3829 -0.9378
13650TIP3    H262442   5.040   1.276   5.048  0.9774  0.0072  0.9997
13651TIP3   OH262443   0.750   4.728  13.571  0.1999 -0.0744 -0.0538
13651TIP3    H162444   0.788   4.664  13.632  0.5373  2.1925  2.3132
13651TIP3    H262445   0.655   4.721  13.585  0.2695  0.3630  0.7166
13652TIP3   OH262446   3.928   6.467  12.147 -0.0868 -0.1033  0.3078
13652TIP3    H162447   3.892   6.384  12.181 -0.5843 -0.0097  0.0229
13652TIP3    H262448   4.022   6.460  12.163 -0.0542 -0.9379 -0.1536
13653TIP3   OH262449   1.658   5.115   5.027 -0.1240  0.0816 -0.2831
13653TIP3    H162450   1.718   5.160   5.087  2.6551 -2.4179 -0.9043
13653TIP3    H262451   1.647   5.175   4.954  3.2563  0.0525 -0.9879
13654TIP3   OH262452   0.269   0.709   3.087  0.2583  0.1337 -0.7718
13654TIP3    H162453   0.190   0.664   3.058  0.5811 -1.2186  0.3337
13654TIP3    H262454   0.272   0.695   3.181  1.0097  1.5083 -0.5516
13655TIP3   OH262455   4.181   5.958  14.877 -0.4205  0.0747  0.5418
13655TIP3    H162456   4.097   5.950  14.922 -0.4204  0.4565  0.6128
13655TIP3    H262457   4.245   5.923  14.940 -0.4469  0.4088  0.7572
13656TIP3   OH262458   0.420   4.286   2.944 -0.5011 -0.3900  0.2673
13656TIP3    H162459   0.430   4.200   2.986 -0.5718 -0.2571  0.5595
13656TIP3    H262460   0.331   4.284   2.908 -0.1324 -0.8362 -0.6448
13657TIP3   OH262461   5.764   2.888  12.675  0.5286  0.3978 -0.7761
13657TIP3    H162462   5.726   2.968  12.639 -0.6315  1.1286  1.8125
13657TIP3    H262463   5.703   2.862  12.745  2.4484 -1.0048  0.4712
13658TIP3   OH262464   3.853   5.739   2.400  0.5844 -0.1060 -0.0170
13658TIP3    H162465   3.913   5.736   2.325 -0.0413  0.1589 -0.5310
13658TIP3    H262466   3.781   5.794   2.371  0.5024  0.2916  0.9115
13659TIP3   OH262467   2.679   5.192   0.443 -0.1739 -0.4944  0.7874
13659TIP3    H162468   2.610   5.132   0.473 -1.2550  0.4775  0.3276
13659TIP3    H262469   2.633   5.257   0.390  1.1099  0.1924  0.4699
13660TIP3   OH262470   0.103   3.456   4.620 -0.3560 -0.9703  0.1446
13660TIP3    H162471   0.146   3.412   4.547 -1.6373 -1.4172 -0.3713
13660TIP3    H262472   0.011   3.429   4.613 -1.1820  1.6274 -0.0840
13661TIP3   OH262473   5.935   5.804  14.566  0.0002 -0.5874 -0.5827
13661TIP3    H162474   5.939   5.811  14.661  1.0495 -0.2584 -0.6388
13661TIP3    H262475   6.024   5.777  14.540 -0.1504 -0.2415 -1.4986
13662TIP3   OH262476   2.751   2.057  12.686  0.4484  0.0889 -0.3398
13662TIP3    H162477   2.713   2.052  12.773  1.7879  2.0104  0.4307
13662TIP3    H262478   2.777   2.148  12.676  1.8638 -0.4371 -2.0818
13663TIP3   OH262479   2.130   0.725  14.415  0.0837  0.4342  0.2709
13663TIP3    H162480   2.048   0.696  14.375  0.8349  1.6785 -2.3778
13663TIP3    H262481   2.182   0.645  14.423 -0.1748  0.1111 -1.0877
13664TIP3   OH262482   1.224   3.682  13.419 -0.0677  0.2795  0.2538
13664TIP3    H162483   1.170   3.618  13.464 -0.1620 -0.0866 -0.3819
13664TIP3    H262484   1.221   3.657  13.327 -0.0374  1.1404  0.0059
13665TIP3   OH262485   3.588   5.539   2.982 -0.1807 -0.2211 -0.5709
13665TIP3    H162486   3.576   5.583   3.065  0.2179 -1.4354  0.1609
13665TIP3    H262487   3.665   5.484   2.994 -1.5078 -2.2896 -0.8847
13666TIP3   OH262488   0.675   1.363  16.678  0.0278 -0.3575 -0.4692
13666TIP3    H162489   0.646   1.320  16.598 -0.3526  0.2667 -0.6774
13666TIP3    H262490   0.610   1.337  16.744 -0.6692  0.5181 -0.7836
13667TIP3   OH262491   3.495   2.115   5.731 -0.8517 -0.7658  0.1965
13667TIP3    H162492   3.473   2.082   5.818 -2.6874  1.3281  0.6199
13667TIP3    H262493   3.414   2.107   5.681 -0.3839 -0.1174 -0.6988
13668TIP3   OH262494   0.548   1.172  11.899 -0.2696  0.0840  0.4356
13668TIP3    H162495   0.570   1.081  11.878  0.0864  0.3034 -0.1736
13668TIP3    H262496   0.547   1.217  11.815 -0.8456  0.5661  0.6875
13669TIP3   OH262497   4.058   0.762  12.584 -0.5927  0.6220  0.0462
13669TIP3    H162498   4.130   0.700  12.581  1.1758  2.5076  1.0540
13669TIP3    H262499   3.981   0.711  12.558  0.9102 -1.7017 -0.1119
13670TIP3   OH262500   1.514   2.603  16.645 -0.1627 -0.5831  0.1023
13670TIP3    H162501   1.474   2.623  16.560  0.5864 -0.7319 -0.2990
13670TIP3    H262502   1.516   2.687  16.691  2.6640  0.3420 -1.4422
13671TIP3   OH262503   4.604   6.657   4.105  0.0232  0.2660 -0.5138
13671TIP3    H162504   4.568   6.745   4.114  0.0018  0.1204  1.3280
13671TIP3    H262505   4.677   6.667   4.044 -0.0523  1.5396 -0.4292
13672TIP3   OH262506   3.905   2.850  13.191  0.3030  0.0079  0.2733
13672TIP3    H162507   3.951   2.787  13.135 -0.7091  0.0460 -0.6218
13672TIP3    H262508   3.881   2.800  13.268  0.5954 -0.3806  0.1160
13673TIP3   OH262509   3.739   4.804  12.990  0.4529  0.5618  0.3870
13673TIP3    H162510   3.688   4.769  12.917 -1.2129  2.5452  0.4992
13673TIP3    H262511   3.746   4.898  12.971  1.1386  0.9019  2.1187
13674TIP3   OH262512   4.411   3.046  16.318  0.2265  0.0630  0.5508
13674TIP3    H162513   4.351   3.116  16.291 -0.3784 -0.0325  1.6007
13674TIP3    H262514   4.356   2.968  16.322  0.7639 -0.3496  0.0109
13675TIP3   OH262515   5.366   6.421  11.450  0.1284 -0.3899 -0.3395
13675TIP3    H162516   5.396   6.358  11.384  1.1167 -1.4544  1.0792
13675TIP3    H262517   5.327   6.367  11.519 -2.9413  0.8016 -0.9668
13676TIP3   OH262518   4.499   1.735   2.043 -0.0111  0.0063  0.5572
13676TIP3    H162519   4.505   1.713   1.950 -0.3491 -1.1541  0.7993
13676TIP3    H262520   4.430   1.802   2.046 -0.0525 -0.0008 -0.0135
13677TIP3   OH262521   5.264   1.190  14.571  0.0790  1.0464 -0.2988
13677TIP3    H162522   5.311   1.175  14.653  1.5316 -0.1019 -1.2849
13677TIP3    H262523   5.333   1.192  14.504 -1.2505 -1.2892 -1.8853
13678TIP3   OH262524   3.180   1.348   6.098  0.1122 -0.4815 -0.4909
13678TIP3    H162525   3.276   1.342   6.091  0.2229 -0.2095  0.6065
13678TIP3    H262526   3.165   1.394   6.180 -0.9493  0.9296 -1.4192
13679TIP3   OH262527   5.873   0.910   6.066  1.4177  0.5572  0.5628
13679TIP3    H162528   5.922   0.828   6.071 -0.3836 -0.5056  2.7671
13679TIP3    H262529   5.791   0.886   6.023  0.9782  1.2302  1.0098
13680TIP3   OH262530   0.844   4.799  12.888 -0.0312 -0.3911 -0.4278
13680TIP3    H162531   0.878   4.880  12.850 -0.7038  0.6646  1.1349
13680TIP3    H262532   0.921   4.744  12.901  1.1102  1.6560  2.3385
13681TIP3   OH262533   2.404   4.158   5.239 -0.5084  0.3016 -0.3524
13681TIP3    H162534   2.490   4.165   5.196 -0.3621 -3.9095 -1.1868
13681TIP3    H262535   2.342   4.157   5.166 -1.2972  2.5216  0.2125
13682TIP3   OH262536   4.338   4.635  12.907 -0.0276  0.1197 -0.2546
13682TIP3    H162537   4.411   4.610  12.963  0.2951  1.1637 -0.1857
13682TIP3    H262538   4.376   4.696  12.844 -0.6170 -0.1705 -0.9064
13683TIP3   OH262539   0.677   0.810  13.285  0.0358 -0.7078 -0.2734
13683TIP3    H162540   0.771   0.804  13.305  0.2780  0.0128 -1.1415
13683TIP3    H262541   0.648   0.719  13.279 -0.0289 -1.0219  3.0509
13684TIP3   OH262542   1.980   0.849   1.130 -0.8536 -0.2446 -0.1030
13684TIP3    H162543   1.902   0.806   1.095 -0.8898  0.3380 -0.7489
13684TIP3    H262544   2.003   0.796   1.206  0.1974 -2.5539 -1.8884
13685TIP3   OH262545   3.070   6.012  10.737 -0.5552  0.5357 -0.4219
13685TIP3    H162546   3.040   5.972  10.819 -0.9639 -0.0805 -0.8540
13685TIP3    H262547   3.155   6.049  10.757  0.4995 -1.7648 -0.3073
13686TIP3   OH262548   1.620   6.330  12.751  0.2280 -0.0978 -0.6415
13686TIP3    H162549   1.624   6.409  12.805  1.1045 -1.2002  1.0050
13686TIP3    H262550   1.530   6.300  12.759  0.1272  0.2254 -0.5196
13687TIP3   OH262551   1.899   1.161  12.241  0.0460 -0.2919 -0.5141
13687TIP3    H162552   1.961   1.148  12.313 -0.8229  0.3019  0.3730
13687TIP3    H262553   1.951   1.200  12.171  0.9940 -1.2506 -0.3666
13688TIP3   OH262554   4.854   2.384   3.348  0.6727  0.5956 -0.5613
13688TIP3    H162555   4.769   2.357   3.382  0.4161  2.1970  0.1528
13688TIP3    H262556   4.896   2.431   3.420  2.2754 -0.3344 -0.8353
13689TIP3   OH262557   1.573   4.160   5.180  0.5172 -0.1246  0.2524
13689TIP3    H162558   1.490   4.185   5.138  0.2175 -0.4641  0.6396
13689TIP3    H262559   1.556   4.074   5.219  0.2028  0.9406  2.6508
13690TIP3   OH262560   0.561   1.157  17.058 -0.0186  0.8039  0.4444
13690TIP3    H162561   0.575   1.233  17.002 -2.0728 -0.3735 -1.8841
13690TIP3    H262562   0.615   1.174  17.135  1.8302  3.2440 -1.2022
13691TIP3   OH262563   0.460   1.640  16.864  0.3543  0.3282 -0.0648
13691TIP3    H162564   0.368   1.661  16.851  0.3783  0.7479  0.4173
13691TIP3    H262565   0.480   1.672  16.952  0.5513 -1.1662  0.4633
13692TIP3   OH262566   4.218   5.524  14.279 -0.5960 -0.1432  0.1634
13692TIP3    H162567   4.154   5.511  14.209 -0.5527  1.7691 -0.2725
13692TIP3    H262568   4.296   5.557  14.235  1.6533 -4.4681  0.3508
13693TIP3   OH262569   4.946   5.274   1.847  0.0036  0.5600 -0.9125
13693TIP3    H162570   4.948   5.368   1.833 -0.2206  0.7066 -0.0488
13693TIP3    H262571   5.005   5.260   1.922 -0.3025  0.0706 -0.7604
13694TIP3   OH262572   0.965   0.538  16.786 -0.2056 -0.6703  0.1296
13694TIP3    H162573   1.022   0.616  16.788 -0.7402 -0.2822  0.8805
13694TIP3    H262574   1.025   0.465  16.774  0.7439 -0.4802  3.0275
13695TIP3   OH262575   6.753   1.490  15.415 -0.2678  0.6842  0.2887
13695TIP3    H162576   6.671   1.540  15.419 -0.1007  0.9826  0.0526
13695TIP3    H262577   6.728   1.405  15.379 -1.0108 -0.3901  3.0315
13696TIP3   OH262578   1.820   0.994  16.310  0.3445  0.2603 -0.4284
13696TIP3    H162579   1.805   1.034  16.396 -0.6743 -0.3913 -0.2843
13696TIP3    H262580   1.891   0.932  16.324  2.3531  2.3534 -0.7795
13697TIP3   OH262581   5.260   0.890  14.420 -0.4766  0.5217 -0.2786
13697TIP3    H162582   5.275   0.796  14.430 -0.9179  0.5562  0.8014
13697TIP3    H262583   5.180   0.896  14.368  0.5462  0.3300 -1.9647
13698TIP3   OH262584   4.158   6.493   1.835  0.1942  0.0834 -0.4951
13698TIP3    H162585   4.063   6.486   1.829  0.1425  0.5915 -0.3393
13698TIP3    H262586   4.188   6.481   1.744  0.1277 -1.8884 -0.2901
13699TIP3   OH262587   5.879   4.862  15.638 -0.0123 -0.2726  0.0214
13699TIP3    H162588   5.867   4.866  15.733 -2.6259  1.3455 -0.2670
13699TIP3    H262589   5.936   4.936  15.618 -0.1826 -0.0782  0.2470
13700TIP3   OH262590   6.550   2.618   4.055  0.8197 -0.0062  0.4100
13700TIP3    H162591   6.577   2.664   4.135  0.1455 -0.8783  1.1700
13700TIP3    H262592   6.569   2.526   4.073  2.8403  0.0007 -1.3783
13701TIP3   OH262593   4.925   6.544   5.257 -0.4452 -0.2871 -0.0873
13701TIP3    H162594   4.843   6.559   5.304 -0.1570  0.9782  0.0407
13701TIP3    H262595   4.969   6.629   5.256  0.6836 -0.8467 -0.5154
13702TIP3   OH262596   5.742   2.216   5.636 -0.2861  0.4090 -0.3022
13702TIP3    H162597   5.768   2.290   5.693  1.1856 -0.6954  0.5311
13702TIP3    H262598   5.808   2.214   5.568 -0.3526 -0.0975 -0.3557
13703TIP3   OH262599   1.394   2.565  11.147 -0.0585 -0.5416 -0.6361
13703TIP3    H162600   1.477   2.595  11.109  0.5605  0.3883  1.3378
13703TIP3    H262601   1.412   2.477  11.178 -0.2839 -0.9238 -1.5388
13704TIP3   OH262602   5.768   6.613   5.719  0.0851 -0.1188  0.2855
13704TIP3    H162603   5.783   6.651   5.805  2.0364  0.9745 -0.4969
13704TIP3    H262604   5.674   6.592   5.719 -0.3286  1.4480  2.0291
13705TIP3   OH262605   6.658   6.701   0.692  0.4496 -0.4344 -0.4658
13705TIP3    H162606   6.735   6.662   0.736  0.1915 -0.1943  0.2118
13705TIP3    H262607   6.646   6.785   0.736 -1.7657 -1.5649  1.2584
13706TIP3   OH262608   2.750   1.712  16.786  0.4805 -0.1387  0.2401
13706TIP3    H162609   2.737   1.801  16.818  1.7062 -0.0161  0.4508
13706TIP3    H262610   2.833   1.684  16.826 -0.5264 -1.8509  1.2479
13707TIP3   OH262611   2.571   3.424   1.923 -0.6769  0.1504  0.1325
13707TIP3    H162612   2.486   3.405   1.961  0.8619 -2.0256  2.8565
13707TIP3    H262613   2.633   3.408   1.994  2.1390  0.2992 -2.1148
13708TIP3   OH262614   2.360   2.313  11.802  0.3032 -0.5895 -0.1363
13708TIP3    H162615   2.368   2.379  11.871 -2.2596 -0.6733  0.3353
13708TIP3    H262616   2.368   2.361  11.720 -0.0708  0.0660  0.2117
13709TIP3   OH262617   0.419   4.616  15.844  0.2573  0.0434  0.3171
13709TIP3    H162618   0.377   4.702  15.835  2.4714  1.0594 -1.5007
13709TIP3    H262619   0.433   4.587  15.753  2.1137 -0.8461  0.8271
13710TIP3   OH262620   1.644   3.018  14.059  0.0874 -0.1626  0.1665
13710TIP3    H162621   1.663   2.931  14.096  0.4549  0.4292  1.4222
13710TIP3    H262622   1.550   3.017  14.043 -0.4433  0.1244  2.7895
13711TIP3   OH262623   5.600   5.382  11.355 -0.4885 -0.5503 -0.0312
13711TIP3    H162624   5.518   5.411  11.315 -1.6183 -0.5948  2.0801
13711TIP3    H262625   5.632   5.459  11.403  1.0402 -0.3658 -1.2702
13712TIP3   OH262626   5.717   3.934  11.215 -0.5495 -0.1232 -0.1827
13712TIP3    H162627   5.736   4.001  11.281  1.1083 -0.7293 -0.0031
13712TIP3    H262628   5.705   3.854  11.266  0.8642 -0.6203 -0.6090
13713TIP3   OH262629   1.668   5.668   6.661  0.9579  0.4869  0.2419
13713TIP3    H162630   1.642   5.757   6.683 -0.7163 -0.0515  0.6184
13713TIP3    H262631   1.686   5.671   6.567  0.7415  1.1920  0.2193
13714TIP3   OH262632   3.670   3.661  14.183  0.4356  0.2614 -0.1101
13714TIP3    H162633   3.677   3.626  14.272  0.8092  1.1155  0.2010
13714TIP3    H262634   3.758   3.651  14.146 -0.2552 -2.3553 -1.2736
13715TIP3   OH262635   2.640   2.439   2.495 -0.0791  0.1399  0.1094
13715TIP3    H162636   2.690   2.518   2.475  0.3764 -0.0070  0.6282
13715TIP3    H262637   2.649   2.384   2.418 -1.5269  1.1424 -0.8143
13716TIP3   OH262638   6.221   2.549   3.832  0.4436 -0.6604 -0.1696
13716TIP3    H162639   6.171   2.629   3.851  0.6044 -0.5897 -0.0505
13716TIP3    H262640   6.290   2.577   3.772  0.7575 -0.6297  0.2025
13717TIP3   OH262641   2.100   3.685  13.176  0.1246  0.5349 -0.0658
13717TIP3    H162642   2.147   3.743  13.235  2.1202 -1.2631  0.2485
13717TIP3    H262643   2.168   3.637  13.129 -1.3831 -1.2161 -0.6282
13718TIP3   OH262644   0.262   3.370  14.936  0.1993  0.0558 -0.0073
13718TIP3    H162645   0.288   3.420  15.014  0.5457  0.6313 -0.4888
13718TIP3    H262646   0.192   3.312  14.968 -1.2487  1.8539  0.2831
13719TIP3   OH262647   6.820   6.111   0.610  0.1914  0.1312  0.2181
13719TIP3    H162648   6.785   6.198   0.628 -2.0849 -0.6331 -0.1794
13719TIP3    H262649   6.850   6.116   0.519 -2.3457 -0.1376 -0.7162
13720TIP3   OH262650   2.119   1.816   5.941  0.2336  0.2949  0.0804
13720TIP3    H162651   2.082   1.878   5.878  0.9368 -1.5528 -2.2573
13720TIP3    H262652   2.052   1.808   6.009 -0.3956  2.5999 -0.1859
13721TIP3   OH262653   5.341   3.104  12.142 -0.0901  0.2376 -0.0147
13721TIP3    H162654   5.264   3.059  12.105 -0.1020  0.4462 -0.2461
13721TIP3    H262655   5.349   3.183  12.089 -0.9140  1.2206  1.2820
13722TIP3   OH262656   4.603   5.257   3.706  0.5271 -0.5145 -0.2474
13722TIP3    H162657   4.550   5.183   3.675  0.2269 -0.6171  0.4769
13722TIP3    H262658   4.549   5.334   3.689  0.0880 -0.6256  0.5577
13723TIP3   OH262659   1.815   3.072  11.674 -0.4935 -0.2626 -0.0792
13723TIP3    H162660   1.782   3.149  11.719  0.0648  0.4643 -0.8839
13723TIP3    H262661   1.757   3.001  11.702 -0.0635  0.1218  1.8571
13724TIP3   OH262662   2.221   2.124   4.570  0.1284 -0.3376 -0.1295
13724TIP3    H162663   2.170   2.053   4.609  1.6878 -0.3551  2.0371
13724TIP3    H262664   2.299   2.081   4.535  0.3361  0.1155 -0.2335
13725TIP3   OH262665   4.689   1.517   1.338 -0.1778 -0.0113 -0.5807
13725TIP3    H162666   4.627   1.449   1.365 -1.5448  1.1440 -0.6852
13725TIP3    H262667   4.708   1.564   1.419  0.3827 -0.2054 -0.5976
13726TIP3   OH262668   2.527   2.409   5.113 -0.6389  0.1368 -0.0017
13726TIP3    H162669   2.525   2.348   5.187  2.6246 -2.1167 -1.5342
13726TIP3    H262670   2.464   2.373   5.050 -0.5721 -0.2171  0.1309
13727TIP3   OH262671   1.377   4.565   5.112  0.3857 -0.2557  0.3844
13727TIP3    H162672   1.317   4.491   5.122  0.1131 -0.0723  0.1380
13727TIP3    H262673   1.321   4.642   5.120  0.5641 -0.0828  0.0124
13728TIP3   OH262674   4.252   2.548   5.843 -0.3856 -0.3480 -0.5337
13728TIP3    H162675   4.315   2.546   5.915 -1.8313  0.3474  0.8165
13728TIP3    H262676   4.302   2.519   5.767  1.3551 -0.5487  0.6183
13729TIP3   OH262677   0.663   3.778  16.946 -0.4773 -0.0460  0.1083
13729TIP3    H162678   0.646   3.688  16.918  0.7291 -1.0053  2.2396
13729TIP3    H262679   0.586   3.801  16.999 -0.4919 -0.0298  0.0817
13730TIP3   OH262680   4.446   4.900   0.932 -0.8847 -0.5436 -0.3233
13730TIP3    H162681   4.376   4.965   0.937  0.5225  1.0739 -0.6870
13730TIP3    H262682   4.498   4.927   0.856 -0.6046 -2.4810 -0.8654
13731TIP3   OH262683   1.159   5.369   6.453 -0.2225 -0.2587 -0.4999
13731TIP3    H162684   1.071   5.399   6.475  0.8741  1.5176  1.9153
13731TIP3    H262685   1.174   5.294   6.511  0.4910  0.6220  0.4862
13732TIP3   OH262686   5.277   0.626  13.688  0.2562 -0.1200  0.4613
13732TIP3    H162687   5.189   0.592  13.674  1.2245 -3.2179  1.0806
13732TIP3    H262688   5.315   0.631  13.600  0.2146 -1.2403  0.3525
13733TIP3   OH262689   6.451   1.188   1.094 -0.2982  0.4922 -0.3135
13733TIP3    H162690   6.377   1.196   1.033 -0.5619 -0.3291 -0.1117
13733TIP3    H262691   6.432   1.109   1.145  1.2210 -0.3363 -0.9515
13734TIP3   OH262692   4.623   0.954   0.016  0.3781  0.8246 -0.0403
13734TIP3    H162693   4.540   0.991  -0.013  0.2225  0.7189  0.2716
13734TIP3    H262694   4.604   0.916   0.101 -0.6511 -4.1298 -2.1700
13735TIP3   OH262695   0.077   6.653   0.805 -0.5021  0.3872  0.1583
13735TIP3    H162696   0.034   6.620   0.884  0.1886  0.4694  0.5743
13735TIP3    H262697   0.160   6.690   0.836 -0.4679  0.9098 -0.5357
13736TIP3   OH262698   5.297   4.269  13.528  0.0219 -0.0475 -0.4247
13736TIP3    H162699   5.339   4.200  13.579 -1.5423 -0.6767  0.0887
13736TIP3    H262700   5.287   4.342  13.590  0.7989  0.3023 -0.6960
13737TIP3   OH262701   2.371   5.734  14.644  0.2521  0.4169  0.5184
13737TIP3    H162702   2.313   5.803  14.612 -0.7306 -0.9082 -0.6991
13737TIP3    H262703   2.318   5.686  14.708  1.2738  1.3511  2.1320
13738TIP3   OH262704   6.462   5.671   1.972  0.0445 -0.7193  0.6030
13738TIP3    H162705   6.503   5.728   2.037 -0.4056 -2.6403  2.7154
13738TIP3    H262706   6.530   5.656   1.906  1.4037 -0.6244  1.9233
13739TIP3   OH262707   4.950   6.767  11.363 -0.4193 -0.0233 -0.0992
13739TIP3    H162708   4.956   6.755  11.458  0.1631  0.1472 -0.1129
13739TIP3    H262709   5.019   6.712  11.327  0.1981  0.8868 -0.3430
13740TIP3   OH262710   3.691   2.007   5.022 -0.7339 -0.2374  0.3004
13740TIP3    H162711   3.680   1.964   4.937 -1.5582 -0.7458  0.6576
13740TIP3    H262712   3.759   1.956   5.066 -0.5179 -0.1538  0.0655
13741TIP3   OH262713   1.803   0.134  16.005  0.5894  0.1322 -0.0008
13741TIP3    H162714   1.750   0.068  16.050  1.7375 -0.8129  0.0136
13741TIP3    H262715   1.778   0.127  15.913  1.8144 -1.4498 -0.2463
13742TIP3   OH262716   5.638   0.316  15.141  0.3911  0.0308  0.0558
13742TIP3    H162717   5.645   0.407  15.115  0.0356 -0.4225 -1.8091
13742TIP3    H262718   5.728   0.285  15.148  0.5098  0.0532 -1.1996
13743TIP3   OH262719   1.614   6.558   4.471  0.0412 -0.1065  0.2638
13743TIP3    H162720   1.692   6.518   4.432  0.2152 -0.7040  1.1965
13743TIP3    H262721   1.641   6.579   4.560  0.3968  3.3283 -0.5014
13744TIP3   OH262722   2.682   5.800  15.116  0.0300  0.7198 -0.6472
13744TIP3    H162723   2.654   5.888  15.141 -0.5660  0.4101 -0.1866
13744TIP3    H262724   2.694   5.754  15.199  0.6087  0.4436 -0.8769
13745TIP3   OH262725   3.921   4.523   4.848 -0.0692  0.0751 -0.4430
13745TIP3    H162726   3.949   4.543   4.937 -0.7764  0.0934 -0.2147
13745TIP3    H262727   3.897   4.608   4.811 -2.2493 -0.1801  0.2356
13746TIP3   OH262728   0.594   3.776   0.098 -0.4514 -0.1468  0.1476
13746TIP3    H162729   0.578   3.683   0.082 -2.8900  0.2046  0.1725
13746TIP3    H262730   0.514   3.820   0.069  0.2902  1.8648  0.9466
13747TIP3   OH262731   2.219   2.007   4.934 -0.5215 -0.1166 -0.1804
13747TIP3    H162732   2.138   2.025   4.887 -0.8652  1.2107  0.8591
13747TIP3    H262733   2.284   1.992   4.865 -1.4593 -0.3670 -1.0331
13748TIP3   OH262734   2.333   5.729  13.689  0.0596  0.4176 -1.3904
13748TIP3    H162735   2.254   5.711  13.740  1.3040 -1.3674  0.0396
13748TIP3    H262736   2.370   5.808  13.729  0.4808 -0.3867 -0.1414
13749TIP3   OH262737   0.191   5.389   4.602 -0.0317  0.1835 -0.1551
13749TIP3    H162738   0.277   5.352   4.623 -0.4229 -0.1350  0.9467
13749TIP3    H262739   0.142   5.316   4.566  0.0576  0.2974 -0.5152
13750TIP3   OH262740   6.236   1.310  16.984 -0.1973  0.3803  0.2078
13750TIP3    H162741   6.175   1.237  16.991 -1.5403  1.4069 -0.2553
13750TIP3    H262742   6.200   1.364  16.913  2.3836 -0.0159 -1.5371
13751TIP3   OH262743   0.964   6.503  15.648  0.3230 -0.1172  0.3046
13751TIP3    H162744   0.919   6.519  15.565  1.0397  1.7484  0.2277
13751TIP3    H262745   0.944   6.412  15.669 -0.3212 -0.4690 -1.6369
13752TIP3   OH262746   5.004   1.961   3.624 -0.2105  0.6057  0.3667
13752TIP3    H162747   5.060   1.943   3.699  2.7469  4.2873 -0.6490
13752TIP3    H262748   4.974   2.051   3.637  1.2620  1.8034 -3.1115
13753TIP3   OH262749   4.710   1.243  15.981 -0.0590  0.4394 -0.5056
13753TIP3    H162750   4.740   1.333  15.996  0.4642  0.2919 -0.6804
13753TIP3    H262751   4.750   1.192  16.051 -2.2176  0.7081  1.0251
13754TIP3   OH262752   4.907   2.705   1.230 -0.1726  0.0922 -0.1760
13754TIP3    H162753   4.932   2.712   1.322 -1.1216 -0.0048  0.1037
13754TIP3    H262754   4.847   2.631   1.227  0.9865 -0.8429 -1.1409
13755TIP3   OH262755   5.019   3.275  16.570  0.1413 -0.4324  0.3280
13755TIP3    H162756   4.944   3.220  16.591 -0.5033  1.2047  2.7048
13755TIP3    H262757   4.981   3.360  16.546  1.1985 -0.1136 -0.3258
13756TIP3   OH262758   2.644   2.013  16.340 -0.2244 -0.1416  0.3640
13756TIP3    H162759   2.639   2.004  16.245  2.5350 -1.3261  0.2437
13756TIP3    H262760   2.552   2.016  16.369 -1.1409 -0.8293 -2.2172
13757TIP3   OH262761   5.396   3.182   0.219 -0.1223  0.0364 -0.2370
13757TIP3    H162762   5.445   3.250   0.265 -0.0008  0.1043 -0.4675
13757TIP3    H262763   5.322   3.163   0.277 -0.2267  0.4530 -0.2364
13758TIP3   OH262764   5.185   2.945   5.188  0.1047 -0.5341 -0.7188
13758TIP3    H162765   5.184   2.916   5.097  0.5294 -1.2682 -0.4942
13758TIP3    H262766   5.182   2.864   5.240 -0.0283 -0.1302 -0.0840
13759TIP3   OH262767   3.455   0.832  11.346  0.5928  0.5044 -0.0252
13759TIP3    H162768   3.495   0.746  11.347 -1.4389 -0.5028 -0.4894
13759TIP3    H262769   3.437   0.852  11.438 -2.5059 -1.3972 -0.1138
13760TIP3   OH262770   6.822   1.821   5.688  0.0076 -0.1121  0.2261
13760TIP3    H162771   6.825   1.770   5.769  0.1968 -0.7131 -0.1544
13760TIP3    H262772   6.797   1.758   5.620 -1.2962  0.6188 -0.0046
13761TIP3   OH262773   3.723   6.251  16.409 -0.0570  0.6412  0.3072
13761TIP3    H162774   3.817   6.243  16.423 -0.0089  0.2615 -0.2123
13761TIP3    H262775   3.712   6.340  16.375  0.1542  0.5648  0.0373
13762TIP3   OH262776   4.037   5.599  10.747 -0.0581  0.7546  0.2444
13762TIP3    H162777   4.030   5.598  10.652 -2.5735  3.1733  0.2701
13762TIP3    H262778   3.956   5.557  10.777  1.1944 -0.9540  1.3870
13763TIP3   OH262779   2.291   4.256  16.748  0.2780 -0.5796 -0.1954
13763TIP3    H162780   2.202   4.281  16.774  0.1260 -0.1040 -1.1457
13763TIP3    H262781   2.298   4.164  16.772 -0.2829 -0.4786  0.3786
13764TIP3   OH262782   3.466   4.366   6.333 -0.4723 -0.3494  0.3563
13764TIP3    H162783   3.509   4.420   6.399 -0.1503  1.1002 -0.9695
13764TIP3    H262784   3.530   4.299   6.310  0.8583  1.3281 -1.0502
13765TIP3   OH262785   6.701   1.515   3.513 -0.0102  0.2677  0.2183
13765TIP3    H162786   6.694   1.538   3.421  0.0543  1.3799  0.4741
13765TIP3    H262787   6.614   1.534   3.549  0.8736  3.3223  1.0879
13766TIP3   OH262788   2.373   2.837  15.732 -0.2777  0.2723  0.5836
13766TIP3    H162789   2.428   2.792  15.669 -1.4912  0.7458 -0.8735
13766TIP3    H262790   2.307   2.772  15.758  0.1736  0.1001  1.3357
13767TIP3   OH262791   1.003   2.817   1.321 -0.0721 -0.1288  0.0330
13767TIP3    H162792   1.070   2.873   1.281  1.6853 -1.6173  0.7317
13767TIP3    H262793   0.984   2.860   1.405 -0.4175  0.5839 -0.3986
13768TIP3   OH262794   4.884   5.683  17.052 -0.1008  0.1083  0.1949
13768TIP3    H162795   4.961   5.737  17.031 -0.3370  0.5231  0.3891
13768TIP3    H262796   4.913   5.593  17.035  0.7563  0.1648  1.2419
13769TIP3   OH262797   2.356   1.837  14.003 -0.2643 -0.0626 -0.1238
13769TIP3    H162798   2.260   1.834  14.006 -0.4203 -1.5752 -3.0430
13769TIP3    H262799   2.383   1.745  14.006  1.1627  0.3693  1.2995
13770TIP3   OH262800   4.963   0.489   3.243  0.6190  0.6910  0.1516
13770TIP3    H162801   4.891   0.540   3.205  0.8797  1.4026  0.6077
13770TIP3    H262802   5.037   0.504   3.184  0.9020  1.4429  0.6906
13771TIP3   OH262803   6.469   0.162   5.158  0.3907  0.1628 -0.7564
13771TIP3    H162804   6.378   0.187   5.143  0.2880 -1.1933 -2.8980
13771TIP3    H262805   6.501   0.225   5.222 -2.6054 -0.5454  1.6638
13772TIP3   OH262806   4.623   1.503  11.019 -1.0309  0.3018  0.2093
13772TIP3    H162807   4.651   1.427  10.967  2.7565  1.0703  0.8238
13772TIP3    H262808   4.601   1.467  11.104 -0.5787 -0.2608  0.0932
13773TIP3   OH262809   4.539   6.054   5.693  0.1038  0.0176  0.7062
13773TIP3    H162810   4.447   6.052   5.716  0.7052 -3.5583  3.7807
13773TIP3    H262811   4.540   6.083   5.602 -4.0249  0.1540  0.5162
13774TIP3   OH262812   0.696   1.192   1.004  0.3124 -0.3133  0.1243
13774TIP3    H162813   0.619   1.170   0.951  1.7302 -0.7914 -1.8750
13774TIP3    H262814   0.723   1.109   1.043  1.0213 -0.6143 -0.9428
13775TIP3   OH262815   0.016   3.499   5.928 -0.5616 -0.5355  0.5385
13775TIP3    H162816  -0.045   3.497   6.002 -0.6180  0.0194  0.5089
13775TIP3    H262817   0.025   3.592   5.906 -1.1050 -0.7342 -0.6099
13776TIP3   OH262818   4.225   4.996  13.169 -0.0058 -0.3305 -0.0198
13776TIP3    H162819   4.282   5.070  13.186 -2.4148  1.5444  0.4740
13776TIP3    H262820   4.204   5.003  13.075 -0.5118 -0.1403  0.1015
13777TIP3   OH262821   6.722   6.078   1.301 -0.4794 -0.4834 -0.4996
13777TIP3    H162822   6.802   6.090   1.250 -0.9123  0.8927 -0.9023
13777TIP3    H262823   6.675   6.008   1.255  0.8371 -1.8950  0.2182
13778TIP3   OH262824   4.028   3.591  12.573 -0.5252  0.6268 -0.3193
13778TIP3    H162825   4.057   3.629  12.490 -0.9618 -0.6786 -1.1140
13778TIP3    H262826   3.934   3.577  12.561 -0.3697 -0.7414 -0.1078
13779TIP3   OH262827   5.182   0.258  13.559 -0.1308  0.3532 -0.2674
13779TIP3    H162828   5.247   0.302  13.504 -1.0857  0.4412 -1.3643
13779TIP3    H262829   5.172   0.316  13.634  0.3733  0.8080 -0.5427
13780TIP3   OH262830   5.896   2.033  16.506 -0.3466 -0.0851 -0.5210
13780TIP3    H162831   5.948   2.108  16.536 -0.9808 -0.5793  1.9493
13780TIP3    H262832   5.805   2.062  16.512 -0.7950 -1.7107  2.8928
13781TIP3   OH262833   1.696   4.980  15.416 -0.0876 -0.2044 -0.1925
13781TIP3    H162834   1.662   5.031  15.343 -0.1560 -0.1460 -0.1196
13781TIP3    H262835   1.778   5.023  15.439  0.1888 -0.5174 -0.5602
13782TIP3   OH262836   4.270   3.865   1.773 -0.4111  0.0000 -0.0004
13782TIP3    H162837   4.313   3.950   1.779 -2.4853  1.0052  1.8286
13782TIP3    H262838   4.177   3.885   1.767 -0.9401 -2.1508  0.1804
13783TIP3   OH262839   2.357   3.075   0.849  0.4191 -0.1750  0.6021
13783TIP3    H162840   2.422   3.119   0.795 -0.7057  1.9065  0.8465
13783TIP3    H262841   2.406   3.041   0.923  1.5915 -0.9109 -0.4572
13784TIP3   OH262842   5.378   5.145   4.652  0.4299 -0.4329 -0.1678
13784TIP3    H162843   5.381   5.051   4.633  2.4129 -0.0709 -1.9937
13784TIP3    H262844   5.330   5.183   4.578  1.0265  0.1410 -0.2729
13785TIP3   OH262845   2.679   2.799   0.168 -0.1652 -0.5119 -0.1266
13785TIP3    H162846   2.605   2.792   0.229 -0.6661 -0.5055 -0.7273
13785TIP3    H262847   2.746   2.845   0.218 -0.0658 -1.6957  0.8819
13786TIP3   OH262848   3.640   0.665  12.326  0.2352  0.0639  0.1983
13786TIP3    H162849   3.673   0.739  12.378  1.3082 -1.0318  1.1647
13786TIP3    H262850   3.585   0.617  12.387  0.1706 -0.3485 -0.1843
13787TIP3   OH262851   2.150   4.146   5.000 -0.5764 -0.5294  0.3137
13787TIP3    H162852   2.198   4.218   4.959 -0.7360 -1.3994 -1.4816
13787TIP3    H262853   2.179   4.068   4.954 -1.6468 -1.4165  1.0884
13788TIP3   OH262854   1.234   6.621  12.684 -0.5742 -0.9959 -0.1116
13788TIP3    H162855   1.283   6.660  12.757 -0.1841 -0.2903 -0.7418
13788TIP3    H262856   1.210   6.534  12.717 -1.2583 -0.3378  1.2233
13789TIP3   OH262857   0.034   2.911   3.236  0.2615  0.3116 -0.1594
13789TIP3    H162858  -0.043   2.854   3.224  0.8010 -0.6992  1.0396
13789TIP3    H262859   0.020   2.952   3.321  0.4712  1.0598 -0.4830
13790TIP3   OH262860   1.385   3.484  14.235 -0.0620  0.2432  0.6060
13790TIP3    H162861   1.328   3.524  14.301 -0.1266  1.0944  0.0509
13790TIP3    H262862   1.468   3.531  14.243  0.4025 -0.6487  1.0671
13791TIP3   OH262863   3.589   4.943   5.651  0.2080 -0.1753 -0.4192
13791TIP3    H162864   3.623   4.866   5.696 -0.5410 -1.1764 -1.4879
13791TIP3    H262865   3.495   4.942   5.671 -0.1982 -0.8126 -2.1575
13792TIP3   OH262866   5.296   4.137  14.557 -0.3751 -0.3769  0.1420
13792TIP3    H162867   5.363   4.178  14.502  0.4829  0.0109  1.4489
13792TIP3    H262868   5.277   4.203  14.624 -0.9741 -1.0758  0.6628
13793TIP3   OH262869   2.596   3.898  12.030 -0.1422 -0.3748  0.2703
13793TIP3    H162870   2.649   3.914  11.952 -1.0347 -0.7893 -0.4316
13793TIP3    H262871   2.655   3.853  12.090  0.7254  0.4492  0.0741
13794TIP3   OH262872   5.699   0.509   0.035 -0.2390 -0.4235 -0.0175
13794TIP3    H162873   5.688   0.588  -0.018 -0.2858 -0.4661 -0.0722
13794TIP3    H262874   5.625   0.454   0.011 -0.1104 -0.5564 -0.1094
13795TIP3   OH262875   5.455   2.828  16.993  0.3842  0.2888  0.3722
13795TIP3    H162876   5.468   2.878  17.073 -0.8787 -0.4772  1.0868
13795TIP3    H262877   5.495   2.743  17.010  1.4772  0.6207 -0.4053
13796TIP3   OH262878   5.263   3.424   2.213 -0.0066 -0.0886  0.6260
13796TIP3    H162879   5.255   3.380   2.129  0.0115  0.1790  0.4811
13796TIP3    H262880   5.187   3.482   2.217  0.7466  0.9791  0.1379
13797TIP3   OH262881   2.966   4.810   2.344  0.1906 -0.5369 -0.2029
13797TIP3    H162882   2.895   4.858   2.302  0.4780 -1.2310 -1.5113
13797TIP3    H262883   2.928   4.725   2.367  0.5826 -0.9178 -0.9234
13798TIP3   OH262884   2.404   1.737   5.557  0.0518 -0.8194 -0.1117
13798TIP3    H162885   2.377   1.739   5.649  0.9862 -0.5992  0.1714
13798TIP3    H262886   2.325   1.714   5.509 -0.2256 -1.9853  0.8462
13799TIP3   OH262887   6.173   6.053  16.385  0.2208  0.9757 -0.3835
13799TIP3    H162888   6.227   6.048  16.464  0.0745  2.3554 -0.1824
13799TIP3    H262889   6.190   6.140  16.349  0.7309  0.1722 -2.2106
13800TIP3   OH262890   3.642   1.409   2.872  0.3572 -0.0643  0.0665
13800TIP3    H162891   3.717   1.433   2.818  0.2736 -0.3557 -0.1787
13800TIP3    H262892   3.566   1.422   2.816  0.2520 -0.1213  0.1947
13801TIP3   OH262893   5.743   1.728  12.351 -0.3893  0.0405  0.5622
13801TIP3    H162894   5.787   1.732  12.436  0.2970  0.8598  0.1841
13801TIP3    H262895   5.815   1.725  12.287 -0.8854 -1.9740  0.0439
13802TIP3   OH262896   6.133   0.148  16.580  0.1281 -0.1642  0.2617
13802TIP3    H162897   6.043   0.133  16.608 -0.2136 -0.5072 -0.9339
13802TIP3    H262898   6.146   0.085  16.508  1.0193  0.5050 -0.1825
13803TIP3   OH262899   4.206   3.940  12.989 -0.2595 -0.0643 -0.7163
13803TIP3    H162900   4.127   3.963  13.039  0.5336  0.2816  0.4153
13803TIP3    H262901   4.173   3.890  12.915 -1.4353 -1.1968  0.5097
13804TIP3   OH262902   4.688   0.371   4.761 -0.3267 -0.1204  0.0171
13804TIP3    H162903   4.676   0.425   4.683  0.6525 -0.6181 -0.5026
13804TIP3    H262904   4.768   0.320   4.743 -0.8369 -1.2333  0.7757
13805TIP3   OH262905   2.589   4.661  16.139 -0.2872 -1.1156  0.8543
13805TIP3    H162906   2.567   4.588  16.196  0.1154 -0.9046  1.2870
13805TIP3    H262907   2.642   4.622  16.069 -2.5478 -1.7823 -0.6418
13806TIP3   OH262908   5.618   3.078  16.104 -0.1406  0.1203  0.9133
13806TIP3    H162909   5.641   3.170  16.118 -4.3293  1.6538 -0.5357
13806TIP3    H262910   5.672   3.051  16.030  1.8911  1.0048  1.9895
13807TIP3   OH262911   5.952   1.398   2.747  0.6455 -0.4909  0.1941
13807TIP3    H162912   5.950   1.439   2.661  0.9120  0.6517  0.7143
13807TIP3    H262913   6.012   1.324   2.737  0.4546 -0.5332 -0.6717
13808TIP3   OH262914   6.233   1.442   5.623 -0.2496  0.0705  0.0450
13808TIP3    H162915   6.201   1.357   5.592  1.8941 -0.5600 -0.5954
13808TIP3    H262916   6.270   1.424   5.709 -0.2912  0.4710  0.1471
13809TIP3   OH262917   4.763   3.837  11.784  0.2761 -0.1609 -0.3150
13809TIP3    H162918   4.746   3.916  11.835  3.1372 -0.8245  1.9590
13809TIP3    H262919   4.837   3.860  11.728 -0.9550 -0.3404 -2.1017
13810TIP3   OH262920   1.075   4.041   4.758  0.3513  0.0335 -0.9127
13810TIP3    H162921   1.140   4.089   4.808  1.4393 -2.8859  0.7023
13810TIP3    H262922   1.126   3.994   4.691 -0.4082 -0.2919 -1.2789
13811TIP3   OH262923   5.841   0.438   2.868  0.9767  0.3175  0.5241
13811TIP3    H162924   5.748   0.418   2.879  0.8307  0.3367 -0.6224
13811TIP3    H262925   5.860   0.415   2.777  2.4563 -1.0651  1.1455
13812TIP3   OH262926   6.571   5.577   1.007  1.0604  0.5019 -0.0089
13812TIP3    H162927   6.547   5.657   1.054  1.4195  1.8698 -2.0211
13812TIP3    H262928   6.651   5.547   1.051  0.7522  1.0521  0.9622
13813TIP3   OH262929   0.661   2.091  16.074  0.3143 -0.4895  0.2820
13813TIP3    H162930   0.731   2.062  16.133 -0.6957 -0.7965  1.3674
13813TIP3    H262931   0.589   2.029  16.090 -0.2725 -0.0789 -0.6867
13814TIP3   OH262932   0.791   4.612  10.768 -0.1767  0.4661 -0.6529
13814TIP3    H162933   0.704   4.574  10.780 -0.0152  0.3093  0.0949
13814TIP3    H262934   0.829   4.613  10.856 -0.6842  3.5660 -0.3495
13815TIP3   OH262935   2.199   0.040  12.252 -0.3106  0.1210 -0.1900
13815TIP3    H162936   2.155  -0.039  12.219 -0.4887 -0.3787  1.1789
13815TIP3    H262937   2.244   0.011  12.332 -0.0994  1.3360  0.1499
13816TIP3   OH262938   0.545   4.994   5.611 -0.3104  0.3981 -0.4985
13816TIP3    H162939   0.512   4.904   5.604  1.3231 -0.3174  0.3695
13816TIP3    H262940   0.540   5.029   5.522 -0.3880 -0.7693 -0.9668
13817TIP3   OH262941   4.802   4.552  16.380 -0.3825  0.9115 -0.0621
13817TIP3    H162942   4.781   4.493  16.308  0.4446 -0.2681  0.6338
13817TIP3    H262943   4.800   4.640  16.341 -1.0111  0.3886 -1.2486
13818TIP3   OH262944   4.048   2.664  13.674  1.0476  0.7078  0.7537
13818TIP3    H162945   3.989   2.588  13.676  2.2272 -0.2276  1.1730
13818TIP3    H262946   4.051   2.693  13.765  0.3364  1.5010  0.5421
13819TIP3   OH262947   1.216   6.225  15.861 -0.5774  0.4674 -0.0093
13819TIP3    H162948   1.162   6.147  15.871  0.6042 -0.5668 -1.3253
13819TIP3    H262949   1.283   6.218  15.929 -0.4424  0.2909 -0.1581
13820TIP3   OH262950   4.010   6.669  15.919 -0.3488 -0.2062  0.4254
13820TIP3    H162951   4.027   6.582  15.956  1.3657  0.2155  0.6943
13820TIP3    H262952   3.968   6.652  15.835  0.5523 -1.3183  0.1843
13821TIP3   OH262953   3.296   5.586   2.367  0.2875 -0.1384 -0.4703
13821TIP3    H162954   3.222   5.548   2.414 -0.7391  0.2492 -1.7156
13821TIP3    H262955   3.308   5.672   2.407 -0.1744 -0.0622 -0.4854
13822TIP3   OH262956   6.209   0.099   3.114 -0.5266 -0.0075 -0.0058
13822TIP3    H162957   6.161   0.150   3.050  0.3244 -1.3021 -1.7726
13822TIP3    H262958   6.164   0.014   3.116 -0.4233 -0.0539  0.9813
13823TIP3   OH262959   5.987   0.725  14.140  0.0188 -0.4055 -0.4538
13823TIP3    H162960   5.907   0.690  14.178 -0.8340  0.6063 -1.2495
13823TIP3    H262961   5.965   0.815  14.116  1.3916 -0.1083 -0.7103
13824TIP3   OH262962   3.542   6.234  15.670 -0.2295 -0.6556  0.8144
13824TIP3    H162963   3.546   6.320  15.712  0.5064 -1.7633  3.2005
13824TIP3    H262964   3.624   6.191  15.693  1.8401 -0.3656 -4.5117
13825TIP3   OH262965   2.366   2.131   2.928  0.3331  0.0538 -0.0355
13825TIP3    H162966   2.334   2.194   2.863 -0.4052 -0.3478 -0.0646
13825TIP3    H262967   2.374   2.183   3.009 -1.8203 -0.1539  0.3492
13826TIP3   OH262968   6.364   3.506  16.917  0.0362  0.1046  0.1331
13826TIP3    H162969   6.386   3.491  17.009 -0.2405  1.0936  0.3780
13826TIP3    H262970   6.443   3.481  16.869 -0.1163 -1.2755  0.5457
13827TIP3   OH262971   1.228   6.375  14.040  0.4807 -0.1094  0.2557
13827TIP3    H162972   1.175   6.448  14.073 -0.0498  0.1835 -1.1676
13827TIP3    H262973   1.295   6.362  14.107  2.3457  3.5424 -0.6590
13828TIP3   OH262974   0.102   4.411   1.352  0.8319 -0.0510  0.0144
13828TIP3    H162975   0.014   4.446   1.369  0.5291 -1.9583  3.2668
13828TIP3    H262976   0.150   4.483   1.312 -1.0590  2.4932  2.0000
13829TIP3   OH262977   5.322   3.337   2.617  0.5001  0.2157  0.6023
13829TIP3    H162978   5.340   3.243   2.618  0.0382  0.1257  0.6307
13829TIP3    H262979   5.382   3.373   2.682  0.1753 -0.1556  1.1149
13830TIP3   OH262980   0.422   6.592  15.981 -0.2621  0.6105 -0.4666
13830TIP3    H162981   0.436   6.559  16.070  3.2326  1.7751 -0.4603
13830TIP3    H262982   0.429   6.514  15.926  0.0544  0.2385  0.0860
13831TIP3   OH262983   0.539   6.733   0.177 -0.0348 -0.0412  0.2141
13831TIP3    H162984   0.495   6.756   0.094 -2.3986 -0.0126  1.3790
13831TIP3    H262985   0.542   6.815   0.226  1.6192  0.0020  0.0968
13832TIP3   OH262986   2.501   5.689  15.655 -0.0300  0.2135 -0.1189
13832TIP3    H162987   2.416   5.689  15.698 -0.1499 -1.8148 -0.2601
13832TIP3    H262988   2.483   5.655  15.567  0.6403  1.6016 -0.8140
13833TIP3   OH262989   6.108   2.686  16.492 -0.0564  0.0643  0.4931
13833TIP3    H162990   6.070   2.655  16.574 -1.8056 -0.5690 -0.4871
13833TIP3    H262991   6.044   2.660  16.425  1.6048 -0.0333 -1.1498
13834TIP3   OH262992   1.752   5.776   0.583  0.0090 -0.0507 -0.2484
13834TIP3    H162993   1.788   5.688   0.573  0.8480  0.4392 -2.0061
13834TIP3    H262994   1.739   5.807   0.493 -3.6405  0.3326  0.2312
13835TIP3   OH262995   6.120   1.811  13.382  0.4568  0.4320 -0.5000
13835TIP3    H162996   6.093   1.768  13.463 -0.6749 -0.6261 -1.4035
13835TIP3    H262997   6.058   1.780  13.316  1.6731  0.8342 -1.8956
13836TIP3   OH262998   5.736   2.046  17.098  0.1288  0.2581 -0.3995
13836TIP3    H162999   5.828   2.050  17.123 -0.0373 -0.4312  0.3677
13836TIP3    H263000   5.701   1.970  17.145 -1.1304  1.2496  0.3363
13837TIP3   OH263001   5.338   5.302  12.174 -0.0316  0.1311  0.1750
13837TIP3    H163002   5.426   5.264  12.167  0.1248  0.6129 -0.5990
13837TIP3    H263003   5.288   5.259  12.105 -1.5894 -3.1157  3.0066
13838TIP3   OH263004   6.047   2.491   3.630 -0.5739 -0.3972  0.5598
13838TIP3    H163005   5.991   2.458   3.700 -0.3358  0.7000  1.2909
13838TIP3    H263006   6.125   2.524   3.675 -1.1005  1.8302 -0.0146
13839TIP3   OH263007   6.414   5.410   1.665 -0.0919  0.2845 -0.5646
13839TIP3    H163008   6.365   5.336   1.631 -1.6048  0.6559  0.6770
13839TIP3    H263009   6.496   5.372   1.698 -1.6750 -1.2467  1.9166
13840TIP3   OH263010   1.348   0.884  16.733 -0.5231 -0.3939 -0.1291
13840TIP3    H163011   1.292   0.836  16.794 -1.3741 -0.4524 -0.9469
13840TIP3    H263012   1.399   0.817  16.688 -0.6387 -0.4214 -0.2180
13841TIP3   OH263013   4.767   1.318  14.881  0.0633  0.9541  0.1980
13841TIP3    H163014   4.805   1.280  14.961 -0.1079 -0.9940 -0.5839
13841TIP3    H263015   4.830   1.385  14.855  1.1296  0.2790  0.9137
13842TIP3   OH263016   3.907   1.652   1.517  0.5311  0.0722  0.5127
13842TIP3    H163017   3.979   1.663   1.455 -1.1863 -2.0446 -2.0894
13842TIP3    H263018   3.828   1.654   1.462 -1.1813 -0.8151  2.8022
13843TIP3   OH263019   3.555   2.126  14.761  0.2272  0.1985 -0.4681
13843TIP3    H163020   3.529   2.058  14.823  0.3280  0.1653 -0.4634
13843TIP3    H263021   3.474   2.147  14.714  0.0844  0.4244 -0.1309
13844TIP3   OH263022   0.367   0.668  16.235 -0.3431  0.1964 -0.0679
13844TIP3    H163023   0.353   0.748  16.285  2.0444  0.1388  0.8013
13844TIP3    H263024   0.425   0.694  16.163  0.3642 -0.7046  0.1538
13845TIP3   OH263025   6.433   2.180   5.288  0.3511 -0.6992 -0.6105
13845TIP3    H163026   6.386   2.205   5.367  1.7067  1.1321 -0.3090
13845TIP3    H263027   6.365   2.168   5.221 -0.6689 -0.3707  0.3469
13846TIP3   OH263028   3.970   4.222   1.371 -0.0382 -0.3576  0.1146
13846TIP3    H163029   4.057   4.223   1.331 -0.5267  2.1282 -1.0890
13846TIP3    H263030   3.983   4.261   1.457 -0.0020  0.4209 -0.2356
13847TIP3   OH263031   2.652   1.496   5.877  0.5939 -0.0143  0.2604
13847TIP3    H163032   2.732   1.454   5.846  1.7418  1.0670  1.6095
13847TIP3    H263033   2.674   1.589   5.884 -1.2276  0.5200 -0.6372
13848TIP3   OH263034   1.613   5.321  15.466 -0.4438 -0.4772 -0.0822
13848TIP3    H163035   1.685   5.304  15.527 -0.8251 -0.7723  0.2806
13848TIP3    H263036   1.535   5.291  15.511 -1.0760  1.6465  0.3478
13849TIP3   OH263037   0.920   1.726   2.596  0.1748 -0.4426  0.4086
13849TIP3    H163038   0.851   1.667   2.568  1.0051 -1.7955  1.1269
13849TIP3    H263039   0.917   1.798   2.532 -1.1456 -1.0132 -0.2169
13850TIP3   OH263040   4.825   2.633  12.443 -0.3495 -0.4504 -0.0446
13850TIP3    H163041   4.741   2.661  12.481 -0.4996  0.2734 -0.8705
13850TIP3    H263042   4.801   2.598  12.357 -0.0005 -1.9346  0.4249
13851TIP3   OH263043   5.610   0.863  13.228 -0.2541 -0.3403 -0.0962
13851TIP3    H163044   5.661   0.904  13.158 -1.5669 -0.0628 -0.9247
13851TIP3    H263045   5.558   0.936  13.265  0.6288 -0.4162  1.3850
13852TIP3   OH263046   1.406   6.055  15.488 -0.1132  0.3345 -0.1466
13852TIP3    H163047   1.482   6.086  15.439  0.0747  1.3040  0.7075
13852TIP3    H263048   1.413   6.100  15.573 -1.1152 -0.3087  0.2949
13853TIP3   OH263049   4.803   3.210  15.851  0.3802 -0.1340  0.1729
13853TIP3    H163050   4.779   3.202  15.758 -1.1646  0.5741  0.4780
13853TIP3    H263051   4.863   3.285  15.854  1.2314 -0.7706 -0.3637
13854TIP3   OH263052   6.422   3.326  14.618  0.3800 -0.2881 -0.0275
13854TIP3    H163053   6.477   3.296  14.545  0.9980 -0.6032  0.5589
13854TIP3    H263054   6.384   3.245  14.654 -0.9770 -0.0311 -0.8064
13855TIP3   OH263055   4.912   5.244   5.236 -0.1533 -0.6852  0.0744
13855TIP3    H163056   4.963   5.319   5.204  0.6702 -1.4204 -0.3689
13855TIP3    H263057   4.916   5.180   5.166 -1.6593 -0.8059  0.0493
13856TIP3   OH263058   5.406   4.711  15.468 -0.1133 -0.0865  0.0982
13856TIP3    H163059   5.433   4.749  15.385  0.0757  0.5675  0.4541
13856TIP3    H263060   5.481   4.658  15.495  0.2982  0.6483  0.4235
13857TIP3   OH263061   3.230   5.764   0.557 -0.2900  0.2105  0.3181
13857TIP3    H163062   3.283   5.750   0.636 -1.0641 -2.4414  0.4523
13857TIP3    H263063   3.169   5.691   0.556 -0.8012  0.5896 -2.3760
13858TIP3   OH263064   0.022   2.987   2.409  0.0491  1.0607  0.6629
13858TIP3    H163065   0.046   3.023   2.494 -0.4228  1.0171  0.8139
13858TIP3    H263066  -0.051   3.041   2.379  1.1818  2.0636 -0.4127
13859TIP3   OH263067   4.156   1.325   5.686  0.0964  0.1010  0.2551
13859TIP3    H163068   4.144   1.247   5.740 -0.7386 -0.0649 -0.1663
13859TIP3    H263069   4.238   1.364   5.719 -0.1446 -0.2568  1.3161
13860TIP3   OH263070   5.844   5.564   4.529  0.0266  0.1451  0.2840
13860TIP3    H163071   5.871   5.646   4.570  0.2522  0.7011 -0.9359
13860TIP3    H263072   5.789   5.521   4.595  0.2314  1.0816  1.0905
13861TIP3   OH263073   5.781   4.120   3.393 -0.4539  0.5294 -0.2699
13861TIP3    H163074   5.695   4.134   3.354 -0.4172 -0.9132 -0.9228
13861TIP3    H263075   5.802   4.029   3.373  1.4736  1.0036 -0.6096
13862TIP3   OH263076   3.040   1.372   1.412 -0.4994  0.1753  0.5386
13862TIP3    H163077   3.131   1.344   1.420 -0.5767 -0.7165 -1.3569
13862TIP3    H263078   3.038   1.456   1.459  1.2860  0.2271  0.6178
13863TIP3   OH263079   2.260   3.056   2.835  0.3533 -0.4716 -0.3684
13863TIP3    H163080   2.252   3.043   2.929  0.1358 -0.6483 -0.4109
13863TIP3    H263081   2.332   3.119   2.825 -0.7638  0.9254  0.0210
13864TIP3   OH263082   4.782   3.458  16.485  0.1960 -0.3424  0.1531
13864TIP3    H163083   4.709   3.400  16.468  0.0103 -0.0472 -0.0690
13864TIP3    H263084   4.792   3.458  16.581  0.3664 -0.9346  0.1420
13865TIP3   OH263085   3.148   1.679   1.406  0.0471 -0.1704 -0.2925
13865TIP3    H163086   3.081   1.708   1.467 -1.3793 -0.7738 -1.4861
13865TIP3    H263087   3.152   1.748   1.340  1.9720  0.7440  0.7320
13866TIP3   OH263088   6.131   1.101   0.646  0.1748  0.0844  0.6469
13866TIP3    H163089   6.166   1.051   0.720  0.4530  1.7723  1.7266
13866TIP3    H263090   6.208   1.135   0.601  0.0053 -0.9963 -0.4991
13867TIP3   OH263091   2.931   6.616  11.071  0.2704  0.1591  0.7203
13867TIP3    H163092   2.962   6.525  11.073 -0.2839 -0.0339  0.6439
13867TIP3    H263093   2.939   6.642  10.979  2.3785  0.8862  1.0385
13868TIP3   OH263094   0.336   5.580  13.499  0.3849 -0.8693 -0.3140
13868TIP3    H163095   0.409   5.531  13.535  1.6610  1.1952  0.0740
13868TIP3    H263096   0.289   5.613  13.575  0.2194 -0.5630 -0.5440
13869TIP3   OH263097   4.732   5.885   0.029 -0.2513 -0.3772 -0.2557
13869TIP3    H163098   4.781   5.826  -0.029  1.0328  0.3279  0.0832
13869TIP3    H263099   4.726   5.967  -0.020  1.0718  0.3103  0.6664
13870TIP3   OH263100   5.079   6.467   0.717  0.2968  0.5270 -0.5989
13870TIP3    H163101   5.009   6.433   0.772  0.3343 -0.5941 -1.2194
13870TIP3    H263102   5.065   6.426   0.631  2.4706 -0.8390 -0.3911
13871TIP3   OH263103   6.537   4.328   1.354 -0.0246 -0.4377  0.1429
13871TIP3    H163104   6.602   4.316   1.423  0.2556 -1.7844 -0.3285
13871TIP3    H263105   6.584   4.307   1.273 -0.5558  0.3815 -0.3969
13872TIP3   OH263106   5.682   5.376   3.614 -0.0846  0.1838  0.2364
13872TIP3    H163107   5.724   5.353   3.697 -0.0781 -0.8836 -0.0466
13872TIP3    H263108   5.730   5.452   3.582 -0.6004  1.1261  1.5956
13873TIP3   OH263109   1.792   3.854  12.527  0.5319 -0.4441 -0.3338
13873TIP3    H163110   1.767   3.801  12.451 -0.3011 -1.7509  0.7932
13873TIP3    H263111   1.718   3.844  12.588  1.1933  0.5367  0.6533
13874TIP3   OH263112   4.447   2.227   2.307 -0.1484 -0.3040 -0.3337
13874TIP3    H163113   4.390   2.195   2.238  1.4077  1.8022 -2.7926
13874TIP3    H263114   4.425   2.320   2.316  0.3873 -0.2956  1.3227
13875TIP3   OH263115   0.221   0.987   3.285 -0.0487  0.0021 -0.2619
13875TIP3    H163116   0.143   0.990   3.231 -0.2858 -0.3239  0.0575
13875TIP3    H263117   0.238   0.894   3.300  0.4827  0.0630 -0.4448
13876TIP3   OH263118   0.788   6.517  11.158  0.3831 -0.1069 -0.2024
13876TIP3    H163119   0.709   6.464  11.155 -0.1644  0.5584  1.2765
13876TIP3    H263120   0.821   6.518  11.068 -0.3426 -1.7904 -0.5165
13877TIP3   OH263121   5.966   6.721  15.579  0.2704 -0.4671 -0.6306
13877TIP3    H163122   6.020   6.725  15.657 -0.3967 -0.2239 -0.1649
13877TIP3    H263123   5.991   6.798  15.528  0.1044 -0.1511 -0.2388
13878TIP3   OH263124   4.597   4.932  16.556 -0.2834 -0.1595  0.5451
13878TIP3    H163125   4.643   4.978  16.486 -0.0098 -0.1969  0.6983
13878TIP3    H263126   4.608   4.839  16.535 -1.4948 -0.1568 -0.1907
13879TIP3   OH263127   3.782   0.720   0.686 -0.2508 -0.0786  0.1177
13879TIP3    H163128   3.847   0.789   0.684 -0.2644 -0.0611  0.2769
13879TIP3    H263129   3.717   0.746   0.621  0.0155 -0.2082 -0.2024
13880TIP3   OH263130   6.326   1.960  10.959  0.2656 -0.5952 -0.5514
13880TIP3    H163131   6.366   1.897  10.900  0.2341  0.4247 -1.7252
13880TIP3    H263132   6.397   1.991  11.015  0.4533 -1.0505 -0.5404
13881TIP3   OH263133   2.307   3.730  14.621 -0.0401  0.4223  0.1287
13881TIP3    H163134   2.369   3.767  14.558 -0.6138  0.9424 -0.1406
13881TIP3    H263135   2.247   3.802  14.640  0.5086  0.4851  1.7881
13882TIP3   OH263136   0.374   6.465   0.767  0.1812 -0.3517 -0.0300
13882TIP3    H163137   0.409   6.553   0.777 -1.1601  0.2634 -0.5355
13882TIP3    H263138   0.450   6.411   0.748  0.7397  1.1172 -2.2580
13883TIP3   OH263139   3.599   4.605   2.781 -0.2645 -0.3330 -0.5388
13883TIP3    H163140   3.504   4.610   2.774 -0.3073 -1.0600 -0.5470
13883TIP3    H263141   3.617   4.516   2.813  0.3025  0.4612  1.4896
13884TIP3   OH263142   4.403   0.413   1.907 -0.1847 -0.2666 -1.0922
13884TIP3    H163143   4.433   0.503   1.919 -1.6709  0.0820  0.4603
13884TIP3    H263144   4.404   0.376   1.995 -2.3473 -0.8087 -1.2330
13885TIP3   OH263145   1.291   0.515   3.494 -0.1315  0.0230 -0.1141
13885TIP3    H163146   1.219   0.464   3.534  2.2283 -2.5389  1.2533
13885TIP3    H263147   1.295   0.595   3.546 -0.3841 -0.9834  1.5406
13886TIP3   OH263148   6.789   0.528   2.137  0.3512 -0.1272 -0.1238
13886TIP3    H163149   6.837   0.565   2.063  0.1499  0.3109 -0.0363
13886TIP3    H263150   6.815   0.436   2.138  1.2166  0.1141 -0.0538
13887TIP3   OH263151   0.090   3.997  13.920 -0.1807 -0.6654 -0.6518
13887TIP3    H163152   0.047   4.074  13.883  1.2785  0.3884 -0.2491
13887TIP3    H263153   0.019   3.944  13.956 -1.3646 -0.3614 -2.4557
13888TIP3   OH263154   0.867   6.203   5.719  0.4387 -0.4428 -0.3909
13888TIP3    H163155   0.832   6.266   5.656 -0.5084 -0.8958 -0.3298
13888TIP3    H263156   0.869   6.249   5.802  0.7693 -0.1558 -0.5544
13889TIP3   OH263157   4.758   0.860  12.106  0.2503  0.2046  0.0611
13889TIP3    H163158   4.708   0.792  12.060 -0.9546  1.5337 -0.6609
13889TIP3    H263159   4.717   0.942  12.079  2.7531  1.3709 -0.4819
13890TIP3   OH263160   5.866   5.416   0.020  0.2290  0.3463 -0.1713
13890TIP3    H163161   5.872   5.322   0.032 -2.7475  0.2171  1.2128
13890TIP3    H263162   5.859   5.429  -0.074 -0.2258 -0.9158 -0.3183
13891TIP3   OH263163   6.080   4.592   5.166  0.0095 -0.8043 -0.0138
13891TIP3    H163164   6.134   4.563   5.093 -0.3606 -0.3364 -0.4768
13891TIP3    H263165   6.018   4.521   5.180 -0.5341 -0.4909 -0.7798
13892TIP3   OH263166   5.704   0.296  12.840  0.2956 -0.6018 -0.7781
13892TIP3    H163167   5.775   0.247  12.799  1.7572 -0.4402  1.4095
13892TIP3    H263168   5.660   0.339  12.767  2.0124 -1.2398 -2.2785
13893TIP3   OH263169   0.667   5.307  15.319  0.2825  0.8160  0.0508
13893TIP3    H163170   0.584   5.286  15.275  0.1325 -0.1532  0.7542
13893TIP3    H263171   0.725   5.235  15.296  0.5803  0.9241  0.4551
13894TIP3   OH263172   1.554   3.123   0.890 -0.6230  0.1751 -0.3410
13894TIP3    H163173   1.488   3.053   0.890 -1.4621  0.8176 -3.5277
13894TIP3    H263174   1.505   3.203   0.910  0.0787  0.1293  1.8146
13895TIP3   OH263175   1.993   3.173  13.906  0.1234  0.6159 -0.3163
13895TIP3    H163176   2.048   3.181  13.828  0.9825 -3.1502 -0.2792
13895TIP3    H263177   1.917   3.122  13.877 -0.6435  1.0456  0.8557
13896TIP3   OH263178   6.538   2.755  11.172  0.1203  0.1239 -0.7998
13896TIP3    H163179   6.458   2.765  11.224 -1.0217  0.5750 -2.5701
13896TIP3    H263180   6.556   2.661  11.173  0.6290  0.1867  1.0570
13897TIP3   OH263181   3.846   6.828   5.313 -0.2528 -0.4017 -0.5208
13897TIP3    H163182   3.832   6.891   5.242  0.6464 -0.2519 -0.5754
13897TIP3    H263183   3.941   6.826   5.325 -0.4489  1.0713  2.0143
13898TIP3   OH263184   0.792   1.718  16.485 -0.1594 -0.1183 -0.7497
13898TIP3    H163185   0.829   1.631  16.475 -1.9870 -1.0919  0.3136
13898TIP3    H263186   0.697   1.704  16.478 -0.7471  1.2021  2.5712
13899TIP3   OH263187   1.547   1.738  12.262 -0.6771 -0.0330  0.0912
13899TIP3    H163188   1.515   1.794  12.333  0.4372  0.4313  0.2481
13899TIP3    H263189   1.610   1.680  12.303 -1.3981 -1.0339 -0.1867
13900TIP3   OH263190   6.712   3.766   6.091 -0.2728 -0.5538  0.0402
13900TIP3    H163191   6.621   3.754   6.066  0.3563 -2.5357 -1.5758
13900TIP3    H263192   6.711   3.763   6.187 -1.8126 -1.2317  0.0297
13901TIP3   OH263193   1.844   1.185  13.411  0.3729  1.0025  0.2701
13901TIP3    H163194   1.802   1.265  13.442  1.8661  1.4990  1.1253
13901TIP3    H263195   1.857   1.199  13.317 -3.0290  0.0249 -0.4979
13902TIP3   OH263196   0.354   2.638   3.844  0.6668 -0.2689  0.2331
13902TIP3    H163197   0.413   2.571   3.879  0.2751 -0.6938  0.0872
13902TIP3    H263198   0.328   2.605   3.758  1.1203  0.4677 -0.2009
13903TIP3   OH263199   6.337   5.224  14.654  0.0484  0.3687 -0.2516
13903TIP3    H163200   6.388   5.217  14.573 -0.2430  1.0696 -0.5050
13903TIP3    H263201   6.246   5.221  14.625 -0.0596  0.8563  0.0272
13904TIP3   OH263202   4.699   0.068  14.388 -0.1005  0.0123  0.1879
13904TIP3    H163203   4.682  -0.024  14.410 -0.4504 -0.2631 -1.1852
13904TIP3    H263204   4.746   0.102  14.465 -1.3105 -0.8909  1.3733
13905TIP3   OH263205   1.146   2.266  10.991 -0.0596 -0.6826 -0.0523
13905TIP3    H163206   1.211   2.246  11.058  1.9989 -0.4679 -1.8794
13905TIP3    H263207   1.184   2.338  10.941 -3.1365  1.6811  0.6709
13906TIP3   OH263208   4.827   6.366  13.621 -0.2442 -0.4647 -0.1576
13906TIP3    H163209   4.837   6.392  13.713 -0.2123  0.5478 -0.4407
13906TIP3    H263210   4.733   6.346  13.612 -0.3541 -0.0019 -0.0499
13907TIP3   OH263211   6.240   0.014   0.169 -0.1521 -0.0404  0.0057
13907TIP3    H163212   6.243   0.108   0.191 -0.3009 -0.1453  0.4912
13907TIP3    H263213   6.277  -0.029   0.247 -1.9167 -0.5208  0.6172
13908TIP3   OH263214   1.934   5.602   5.412 -0.3559  0.0390  0.2673
13908TIP3    H163215   2.027   5.590   5.435 -0.0793 -0.3301 -0.9397
13908TIP3    H263216   1.914   5.691   5.439  0.3318  0.1008  0.6106
13909TIP3   OH263217   1.084   2.550   0.679 -0.5373 -0.1825  0.0158
13909TIP3    H163218   1.135   2.469   0.683  0.1033  0.2092 -0.0660
13909TIP3    H263219   1.013   2.537   0.742 -1.8104 -1.7198 -1.6226
13910TIP3   OH263220   4.807   4.768   4.029 -0.2600  0.5294 -0.0072
13910TIP3    H163221   4.811   4.673   4.037 -2.4548  0.3971  0.1686
13910TIP3    H263222   4.716   4.786   4.005  0.4375  2.4980 -1.5124
13911TIP3   OH263223   1.340   2.659   1.337 -0.8029  0.2470 -0.7405
13911TIP3    H163224   1.288   2.659   1.257  0.1507  0.4753 -1.3818
13911TIP3    H263225   1.385   2.743   1.336 -0.3643  0.0259 -0.2417
13912TIP3   OH263226   6.147   6.813  16.349  0.2610 -0.5709  0.5737
13912TIP3    H163227   6.165   6.822  16.255  0.9575 -0.6979  0.6847
13912TIP3    H263228   6.053   6.828  16.357  0.5626  2.0646  0.1626
13913TIP3   OH263229   3.630   6.822  11.791  0.4330  0.0159  0.2295
13913TIP3    H163230   3.659   6.854  11.876  1.4868  0.8741 -0.4369
13913TIP3    H263231   3.573   6.747  11.812  2.2232 -1.0318  1.6331
13914TIP3   OH263232   0.193   5.545  15.096  0.2890  0.3659 -0.0418
13914TIP3    H163233   0.104   5.533  15.126  0.0152  0.6350 -0.7237
13914TIP3    H263234   0.194   5.510  15.007  0.6699  1.0267 -0.3112
13915TIP3   OH263235   4.360   4.477   1.125 -0.3308  0.3436 -0.2074
13915TIP3    H163236   4.272   4.451   1.100 -0.3666  2.5582 -2.9109
13915TIP3    H263237   4.350   4.563   1.167  0.3474 -0.6908  2.2548
13916TIP3   OH263238   6.337   5.255  11.632 -0.5373 -0.0768 -0.2395
13916TIP3    H163239   6.326   5.346  11.660  0.5438 -0.0869  0.2885
13916TIP3    H263240   6.262   5.209  11.669  0.4116  0.0602  2.0239
13917TIP3   OH263241   5.912   1.100   4.847  0.4527 -0.9021  0.4103
13917TIP3    H163242   5.942   1.087   4.937  0.5318  0.5082  0.6120
13917TIP3    H263243   5.919   1.013   4.806 -0.1063 -1.6876  1.9076
13918TIP3   OH263244   0.855   1.514   4.148  0.0982 -0.1486 -0.0092
13918TIP3    H163245   0.873   1.435   4.200 -0.8173 -1.4239 -1.5501
13918TIP3    H263246   0.888   1.586   4.202  0.5016 -1.5288  1.6777
13919TIP3   OH263247   3.991   5.546  10.480  0.3908 -0.2908 -0.3226
13919TIP3    H163248   3.994   5.465  10.431 -0.0501 -0.8155  0.4849
13919TIP3    H263249   3.932   5.603  10.430  2.2077  0.2750 -1.9224
13920TIP3   OH263250   4.912   1.950  10.243  0.3149  0.4227  0.5290
13920TIP3    H163251   4.859   1.948  10.164  0.9627  0.4696  0.0829
13920TIP3    H263252   5.000   1.927  10.214  0.7527  1.3323  1.0774
13921TIP3   OH263253   0.276   2.759   2.118 -0.4315  0.1665  0.2681
13921TIP3    H163254   0.368   2.751   2.142 -0.8347 -2.2071  1.3739
13921TIP3    H263255   0.251   2.847   2.145  1.1436  0.3510  1.2476
13922TIP3   OH263256   5.980   2.824  11.402 -0.2057 -0.0740 -0.1050
13922TIP3    H163257   6.074   2.822  11.381 -0.1155 -2.2114  0.3515
13922TIP3    H263258   5.957   2.917  11.394  1.2797  0.1822 -3.1445
13923TIP3   OH263259   4.147   2.331  16.198 -0.5395 -0.0472 -0.2202
13923TIP3    H163260   4.155   2.357  16.290 -1.1361  0.3393 -0.2665
13923TIP3    H263261   4.117   2.410  16.154 -0.6172 -0.3324 -0.6865
13924TIP3   OH263262   5.257   4.767  17.090 -0.2673  0.4713 -0.4587
13924TIP3    H163263   5.216   4.800  17.011  0.2326  1.1572 -0.4399
13924TIP3    H263264   5.304   4.842  17.126  1.8677 -0.5335 -1.0287
13925TIP3   OH263265   5.284   4.288   0.656  0.0386  0.5268  0.5876
13925TIP3    H163266   5.308   4.243   0.575  0.7807 -0.5084  1.3591
13925TIP3    H263267   5.200   4.250   0.682  0.6615 -0.4446  1.2348
13926TIP3   OH263268   6.842   0.898  11.536 -0.3764  0.1335  0.0580
13926TIP3    H163269   6.818   0.878  11.626 -0.0974 -1.7267 -0.2474
13926TIP3    H263270   6.786   0.841  11.483  0.2671  0.3681 -0.8874
13927TIP3   OH263271   6.142   1.669  14.356 -0.1267  0.2553 -0.1390
13927TIP3    H163272   6.183   1.733  14.413 -0.5565 -1.2532  1.9696
13927TIP3    H263273   6.056   1.653  14.395 -1.1608  0.3880 -2.2001
13928TIP3   OH263274   0.976   6.000   3.215 -0.4917 -0.0389 -0.1463
13928TIP3    H163275   0.931   5.949   3.282  1.5325  0.0178  1.3551
13928TIP3    H263276   0.983   5.941   3.140  0.5892 -1.5427  1.0823
13929TIP3   OH263277   5.688   2.382  10.945 -0.6054 -0.5011 -0.7200
13929TIP3    H163278   5.593   2.374  10.935 -0.5382 -0.4334 -1.4452
13929TIP3    H263279   5.701   2.384  11.040 -1.1816 -2.2302 -0.5572
13930TIP3   OH263280   4.987   6.524  16.407  0.5905  0.0911 -0.2062
13930TIP3    H163281   5.006   6.504  16.499  0.5011  0.1953 -0.1656
13930TIP3    H263282   4.907   6.576  16.410  0.2382 -0.4356 -0.3863
13931TIP3   OH263283   0.117   6.747   1.661 -0.3317 -0.6639  0.1664
13931TIP3    H163284   0.047   6.706   1.609  0.0495  0.7567 -1.5427
13931TIP3    H263285   0.090   6.838   1.670 -0.0993 -0.7498  2.0459
13932TIP3   OH263286   6.342   4.635   0.629  0.2942 -0.5860 -0.0681
13932TIP3    H163287   6.249   4.638   0.606 -0.1964  0.8042  1.7915
13932TIP3    H263288   6.348   4.570   0.699  0.6856 -0.6185 -0.1305
13933TIP3   OH263289   2.742   5.053  11.001  0.1433  0.5296  0.7497
13933TIP3    H163290   2.741   4.957  11.003  0.1853  0.4366 -1.3052
13933TIP3    H263291   2.827   5.076  10.964 -0.0384  1.3406  0.8152
13934TIP3   OH263292   6.149   5.068  11.117 -0.1269 -0.4021 -0.3843
13934TIP3    H163293   6.212   5.103  11.179  0.8694 -3.4701  0.5395
13934TIP3    H263294   6.197   5.059  11.036 -0.6784  1.1836 -0.9221
13935TIP3   OH263295   4.077   5.845  12.807 -0.5073  0.8761 -0.3581
13935TIP3    H163296   4.057   5.841  12.713  1.7827  0.1999 -0.8703
13935TIP3    H263297   4.046   5.931  12.834 -2.9467  0.3661 -1.2478
13936TIP3   OH263298   1.078   0.824  12.711  0.1228  1.0070  0.1336
13936TIP3    H163299   1.100   0.787  12.796  2.8022  1.3141 -0.3463
13936TIP3    H263300   1.037   0.908  12.731  0.2899  0.8597  1.1159
13937TIP3   OH263301   0.763   0.650   0.435 -0.6429  0.7622 -0.9650
13937TIP3    H163302   0.774   0.729   0.488 -0.1948 -0.4925  0.9388
13937TIP3    H263303   0.843   0.644   0.383  1.3697 -0.5682  1.9927
13938TIP3   OH263304   0.808   6.549  15.423 -0.3118  0.1631 -0.1333
13938TIP3    H163305   0.721   6.583  15.442 -1.3324 -2.0768 -0.4181
13938TIP3    H263306   0.792   6.462  15.387  1.9650  0.5794 -2.4502
13939TIP3   OH263307   2.810   3.936  11.828  0.3468  0.0472  0.1189
13939TIP3    H163308   2.903   3.931  11.849 -0.2055 -1.6082  2.4503
13939TIP3    H263309   2.797   3.870  11.760  0.7425 -0.2684  0.3475
13940TIP3   OH263310   5.473   6.803  13.872 -0.5912 -0.2572  0.1814
13940TIP3    H163311   5.392   6.831  13.829 -0.3900 -0.2014 -0.1676
13940TIP3    H263312   5.486   6.713  13.842 -0.1562 -0.0308 -0.3144
13941TIP3   OH263313   0.076   3.471  11.185 -0.1829 -0.6832  0.2562
13941TIP3    H163314   0.095   3.523  11.107 -2.1411  0.8636  0.7063
13941TIP3    H263315   0.087   3.380  11.158 -3.3400 -0.3766 -2.6745
13942TIP3   OH263316   1.681   4.277  16.384  0.2330 -0.3003  0.0693
13942TIP3    H163317   1.709   4.336  16.454 -1.2976  0.6072 -0.0382
13942TIP3    H263318   1.744   4.291  16.314  0.8049  0.0307  0.6446
13943TIP3   OH263319   1.476   2.903   5.535 -0.5354 -0.0714 -0.4019
13943TIP3    H163320   1.537   2.831   5.520 -0.5346  0.3583 -2.7239
13943TIP3    H263321   1.426   2.910   5.454 -1.4760  1.6632  0.2785
13944TIP3   OH263322   3.396   4.941   0.238  0.2592 -0.1572  0.3233
13944TIP3    H163323   3.461   4.937   0.308  0.9449 -2.2139 -0.3268
13944TIP3    H263324   3.445   4.973   0.162 -0.2733  1.2590  0.5635
13945TIP3   OH263325   5.012   4.181  12.237 -0.6650  0.4003  0.2762
13945TIP3    H163326   5.036   4.134  12.318  0.2877 -0.3316 -0.4085
13945TIP3    H263327   4.932   4.138  12.208  0.1161 -0.7452 -0.2595
13946TIP3   OH263328   5.326   0.871  12.487  0.5200 -0.3094  0.4345
13946TIP3    H163329   5.282   0.956  12.491  1.3314  0.1580 -0.1066
13946TIP3    H263330   5.289   0.820  12.559 -0.1980  0.3968  0.5709
13947TIP3   OH263331   4.263   2.037   0.669  0.1451  0.1259  0.1879
13947TIP3    H163332   4.334   1.978   0.691 -2.7264 -3.2571  1.3742
13947TIP3    H263333   4.244   2.083   0.751  0.4554  0.4754  0.0671
13948TIP3   OH263334   4.471   6.507   3.709 -0.4282  0.2980 -0.0861
13948TIP3    H163335   4.429   6.591   3.692 -0.2673  0.2806 -0.5750
13948TIP3    H263336   4.430   6.476   3.790 -2.3905 -0.3630 -1.2636
13949TIP3   OH263337   6.697   4.179  14.025 -0.0651 -0.6366  0.3892
13949TIP3    H163338   6.620   4.124  14.011  0.1952 -0.8917 -0.0644
13949TIP3    H263339   6.667   4.268  14.006 -0.4113 -0.6561  0.8386
13950TIP3   OH263340   3.739   1.851  12.764 -0.1029 -0.2362 -0.6378
13950TIP3    H163341   3.804   1.887  12.704  0.7720 -0.9477 -0.1477
13950TIP3    H263342   3.667   1.824  12.707 -0.1134  0.8488 -1.1578
13951TIP3   OH263343   2.383   1.205   5.305  0.0115  0.1776 -0.0022
13951TIP3    H163344   2.371   1.111   5.314 -0.4947  0.4111  2.3105
13951TIP3    H263345   2.298   1.238   5.278 -0.0055  0.0514 -0.1007
13952TIP3   OH263346   0.252   3.440  11.479  0.4631  0.3843  0.2420
13952TIP3    H163347   0.246   3.369  11.415  0.0667  1.2178 -0.6698
13952TIP3    H263348   0.307   3.505  11.436  0.8697  0.6111  1.0931
13953TIP3   OH263349   2.845   3.467   0.976 -0.3342  0.7859 -0.6511
13953TIP3    H163350   2.776   3.444   0.915 -0.9095 -0.7698  0.5071
13953TIP3    H263351   2.926   3.457   0.926 -0.8756  1.4558 -1.6838
13954TIP3   OH263352   3.862   1.804   3.087  0.0906 -0.0523  0.4143
13954TIP3    H163353   3.844   1.895   3.067 -0.6071 -0.6544 -2.0075
13954TIP3    H263354   3.952   1.804   3.121  0.0231  1.5243  0.6582
13955TIP3   OH263355   5.483   3.106   6.991 -0.4408  0.5574  0.9623
13955TIP3    H163356   5.456   3.193   6.962 -0.0194  0.4717  0.2900
13955TIP3    H263357   5.432   3.046   6.937  0.9277  0.3953 -0.2130
13956TIP3   OH263358   3.201   2.380   1.575  0.3246  0.3566  0.5463
13956TIP3    H163359   3.211   2.356   1.483 -1.7222  0.8908  0.1456
13956TIP3    H263360   3.200   2.297   1.622 -0.8386 -0.0634 -0.1759
13957TIP3   OH263361   2.578   6.331  12.229  0.3097 -0.5886 -0.5173
13957TIP3    H163362   2.540   6.338  12.142  0.9451 -1.0852 -0.8505
13957TIP3    H263363   2.639   6.257  12.222  2.8304  1.3749 -0.5866
13958TIP3   OH263364   5.999   6.323  13.448  0.4931 -0.0709  0.1913
13958TIP3    H163365   5.993   6.412  13.485  0.6303 -0.3378  0.8678
13958TIP3    H263366   6.092   6.312  13.428  0.5394 -0.2031  0.4721
13959TIP3   OH263367   1.380   5.317   3.793 -0.3682 -0.5593  0.4653
13959TIP3    H163368   1.302   5.371   3.783  0.0481 -0.2586 -1.8180
13959TIP3    H263369   1.438   5.347   3.722  0.9471 -2.2041  0.7925
13960TIP3   OH263370   0.941   3.528  15.709 -0.0709  0.9635 -0.5138
13960TIP3    H163371   0.960   3.488  15.624  0.1326 -0.1201  0.0252
13960TIP3    H263372   1.005   3.598  15.718 -0.4695  1.4857 -1.5006
13961TIP3   OH263373   2.875   4.381   1.314 -0.4345  0.0991 -0.3279
13961TIP3    H163374   2.918   4.458   1.353  0.1522 -0.5596  0.3701
13961TIP3    H263375   2.927   4.307   1.345 -0.9852 -0.5836 -1.0000
13962TIP3   OH263376   5.682   1.988  12.372 -0.0018 -0.2077  0.4628
13962TIP3    H163377   5.593   2.022  12.358 -0.3144 -0.6463  1.3254
13962TIP3    H263378   5.670   1.893  12.376  0.3487 -0.2112  1.6508
13963TIP3   OH263379   0.771   3.895   0.977 -0.0536 -0.5575  0.3235
13963TIP3    H163380   0.796   3.923   1.065 -1.7129 -0.6149  0.8426
13963TIP3    H263381   0.850   3.908   0.924  1.8817 -3.0477  2.3561
13964TIP3   OH263382   4.130   1.040  15.796 -0.2662  0.2188 -0.1299
13964TIP3    H163383   4.103   1.050  15.887  0.7541 -1.5031  0.4230
13964TIP3    H263384   4.176   1.121  15.774  1.3691 -0.1604  1.6239
13965TIP3   OH263385   2.988   4.619   0.210 -0.5055 -0.0832  0.3532
13965TIP3    H163386   2.964   4.699   0.163  0.1046 -0.6900 -1.0731
13965TIP3    H263387   3.084   4.614   0.201 -0.5501 -1.0318  0.2759
13966TIP3   OH263388   1.669   0.009  14.426  0.1696 -0.4333  0.5518
13966TIP3    H163389   1.615  -0.019  14.500 -2.2563  4.4618  1.0141
13966TIP3    H263390   1.606   0.043  14.362  2.4542 -0.9597 -2.1722
13967TIP3   OH263391   6.068   6.536  13.119 -0.0046 -0.1012  0.3908
13967TIP3    H163392   6.112   6.504  13.199  0.3535  1.5652  0.8919
13967TIP3    H263393   5.978   6.551  13.146  0.4082  1.7429  0.9067
13968TIP3   OH263394   2.724   4.415  14.328  0.5116  0.1450 -0.0403
13968TIP3    H163395   2.682   4.428  14.243 -0.3923 -1.0814  0.1887
13968TIP3    H263396   2.686   4.483  14.384 -0.8845 -0.6648  0.0451
13969TIP3   OH263397   5.715   3.970  12.259 -0.3373  0.3737  0.2202
13969TIP3    H163398   5.636   3.948  12.209  0.0191  2.3125 -1.3135
13969TIP3    H263399   5.754   4.043  12.211  1.2343  0.8906  2.1688
13970TIP3   OH263400   2.189   2.688   4.098 -0.1068  0.0264  0.0301
13970TIP3    H163401   2.108   2.736   4.083  0.9121  1.9768  0.4432
13970TIP3    H263402   2.240   2.702   4.018 -0.4161 -1.7802 -0.5227
13971TIP3   OH263403   5.630   4.022   3.651  1.0829 -0.2217 -0.2241
13971TIP3    H163404   5.543   3.989   3.629  0.5323 -0.1222  1.5753
13971TIP3    H263405   5.689   3.978   3.591  0.2629 -3.5502  1.1726
13972TIP3   OH263406   4.675   0.252   0.241 -0.0262  0.3523  0.5657
13972TIP3    H163407   4.631   0.333   0.265 -0.4943  0.5255 -0.7939
13972TIP3    H263408   4.635   0.186   0.297  0.0019  0.9674  1.3309
13973TIP3   OH263409   6.166   2.695  11.641 -0.3662  0.1598  0.4549
13973TIP3    H163410   6.135   2.637  11.571  0.1378  0.6632 -0.1986
13973TIP3    H263411   6.195   2.635  11.711  2.7989 -0.5516 -1.2873
13974TIP3   OH263412   0.525   5.831  11.767 -0.5047 -0.3382  0.0661
13974TIP3    H163413   0.468   5.846  11.692 -1.0794 -0.9321  0.3737
13974TIP3    H263414   0.570   5.748  11.747  0.2333  0.1092 -0.1628
13975TIP3   OH263415   4.918   0.448   3.951  0.1274  0.3098 -0.3219
13975TIP3    H163416   4.929   0.453   3.856  3.0450  1.9751 -0.0195
13975TIP3    H263417   4.973   0.374   3.978 -0.6552 -0.1317  0.0891
13976TIP3   OH263418   4.501   5.957   1.708  0.3491 -0.4401  0.5922
13976TIP3    H163419   4.560   5.983   1.778  0.4614  0.5851  0.1226
13976TIP3    H263420   4.549   5.889   1.660  0.2600 -1.1748  1.4980
13977TIP3   OH263421   4.908   3.211  11.587 -0.0166  0.5095  0.2169
13977TIP3    H163422   4.949   3.194  11.672  0.6913  2.1657  0.2500
13977TIP3    H263423   4.981   3.236  11.530 -0.5071 -0.4060 -0.8341
13978TIP3   OH263424   2.292   0.232   2.562  0.2223  0.3891  0.0963
13978TIP3    H163425   2.224   0.297   2.542  2.3592  2.3352 -1.2756
13978TIP3    H263426   2.347   0.273   2.628 -0.7851 -1.8670  2.5310
13979TIP3   OH263427   1.533   0.216  13.927  0.1617  0.1421 -0.4418
13979TIP3    H163428   1.607   0.257  13.882 -0.0718  1.3842  0.2595
13979TIP3    H263429   1.456   0.247  13.879 -0.0400  0.8279  0.3137
13980TIP3   OH263430   4.289   3.694   4.557  0.0241  0.2405 -0.6980
13980TIP3    H163431   4.219   3.714   4.618  1.4775 -0.1153  1.1696
13980TIP3    H263432   4.332   3.778   4.540 -1.1766  0.5656 -2.3331
13981TIP3   OH263433   2.931   4.301  11.853 -0.1955 -0.0742  0.6145
13981TIP3    H163434   2.908   4.240  11.923  0.8474 -1.1857  0.0084
13981TIP3    H263435   2.860   4.292  11.790 -0.7632  0.3922  1.1725
13982TIP3   OH263436   1.159   6.763  15.398  0.5974 -0.0940 -0.3714
13982TIP3    H163437   1.169   6.849  15.357 -0.4044 -0.3458 -1.2050
13982TIP3    H263438   1.088   6.722  15.349 -0.1701 -0.7008  1.1716
13983TIP3   OH263439   0.663   3.903  15.652 -0.4533 -0.3491  0.1595
13983TIP3    H163440   0.580   3.948  15.665 -1.0107 -1.0241 -0.9421
13983TIP3    H263441   0.715   3.926  15.729 -1.7028 -0.0288  0.9262
13984TIP3   OH263442   0.407   0.743  15.611 -0.0879  0.3197  0.0485
13984TIP3    H163443   0.429   0.748  15.704 -1.5648  0.1495  0.4297
13984TIP3    H263444   0.345   0.814  15.597  1.6527  1.6745 -1.3146
13985TIP3   OH263445   1.666   1.536  10.443 -0.2404 -0.2492 -0.3626
13985TIP3    H163446   1.758   1.507  10.440  0.0983  0.8291 -1.3760
13985TIP3    H263447   1.666   1.606  10.508 -0.5083 -0.7377  0.1693
13986TIP3   OH263448   1.650   1.059  12.318  0.4880  0.3658 -0.4425
13986TIP3    H163449   1.650   0.991  12.385 -1.7159 -1.2658 -1.9552
13986TIP3    H263450   1.743   1.073  12.298  1.0281 -1.9785  0.1507
13987TIP3   OH263451   2.433   1.244   0.235  0.0084 -0.0068  0.0154
13987TIP3    H163452   2.452   1.266   0.144  0.9993 -1.3915 -0.1472
13987TIP3    H263453   2.433   1.148   0.237 -0.1921  0.0048  1.4317
13988TIP3   OH263454   4.467   6.080   4.150  0.5042  0.0092 -0.2408
13988TIP3    H163455   4.493   6.021   4.221  0.1917 -0.4247 -0.4795
13988TIP3    H263456   4.458   6.023   4.073 -0.2652  0.2824 -0.3676
13989TIP3   OH263457   5.880   4.164  13.878  0.3719  0.6376  0.3135
13989TIP3    H163458   5.901   4.112  13.800  2.6120  1.0995  0.5398
13989TIP3    H263459   5.914   4.112  13.951 -0.7914  0.6823  0.9023
13990TIP3   OH263460   3.634   5.675   4.661 -0.4677 -0.4958 -0.4363
13990TIP3    H163461   3.595   5.743   4.605 -0.4261 -0.7053 -0.7225
13990TIP3    H263462   3.719   5.658   4.621  0.8343  1.4091  1.3297
13991TIP3   OH263463   5.508   4.227   1.347  0.1101  0.4336  0.3429
13991TIP3    H163464   5.496   4.300   1.286  0.8577  0.6781  0.4770
13991TIP3    H263465   5.590   4.246   1.392  0.6968 -0.8430 -0.1166
13992TIP3   OH263466   0.077   4.530   1.755 -0.5743  1.1236 -0.2435
13992TIP3    H163467   0.004   4.579   1.719 -0.1806  0.8722 -1.4308
13992TIP3    H263468   0.143   4.596   1.775 -0.2290  1.1548 -1.3942
13993TIP3   OH263469   6.790   5.536   1.148  0.5274  0.5941  0.5758
13993TIP3    H163470   6.870   5.542   1.200  1.2502  2.5900 -0.6491
13993TIP3    H263471   6.723   5.579   1.202  0.1565 -1.3183  1.7180
13994TIP3   OH263472   1.943   4.780  13.762  0.2244  0.2009  0.2073
13994TIP3    H163473   1.877   4.711  13.750  0.4337  0.2122 -1.2123
13994TIP3    H263474   2.027   4.736  13.746  0.3174  0.9075 -1.4257
13995TIP3   OH263475   6.721   1.894   6.457 -0.0782  0.0370  0.2062
13995TIP3    H163476   6.719   1.817   6.514  1.7332 -0.3165 -0.1404
13995TIP3    H263477   6.724   1.858   6.369  0.4041  0.5039  0.0288
13996TIP3   OH263478   0.297   1.880  14.058  0.3491 -0.0011 -0.1154
13996TIP3    H163479   0.341   1.958  14.025  1.1958  0.0059  0.9315
13996TIP3    H263480   0.217   1.873  14.007  1.0086  0.6623 -1.2952
13997TIP3   OH263481   0.529   5.033   4.874 -0.2997  0.3089 -1.0446
13997TIP3    H163482   0.595   5.058   4.937  0.1888  0.1708 -1.4954
13997TIP3    H263483   0.527   4.937   4.878 -1.5456  0.3518  0.0490
13998TIP3   OH263484   1.201   6.172   1.931 -0.2270 -0.0348 -0.4125
13998TIP3    H163485   1.144   6.219   1.870 -0.6594 -2.2238 -1.7719
13998TIP3    H263486   1.193   6.080   1.907 -0.2108 -1.0093  2.8022
13999TIP3   OH263487   5.631   0.679   0.850 -0.7770 -0.0664  0.2347
13999TIP3    H163488   5.726   0.675   0.861 -0.8569  2.0348  2.4978
13999TIP3    H263489   5.618   0.738   0.775 -0.2907  0.3330  0.4580
14000TIP3   OH263490   0.713   1.213  15.498  0.2419  0.2683 -0.4895
14000TIP3    H163491   0.669   1.297  15.504  0.0327  0.0848  0.6322
14000TIP3    H263492   0.803   1.231  15.527  0.3383  0.2081 -0.7482
14001TIP3   OH263493   0.537   2.538   3.358 -0.9007  0.8614 -0.0610
14001TIP3    H163494   0.562   2.480   3.286 -0.3086 -0.8231  1.4446
14001TIP3    H263495   0.501   2.615   3.314 -2.3329 -0.8681 -2.1614
14002TIP3   OH263496   6.449   0.522  16.914 -0.2267  0.2847 -0.9226
14002TIP3    H163497   6.487   0.502  16.828  0.3368 -1.0496 -0.4015
14002TIP3    H263498   6.480   0.451  16.970 -1.8661  0.2721  0.0246
14003TIP3   OH263499   6.832   4.969  12.084 -0.2165 -0.2611  0.1927
14003TIP3    H163500   6.843   4.926  11.999 -0.6188  0.0620 -0.0264
14003TIP3    H263501   6.919   5.005  12.104 -0.0592 -0.5528  0.0395
14004TIP3   OH263502   4.008   2.428   2.866  0.5507  0.5095 -0.1181
14004TIP3    H163503   4.020   2.522   2.882 -0.4030  0.4121  1.3952
14004TIP3    H263504   4.095   2.396   2.842  1.0734  1.6308  0.2010
14005TIP3   OH263505   6.038   6.443   2.019  0.4802  0.0891 -0.4696
14005TIP3    H163506   5.961   6.387   2.033 -0.1688  0.3350 -2.7824
14005TIP3    H263507   6.112   6.383   2.030 -0.0202 -0.3316  0.9457
14006TIP3   OH263508   2.858   1.083  15.565 -0.2688  0.8227  0.7243
14006TIP3    H163509   2.946   1.076  15.528 -0.2162 -1.5802  1.1453
14006TIP3    H263510   2.800   1.051  15.495 -0.5229 -0.1834  1.3759
14007TIP3   OH263511   3.918   0.393  11.066  0.5361  0.0403 -0.2912
14007TIP3    H163512   3.829   0.362  11.051  0.5765 -1.0777  1.5573
14007TIP3    H263513   3.958   0.393  10.979 -1.3919  1.0861 -1.2402
14008TIP3   OH263514   6.362   6.015  14.277  0.2760 -0.3604 -0.1047
14008TIP3    H163515   6.412   6.097  14.276 -1.4620  0.7557 -0.1313
14008TIP3    H263516   6.419   5.952  14.232  0.1194  1.8374 -3.8762
14009TIP3   OH263517   2.009   0.382  14.743  0.8497  0.5417 -1.1790
14009TIP3    H163518   1.966   0.444  14.684 -0.5318  2.2034  1.3415
14009TIP3    H263519   1.937   0.328  14.777  0.9426  1.8210  1.3473
14010TIP3   OH263520   2.211   5.232   1.232 -0.0673  0.6520 -0.2236
14010TIP3    H163521   2.299   5.213   1.199  0.4660  0.4811  1.2258
14010TIP3    H263522   2.181   5.148   1.266 -0.1663  1.0478  0.6768
14011TIP3   OH263523   1.437   0.833   6.327 -0.2954  0.3124 -0.3844
14011TIP3    H163524   1.464   0.922   6.352 -3.0358  0.9397  0.6262
14011TIP3    H263525   1.350   0.844   6.289 -0.5336 -1.9191 -0.5973
14012TIP3   OH263526   0.188   6.508  17.121 -0.5138 -0.1807 -0.4784
14012TIP3    H163527   0.154   6.435  17.172 -0.9179 -0.3778 -1.0191
14012TIP3    H263528   0.153   6.494  17.033  1.1271 -0.4987 -1.1023
14013TIP3   OH263529   4.788   1.995   2.579  0.1123  0.0977  0.0222
14013TIP3    H163530   4.813   2.086   2.595 -0.0147 -0.0709  1.2404
14013TIP3    H263531   4.739   1.999   2.497  1.4051  0.8923 -0.7571
14014TIP3   OH263532   3.150   4.916   2.161 -0.1887  0.6492  0.2152
14014TIP3    H163533   3.110   4.883   2.080  0.6614 -0.9533  0.4020
14014TIP3    H263534   3.094   4.881   2.231 -0.0677  0.7723  0.3726
14015TIP3   OH263535   3.506   4.188   2.059 -0.9568  0.0546 -0.1697
14015TIP3    H163536   3.481   4.241   2.135 -0.4231 -2.6573  2.0273
14015TIP3    H263537   3.424   4.149   2.029 -1.0158  0.3232 -0.3638
14016TIP3   OH263538   3.251   0.016  12.481 -0.1758 -0.2922  0.0161
14016TIP3    H163539   3.343  -0.001  12.497 -0.4091 -1.5437  0.1559
14016TIP3    H263540   3.205  -0.035  12.547 -0.9812 -0.2274 -0.4716
14017TIP3   OH263541   0.002   6.381   3.589 -0.5093  0.3339 -0.3178
14017TIP3    H163542  -0.014   6.347   3.677 -0.8606  0.2547 -0.4125
14017TIP3    H263543  -0.029   6.471   3.592 -0.2592  0.4192 -0.2801
14018TIP3   OH263544   1.763   1.786  14.537 -0.5544 -0.3589  0.0442
14018TIP3    H163545   1.687   1.844  14.533 -1.5071 -1.5169  0.6657
14018TIP3    H263546   1.742   1.716  14.475  1.3204  0.7433 -1.9671
14019TIP3   OH263547   1.834   5.797   1.397  0.2178 -0.0116 -0.4093
14019TIP3    H163548   1.808   5.743   1.471 -2.0975 -0.3064 -1.3747
14019TIP3    H263549   1.925   5.822   1.417 -0.1298 -0.5304  2.2249
14020TIP3   OH263550   1.120   2.653   0.000  0.2131  0.7186 -0.9367
14020TIP3    H163551   1.116   2.642   0.095 -0.0622 -0.7221 -1.0959
14020TIP3    H263552   1.123   2.564  -0.034  2.4652  1.2114 -2.2089
14021TIP3   OH263553   3.302   2.334   1.327 -0.4386 -0.3352  0.0701
14021TIP3    H163554   3.298   2.394   1.253  1.2628  0.2531  0.3934
14021TIP3    H263555   3.352   2.259   1.293 -1.2122 -0.8764  0.1151
14022TIP3   OH263556   3.260   2.760  15.046  0.1243 -0.3503  0.4024
14022TIP3    H163557   3.266   2.820  15.120 -0.3175  0.9395 -0.5584
14022TIP3    H263558   3.218   2.812  14.977  1.8732 -1.0046 -1.2438
14023TIP3   OH263559   2.525   0.868  15.954  0.1980 -0.1258 -0.4135
14023TIP3    H163560   2.445   0.918  15.935 -0.1862 -0.3726  0.5006
14023TIP3    H263561   2.546   0.825  15.871  0.0923  0.9268 -0.9939
14024TIP3   OH263562   5.275   2.947  16.719 -0.2194 -0.5035  0.7237
14024TIP3    H163563   5.345   2.966  16.657  0.1769 -0.9660  1.0251
14024TIP3    H263564   5.279   3.018  16.783 -0.9946  0.2901 -0.0748
14025TIP3   OH263565   2.992   2.999  14.308  0.1072  0.3600 -0.2200
14025TIP3    H163566   3.018   2.957  14.226  0.1740  1.6033 -0.8611
14025TIP3    H263567   3.070   3.046  14.337 -0.2313  0.7982 -0.0067
14026TIP3   OH263568   5.013   4.357  13.814  0.0282 -0.1441 -0.0843
14026TIP3    H163569   5.080   4.323  13.755  1.1332 -0.4566  1.2976
14026TIP3    H263570   4.988   4.441  13.776  1.6727  0.2761 -0.2990
14027TIP3   OH263571   5.751   1.653  10.526 -0.4298  0.1735  0.3594
14027TIP3    H163572   5.797   1.657  10.609 -0.4724 -1.9897  0.5279
14027TIP3    H263573   5.666   1.692  10.544 -0.1216  0.5209  1.0897
14028TIP3   OH263574   4.752   1.424  17.062 -0.2394  0.6602 -0.5711
14028TIP3    H163575   4.751   1.352  17.125  0.2492  0.9192 -0.2643
14028TIP3    H263576   4.812   1.488  17.100  0.3979  0.6351 -1.5052
14029TIP3   OH263577   2.946   0.086  12.655 -0.2508  0.0403 -0.1091
14029TIP3    H163578   2.996   0.108  12.734  0.2805  0.5946 -0.5940
14029TIP3    H263579   2.909   0.169  12.625  0.3518  0.0087 -0.9838
14030TIP3   OH263580   6.421   4.765  16.487 -0.3164 -0.4008 -0.5044
14030TIP3    H163581   6.452   4.849  16.519 -0.2223 -0.2584 -0.9574
14030TIP3    H263582   6.401   4.780  16.395 -0.8160 -0.7372 -0.4549
14031TIP3   OH263583   3.593   0.874   5.560 -0.2502 -0.2859 -0.3496
14031TIP3    H163584   3.552   0.825   5.632  1.9584  1.4979  2.3679
14031TIP3    H263585   3.655   0.812   5.521 -0.9465 -1.0761 -0.2083
14032TIP3   OH263586   3.400   3.649   2.270 -0.0391 -0.6724  0.2219
14032TIP3    H163587   3.309   3.656   2.297 -0.2280 -0.6753 -0.3980
14032TIP3    H263588   3.410   3.714   2.201  0.5985 -0.2299  0.7196
14033TIP3   OH263589   4.296   6.229  13.726  0.3187  0.0376 -0.4044
14033TIP3    H163590   4.323   6.284  13.800  1.2046  1.6238 -1.8538
14033TIP3    H263591   4.214   6.268  13.697 -0.1606 -0.7427 -0.1229
14034TIP3   OH263592   0.018   6.795  12.918 -0.3224  0.0325 -0.2769
14034TIP3    H163593  -0.027   6.879  12.911 -0.2143  0.0250 -1.1948
14034TIP3    H263594   0.065   6.786  12.835 -0.7909 -1.2025 -0.4281
14035TIP3   OH263595   5.529   3.444  10.807 -0.1543  0.1034 -0.3274
14035TIP3    H163596   5.525   3.539  10.793  0.1254 -0.0334 -1.4396
14035TIP3    H263597   5.446   3.412  10.771 -0.7504  0.0238  1.0585
14036TIP3   OH263598   5.344   4.433  12.009  0.0725 -0.1745 -0.1858
14036TIP3    H163599   5.329   4.431  11.914  1.1800  1.6601 -0.4574
14036TIP3    H263600   5.436   4.459  12.017  0.1422 -0.8247  1.4122
14037TIP3   OH263601   4.869   3.184   6.344 -0.0415 -0.7080 -0.1853
14037TIP3    H163602   4.794   3.145   6.387  1.2825 -1.6771  1.3227
14037TIP3    H263603   4.932   3.200   6.414  1.2196 -0.0265 -1.4185
14038TIP3   OH263604   1.768   0.395   1.702  0.3628  0.2626  0.0682
14038TIP3    H163605   1.757   0.415   1.609  0.0281  3.0928  0.6217
14038TIP3    H263606   1.842   0.334   1.705  1.3401  1.2610 -1.9609
14039TIP3   OH263607   3.239   1.042  13.414  0.0066 -0.0126 -0.0831
14039TIP3    H163608   3.165   0.993  13.450 -0.5747 -1.5770 -3.0981
14039TIP3    H263609   3.243   1.015  13.322  1.4838  3.5033 -1.2081
14040TIP3   OH263610   4.634   0.041  15.928  0.2827  0.7965  0.3343
14040TIP3    H163611   4.567  -0.020  15.960 -0.6027  2.4104  1.7318
14040TIP3    H263612   4.586   0.121  15.908  1.2771  0.8080 -2.3644
14041TIP3   OH263613   5.888   3.932  15.472 -0.5699  1.1997  0.2097
14041TIP3    H163614   5.978   3.946  15.443 -0.2373 -0.9579  0.0867
14041TIP3    H263615   5.834   3.965  15.400  0.0281  3.2944  0.6264
14042TIP3   OH263616   2.369   0.181  14.524 -0.0472 -0.2162  0.5782
14042TIP3    H163617   2.412   0.123  14.587  0.4643  0.5643  0.9528
14042TIP3    H263618   2.342   0.257  14.575  2.0998  1.3416 -0.4155
14043TIP3   OH263619   0.492   0.379   0.519  0.0846 -0.1852 -0.5375
14043TIP3    H163620   0.456   0.455   0.472 -2.2816 -0.1777  1.1406
14043TIP3    H263621   0.575   0.410   0.554 -1.1679  1.9703  0.7529
14044TIP3   OH263622   2.792   1.562   2.697 -0.3150 -0.5736  0.6407
14044TIP3    H163623   2.700   1.536   2.692 -0.2260 -0.8576  0.4202
14044TIP3    H263624   2.832   1.496   2.753 -0.0250 -1.0982 -0.1670
14045TIP3   OH263625   2.617   5.909  15.940  0.0662  0.2338  0.2778
14045TIP3    H163626   2.532   5.916  15.985 -0.9280  1.9537 -1.6807
14045TIP3    H263627   2.671   5.977  15.980  1.0401 -1.6510  2.3748
14046TIP3   OH263628   0.791   1.598  13.757 -0.1204  0.1597  0.0881
14046TIP3    H163629   0.809   1.692  13.753  0.1975  0.1089  0.3303
14046TIP3    H263630   0.731   1.589  13.831 -0.2038  0.1798  0.0229
14047TIP3   OH263631   1.777   4.066   2.749 -0.5114  0.0423 -0.4836
14047TIP3    H163632   1.728   4.063   2.831 -0.1486  1.7176 -0.1595
14047TIP3    H263633   1.867   4.045   2.774 -0.8861 -2.5161 -0.9965
14048TIP3   OH263634   1.871   2.906  12.182 -0.4433 -0.3410  0.4803
14048TIP3    H163635   1.923   2.832  12.214 -0.3939  0.1649  1.6477
14048TIP3    H263636   1.918   2.983  12.215 -1.2543  0.1606  0.4951
14049TIP3   OH263637   6.345   4.563  11.913  0.0464  0.2737 -0.6857
14049TIP3    H163638   6.275   4.518  11.865  1.4438 -0.6389 -1.9813
14049TIP3    H263639   6.358   4.510  11.992 -2.6349  2.0807  1.1505
14050TIP3   OH263640   1.562   2.492   1.305 -0.1082 -0.4813  0.6268
14050TIP3    H163641   1.481   2.540   1.319  0.6328  1.0149 -0.0514
14050TIP3    H263642   1.533   2.406   1.273 -1.4282 -0.2658  1.1582
14051TIP3   OH263643   6.535   6.719  13.036 -0.0075 -0.0605  0.0677
14051TIP3    H163644   6.619   6.685  13.066  0.9257 -0.2153 -2.5095
14051TIP3    H263645   6.474   6.645  13.044 -0.1286  0.2243  2.5206
14052TIP3   OH263646   3.612   4.183  12.730  0.2556  0.1821  0.2151
14052TIP3    H163647   3.641   4.190  12.821  0.4246  0.2701  0.1546
14052TIP3    H263648   3.690   4.156  12.681  0.1765  0.1799  0.0876
14053TIP3   OH263649   1.026   1.767   2.034  0.2249  0.1793 -0.2715
14053TIP3    H163650   1.065   1.853   2.048  1.1133 -0.3549  0.6843
14053TIP3    H263651   0.997   1.768   1.943  0.5177  1.3710 -0.3586
14054TIP3   OH263652   4.853   5.114   3.377 -0.2043  0.2703 -0.3707
14054TIP3    H163653   4.850   5.022   3.402  0.5298  0.3576  0.0771
14054TIP3    H263654   4.887   5.159   3.454 -1.4090  1.0516 -0.2687
14055TIP3   OH263655   3.404   5.521   4.646  0.3714  0.7142  0.1386
14055TIP3    H163656   3.403   5.435   4.688 -0.4964 -0.4262 -2.0540
14055TIP3    H263657   3.491   5.556   4.664  0.7085 -0.5925  1.1400
14056TIP3   OH263658   3.193   3.822  13.055  0.2689 -0.4657  0.6736
14056TIP3    H163659   3.139   3.899  13.043 -0.4967 -1.0615  0.1505
14056TIP3    H263660   3.266   3.851  13.110 -0.8109  0.2442  1.7738
14057TIP3   OH263661   4.292   4.822   6.090  0.3432  0.2890  0.1251
14057TIP3    H163662   4.358   4.852   6.152  0.3967  0.8861 -0.2114
14057TIP3    H263663   4.211   4.822   6.140  0.4529  0.3787  0.3048
14058TIP3   OH263664   1.754   3.083   6.094 -0.3998  0.4134 -0.1181
14058TIP3    H163665   1.703   3.163   6.108 -0.1168  0.5371  0.2080
14058TIP3    H263666   1.700   3.014   6.132 -0.3710  0.5295  0.1320
14059TIP3   OH263667   1.699   0.181  11.001  0.3762 -0.1474 -0.2094
14059TIP3    H163668   1.713   0.234  11.080 -2.4203  0.2986  0.0776
14059TIP3    H263669   1.781   0.188  10.954  1.8176  0.3935  2.1765
14060TIP3   OH263670   1.117   6.852  15.886  0.0287  0.5544 -0.2273
14060TIP3    H163671   1.172   6.774  15.881 -0.8263 -0.3379  2.6903
14060TIP3    H263672   1.064   6.840  15.965 -2.5608  2.5412 -1.4934
14061TIP3   OH263673   6.100   6.177  14.767 -0.1329 -0.4276 -0.0250
14061TIP3    H163674   6.053   6.208  14.689  1.4602  4.2674  0.5338
14061TIP3    H263675   6.186   6.151  14.734 -0.1728 -0.4981 -0.0741
14062TIP3   OH263676   6.663   6.598   2.191 -0.1465 -0.0049  0.2270
14062TIP3    H163677   6.596   6.581   2.125  2.0920  2.4419 -2.9838
14062TIP3    H263678   6.632   6.675   2.237 -0.9230 -0.7089  0.9133
14063TIP3   OH263679   1.045   2.550  16.100  0.2226  0.3353 -0.4933
14063TIP3    H163680   0.983   2.503  16.156  0.6958  0.9580  0.5846
14063TIP3    H263681   1.018   2.529  16.011  0.6258 -2.2703 -0.0696
14064TIP3   OH263682   0.834   0.699   2.124  0.0139 -0.1009  0.5615
14064TIP3    H163683   0.803   0.624   2.074  1.3549 -1.1699  1.2815
14064TIP3    H263684   0.794   0.775   2.080 -3.2399 -1.2842  1.1709
14065TIP3   OH263685   1.164   0.488  11.157  0.2839 -0.9331 -0.3424
14065TIP3    H163686   1.248   0.509  11.117  0.7460  0.1037  1.1113
14065TIP3    H263687   1.178   0.498  11.251 -1.1608 -1.8786  0.0105
14066TIP3   OH263688   6.515   3.092  14.975  0.5696  0.2826 -0.6369
14066TIP3    H163689   6.499   3.182  15.004 -1.7519 -0.4500  0.5955
14066TIP3    H263690   6.468   3.086  14.891  0.5037  0.1623 -0.5918
14067TIP3   OH263691   6.137   4.775   5.360  0.7939  0.2420 -0.1899
14067TIP3    H163692   6.072   4.769   5.431  0.2331  0.3586 -0.6882
14067TIP3    H263693   6.101   4.720   5.291  1.1733  0.4033 -0.5155
14068TIP3   OH263694   3.037   1.503   3.940  0.4163 -0.5259 -0.2324
14068TIP3    H163695   3.098   1.556   3.991  0.8646  0.7068 -1.9306
14068TIP3    H263696   2.966   1.482   4.000  1.2913  0.1766  1.0887
14069TIP3   OH263697   1.300   4.395   3.135 -0.1231  0.4412 -0.4717
14069TIP3    H163698   1.388   4.410   3.099 -0.2113 -1.2423 -1.5237
14069TIP3    H263699   1.257   4.340   3.070 -1.2820 -0.3924  0.9310
14070TIP3   OH263700   2.464   4.902   1.629 -0.0087 -0.2747 -0.0000
14070TIP3    H163701   2.441   4.917   1.721 -0.5500  0.8041 -0.2981
14070TIP3    H263702   2.397   4.842   1.596  0.6788 -1.3632  0.5169
14071TIP3   OH263703   3.073   5.873   3.323 -0.0129 -0.1358 -0.0014
14071TIP3    H163704   3.025   5.881   3.241 -0.9380  2.2971  0.7104
14071TIP3    H263705   3.059   5.782   3.350  0.5319 -1.0792 -2.6034
14072TIP3   OH263706   0.982   2.691  11.419 -0.8304 -0.1703 -0.2876
14072TIP3    H163707   0.986   2.605  11.461 -2.5845  0.2338  0.8147
14072TIP3    H263708   1.048   2.744  11.464  0.4598 -0.9693 -1.1610
14073TIP3   OH263709   0.021   0.566  15.755 -0.6094  0.3924 -0.3827
14073TIP3    H163710  -0.030   0.646  15.740 -0.8627  0.7012  1.7668
14073TIP3    H263711   0.096   0.595  15.807 -0.6387 -0.7409  0.3294
14074TIP3   OH263712   5.551   1.211  10.921 -0.1197 -0.5020 -0.9314
14074TIP3    H163713   5.612   1.189  10.850 -0.1906  0.7362 -1.4003
14074TIP3    H263714   5.575   1.300  10.946 -1.9724  0.1677 -1.3837
14075TIP3   OH263715   6.501   5.094   1.723  0.4256  0.8129  0.3249
14075TIP3    H163716   6.445   5.124   1.794  1.0292 -0.6790  1.4966
14075TIP3    H263717   6.554   5.025   1.762  0.0714 -0.7907 -1.8261
14076TIP3   OH263718   1.617   3.459   4.659  0.1557  0.7403  0.1205
14076TIP3    H163719   1.700   3.410   4.665 -0.1650  0.1112 -0.4936
14076TIP3    H263720   1.641   3.543   4.620  0.2964  0.0277 -1.3591
14077TIP3   OH263721   5.048   0.472   0.443 -0.1613 -0.1020 -0.1421
14077TIP3    H163722   5.086   0.489   0.530  1.5378  0.6717 -0.9885
14077TIP3    H263723   5.088   0.389   0.416  0.3380  0.3257 -0.7270
14078TIP3   OH263724   0.167   0.895   0.183 -0.3038 -0.6008 -0.2510
14078TIP3    H163725   0.263   0.894   0.185 -0.2162 -0.9075 -2.0745
14078TIP3    H263726   0.141   0.844   0.259  1.0445 -1.7831 -0.5249
14079TIP3   OH263727   1.482   3.099   0.450  0.2034 -0.1747  0.2716
14079TIP3    H163728   1.519   3.187   0.452 -0.7099  0.2480 -0.5937
14079TIP3    H263729   1.469   3.076   0.542  0.0022  0.7847  0.4867
14080TIP3   OH263730   2.172   0.470  14.269  0.1760 -0.0924  0.3836
14080TIP3    H163731   2.225   0.468  14.190  0.5085  0.0511  0.5990
14080TIP3    H263732   2.134   0.383  14.276  0.0978 -0.0866  0.0355
14081TIP3   OH263733   6.663   1.379   0.255  0.1012 -0.6384 -0.2420
14081TIP3    H163734   6.590   1.407   0.199  0.5481 -1.1563 -1.1089
14081TIP3    H263735   6.662   1.284   0.249  0.2853 -0.6878  0.4846
14082TIP3   OH263736   5.755   5.306  13.850 -0.3524 -0.3904  0.1432
14082TIP3    H163737   5.741   5.353  13.768 -2.5317 -0.5782  0.3457
14082TIP3    H263738   5.846   5.324  13.873  0.4284 -0.6261 -2.4753
14083TIP3   OH263739   5.902   4.615   5.507  0.7044 -0.1475 -0.1858
14083TIP3    H163740   5.871   4.673   5.438 -1.6788  1.9496  2.3691
14083TIP3    H263741   5.837   4.625   5.577  3.1958 -1.6541  2.5911
14084TIP3   OH263742   4.786   0.508  17.045  0.0022  0.2301 -0.3907
14084TIP3    H163743   4.796   0.455  17.124 -1.1140 -1.6660 -1.4488
14084TIP3    H263744   4.843   0.584  17.060  2.0742 -1.4709  0.9954
14085TIP3   OH263745   5.912   3.932   1.526  0.0298  0.5015 -0.3770
14085TIP3    H163746   6.005   3.912   1.511 -0.3595 -0.8124 -1.2247
14085TIP3    H263747   5.903   3.933   1.621  0.9110  0.6350 -0.2860
14086TIP3   OH263748   1.893   3.196   5.409  0.0525  0.1035 -0.7984
14086TIP3    H163749   1.806   3.166   5.385 -0.3880  2.0017 -1.7481
14086TIP3    H263750   1.894   3.289   5.387  1.9306  0.4040  0.2996
14087TIP3   OH263751   5.451   0.017  16.979  0.2430 -0.0045  0.4116
14087TIP3    H163752   5.430  -0.041  16.906 -0.1066  0.6121  0.0115
14087TIP3    H263753   5.525  -0.026  17.023 -1.6103 -2.1227  1.7059
14088TIP3   OH263754   2.054   2.977  10.774  0.3619  0.1732  0.0187
14088TIP3    H163755   2.104   2.972  10.855 -1.2500 -1.7397  0.9748
14088TIP3    H263756   2.110   2.937  10.708  1.2476  0.7519  0.3952
14089TIP3   OH263757   3.763   6.331   2.860  0.4828 -0.6517 -0.9578
14089TIP3    H163758   3.685   6.312   2.912  0.7089  0.0481 -0.3425
14089TIP3    H263759   3.740   6.409   2.809  1.0520  0.0944 -0.1172
14090TIP3   OH263760   3.528   6.009   5.074  0.3685  0.3449  0.1339
14090TIP3    H163761   3.450   5.957   5.055  0.9049 -0.8675  1.1586
14090TIP3    H263762   3.524   6.026   5.168  2.2367 -1.3212  0.5857
14091TIP3   OH263763   0.455   1.889   5.482  0.2863 -0.5723  0.7683
14091TIP3    H163764   0.437   1.970   5.530 -2.9721 -0.1867 -0.8378
14091TIP3    H263765   0.446   1.914   5.390  0.6825 -2.4613  0.1832
14092TIP3   OH263766   6.018   1.006  14.037  0.2539 -0.6065  0.2972
14092TIP3    H163767   6.027   1.062  14.114 -1.9900  0.8694 -0.4295
14092TIP3    H263768   6.068   1.051  13.969 -2.1958  1.1032 -0.5065
14093TIP3   OH263769   4.030   5.303  15.653  0.9882  0.1941 -0.0822
14093TIP3    H163770   4.068   5.356  15.724  1.2672  1.1243 -0.9059
14093TIP3    H263771   4.106   5.263  15.610  1.4051  3.8145 -3.1437
14094TIP3   OH263772   6.264   0.047   1.349  0.9973 -0.4829 -0.3839
14094TIP3    H163773   6.214   0.122   1.382  2.6468  0.8800 -0.8372
14094TIP3    H263774   6.315   0.017   1.424  1.0243 -0.5655 -0.4349
14095TIP3   OH263775   1.481   6.046  13.221  0.1587  0.2107  0.3400
14095TIP3    H163776   1.480   5.987  13.296  1.3265 -0.2337  0.0339
14095TIP3    H263777   1.561   6.097  13.231 -1.6197  2.9751  1.4802
14096TIP3   OH263778   5.219   4.183   4.029  0.4887 -0.0887 -0.0568
14096TIP3    H163779   5.284   4.170   4.099  1.3812 -1.1673 -1.0478
14096TIP3    H263780   5.183   4.096   4.012  0.4290  0.1155 -1.0640
14097TIP3   OH263781   2.069   5.727  14.353 -0.3748  0.0357  0.2072
14097TIP3    H163782   2.013   5.683  14.417 -2.2809 -0.1011 -1.4744
14097TIP3    H263783   2.033   5.816  14.347  0.4985  0.3937  0.1236
14098TIP3   OH263784   6.158   0.386   0.944 -0.2645 -0.0461  0.4608
14098TIP3    H163785   6.120   0.337   0.871 -1.2117 -0.0284  0.9245
14098TIP3    H263786   6.252   0.380   0.931 -0.3859  1.5750 -1.8510
14099TIP3   OH263787   0.477   0.807   5.938 -0.5708 -0.4226  0.2110
14099TIP3    H163788   0.440   0.854   6.013  2.8757 -1.1312  2.5850
14099TIP3    H263789   0.497   0.876   5.875 -0.5252  0.6610  1.3657
14100TIP3   OH263790   5.004   0.942  11.994 -0.5562 -0.4219  0.5957
14100TIP3    H163791   4.973   0.851  11.992 -0.6290 -0.3917  0.3039
14100TIP3    H263792   5.016   0.961  12.087 -1.9748 -0.2488  0.7655
14101TIP3   OH263793   4.321   3.680   3.571  0.3966 -0.3755  0.0929
14101TIP3    H163794   4.352   3.680   3.481  0.9551 -0.6323  0.2851
14101TIP3    H263795   4.383   3.736   3.618 -0.1479  0.1228  0.2345
14102TIP3   OH263796   5.193   4.016   3.011  0.0827  0.4734  0.0172
14102TIP3    H163797   5.182   3.980   2.923 -1.6821  0.0692  0.3776
14102TIP3    H263798   5.113   4.065   3.028 -1.2174 -2.2046  2.6277
14103TIP3   OH263799   6.015   0.326  11.475 -0.3141  0.1356 -0.1156
14103TIP3    H163800   6.095   0.274  11.465 -1.0558 -1.1703  0.4993
14103TIP3    H263801   6.003   0.334  11.569 -2.0301 -1.5577 -0.1224
14104TIP3   OH263802   0.246   6.026  16.463  0.0298 -0.5449 -0.5588
14104TIP3    H163803   0.185   5.955  16.442 -0.1671  0.0943 -2.3254
14104TIP3    H263804   0.229   6.092  16.396  0.3531  1.1064  0.9096
14105TIP3   OH263805   0.946   0.521  11.871 -1.2096  0.1223 -0.0282
14105TIP3    H163806   0.978   0.606  11.903 -1.3104  0.3863 -0.6145
14105TIP3    H263807   0.851   0.529  11.874 -1.2293 -0.3277  0.8317
14106TIP3   OH263808   6.101   0.758  12.493 -0.0164  0.5721  0.1887
14106TIP3    H163809   6.126   0.752  12.401  1.2605 -0.2901  0.5712
14106TIP3    H263810   6.136   0.678  12.533 -2.6685 -0.3113  0.9638
14107TIP3   OH263811   2.011   5.007   5.207  0.3055  0.3182 -0.3082
14107TIP3    H163812   2.098   4.969   5.208  0.2466  0.1838  0.5037
14107TIP3    H263813   1.961   4.954   5.268 -0.6726 -0.3376 -1.6210
14108TIP3   OH263814   3.441   2.637   0.455 -0.1140 -0.1219 -0.2741
14108TIP3    H163815   3.508   2.682   0.402 -0.1029  0.6479  0.3770
14108TIP3    H263816   3.453   2.672   0.543 -0.5384 -0.9396  0.1150
14109TIP3   OH263817   4.404   6.661  14.861  0.2035 -0.1181 -0.3628
14109TIP3    H163818   4.485   6.707  14.842 -0.4786  1.7946  1.1092
14109TIP3    H263819   4.430   6.569  14.867  2.3586  0.5039  0.6122
14110TIP3   OH263820   2.443   6.672  12.193  0.4305 -0.4139  0.7018
14110TIP3    H163821   2.519   6.687  12.249 -0.0642 -0.4495  1.4008
14110TIP3    H263822   2.369   6.671  12.254 -0.2534  0.6962 -0.0897
14111TIP3   OH263823   3.057   6.681  13.039  0.2539  0.0990  0.2477
14111TIP3    H163824   3.117   6.749  13.072  0.5767  0.0998 -0.3203
14111TIP3    H263825   3.101   6.647  12.961 -1.0615  0.9440 -0.8889
14112TIP3   OH263826   5.990   0.055   0.887  0.3184  0.4753  0.6534
14112TIP3    H163827   6.031  -0.012   0.942 -1.6550  0.7480  2.5709
14112TIP3    H263828   5.905   0.017   0.864  0.2498  1.2718 -0.4579
14113TIP3   OH263829   1.720   4.142   3.417 -0.5925 -0.4445  0.5388
14113TIP3    H163830   1.666   4.142   3.337  0.4934  0.0558 -0.2214
14113TIP3    H263831   1.766   4.226   3.414 -1.8838  0.4045  2.6613
14114TIP3   OH263832   1.807   3.392  16.582  0.2778 -0.4891 -0.3809
14114TIP3    H163833   1.849   3.314  16.548  0.8113 -0.3708  0.0063
14114TIP3    H263834   1.716   3.386  16.551  0.6691 -0.5346 -1.5657
14115TIP3   OH263835   5.051   3.984   6.153 -0.4233 -0.4368 -0.0467
14115TIP3    H163836   4.993   4.035   6.096 -1.1288  0.8830  1.7509
14115TIP3    H263837   4.997   3.960   6.228  1.2985  0.9634  1.7793
14116TIP3   OH263838   4.111   4.328   2.389  0.1228 -0.4447 -0.1964
14116TIP3    H163839   4.103   4.381   2.469 -0.5830 -1.0453  0.1419
14116TIP3    H263840   4.203   4.335   2.365  0.4001 -0.4485  0.8047
14117TIP3   OH263841   5.470   4.929   0.069  0.2905 -0.0484  0.5491
14117TIP3    H163842   5.559   4.948   0.099  0.7960 -1.5541  0.1044
14117TIP3    H263843   5.446   5.005   0.015  1.1656  0.5189  0.9396
14118TIP3   OH263844   4.784   4.032   4.145 -0.0992  0.3754  0.6130
14118TIP3    H163845   4.811   3.942   4.163 -3.8631 -0.6398  2.2731
14118TIP3    H263846   4.844   4.086   4.197  1.3617 -1.2474  0.7004
14119TIP3   OH263847   2.930   0.823   5.485  0.1725 -0.4660  0.0350
14119TIP3    H163848   2.848   0.841   5.532  0.6065  3.0322 -0.2973
14119TIP3    H263849   2.967   0.747   5.529 -2.2962 -0.9561  1.4500
14120TIP3   OH263850   0.878   4.938  17.000  0.0636  0.7909 -0.1365
14120TIP3    H163851   0.966   4.901  16.994  0.3139  1.3927 -0.1962
14120TIP3    H263852   0.891   5.023  17.041 -0.5124  0.8113  0.0032
14121TIP3   OH263853   0.597   1.033   2.806 -0.0261 -0.2977  0.1893
14121TIP3    H163854   0.674   1.032   2.749  0.2248  1.3465  0.4609
14121TIP3    H263855   0.601   0.950   2.854  0.1060 -1.4324 -1.6949
14122TIP3   OH263856   0.826   2.521   2.968  0.2574 -0.2441  0.0282
14122TIP3    H163857   0.776   2.477   3.036  0.0556 -0.5864 -0.3357
14122TIP3    H263858   0.774   2.599   2.947  0.1429 -0.3209  0.0242
14123TIP3   OH263859   5.536   6.206  11.369 -0.3512  0.0348 -0.2143
14123TIP3    H163860   5.544   6.112  11.388  1.8062  0.2511  0.1513
14123TIP3    H263861   5.595   6.248  11.431  1.8958  1.2855 -3.0022
14124TIP3   OH263862   2.153   3.072  12.236 -0.2031  0.4529  0.1413
14124TIP3    H163863   2.099   3.145  12.268 -0.8920  0.2414 -0.4989
14124TIP3    H263864   2.198   3.040  12.313 -1.5075  0.2191  0.8344
14125TIP3   OH263865   1.104   6.522  14.240 -0.2901  0.3183  0.1778
14125TIP3    H163866   1.054   6.602  14.224  0.3631  0.7113  0.0581
14125TIP3    H263867   1.153   6.540  14.321 -0.4256 -0.1052  0.3600
14126TIP3   OH263868   2.606   5.696   3.310 -0.1352  0.1085  0.0849
14126TIP3    H163869   2.524   5.692   3.360 -0.8008  0.1386 -0.9848
14126TIP3    H263870   2.613   5.788   3.284  1.1669  0.5126  1.6383
14127TIP3   OH263871   6.722   2.240   4.795  0.2270 -0.1140  0.2050
14127TIP3    H163872   6.718   2.283   4.709 -0.7987  1.8270  1.1603
14127TIP3    H263873   6.631   2.233   4.822  0.5473 -0.6628  1.1574
14128TIP3   OH263874   6.429   2.976  14.426  1.0877 -0.5720 -0.2032
14128TIP3    H163875   6.399   2.910  14.489  0.8809 -0.2698  0.0168
14128TIP3    H263876   6.358   3.040  14.422  2.1396  0.7803  1.2112
14129TIP3   OH263877   4.021   1.087  11.262 -0.3671  0.1720  0.6873
14129TIP3    H163878   3.943   1.045  11.224  0.2357 -0.8704  0.5845
14129TIP3    H263879   4.092   1.026  11.245  1.2451  2.5898 -2.3774
14130TIP3   OH263880   3.246   3.870   4.718  0.0002  0.0904 -0.6713
14130TIP3    H163881   3.279   3.801   4.661 -0.8359  0.7416 -2.0012
14130TIP3    H263882   3.168   3.833   4.759 -1.7329  0.8592 -3.0370
14131TIP3   OH263883   3.796   4.861  14.239 -0.4047 -0.2460  0.9185
14131TIP3    H163884   3.710   4.828  14.267 -0.2911 -1.4112 -0.0411
14131TIP3    H263885   3.858   4.793  14.265  0.1316  0.2223  0.8900
14132TIP3   OH263886   5.007   2.528   6.793  0.2113  0.5337  0.1618
14132TIP3    H163887   4.965   2.442   6.788  0.0999  0.4067  2.3448
14132TIP3    H263888   4.935   2.589   6.805  0.3714  0.8148 -0.2916
14133TIP3   OH263889   5.909   2.318   1.278 -0.3662 -0.5012 -0.0092
14133TIP3    H163890   5.879   2.406   1.300 -0.1876 -0.1990 -0.9587
14133TIP3    H263891   5.835   2.262   1.299 -0.0204 -0.3261  1.9214
14134TIP3   OH263892   2.398   3.327  15.936 -0.4722  0.6024  0.0943
14134TIP3    H163893   2.341   3.273  15.990  1.7946 -1.6852  0.4106
14134TIP3    H263894   2.434   3.267  15.871  0.9843  2.0868 -0.5533
14135TIP3   OH263895   1.472   4.708  12.567  0.1321  0.0164 -0.0989
14135TIP3    H163896   1.535   4.750  12.508  1.4622  0.3939  1.5069
14135TIP3    H263897   1.466   4.768  12.642 -2.3646  0.1112 -0.3051
14136TIP3   OH263898   4.273   1.589  15.606  0.1056 -0.4008 -0.2302
14136TIP3    H163899   4.364   1.602  15.579 -0.1551 -1.5880 -1.8397
14136TIP3    H263900   4.274   1.601  15.701  1.7791  0.4065 -0.3105
14137TIP3   OH263901   0.292   3.904  16.108 -0.2323 -0.1947  0.3260
14137TIP3    H163902   0.295   3.868  16.019  1.5581  1.7541 -0.5082
14137TIP3    H263903   0.231   3.978  16.102 -0.2361 -0.1574  0.7640
14138TIP3   OH263904   0.605   1.914   2.857  0.2462 -0.7088 -0.3138
14138TIP3    H163905   0.656   1.845   2.899 -2.6010 -3.8859 -1.6330
14138TIP3    H263906   0.612   1.895   2.763 -1.1942  0.3503 -0.6597
14139TIP3   OH263907   2.352   3.234   3.950 -0.0469 -0.4328 -0.4528
14139TIP3    H163908   2.309   3.150   3.967  0.8675 -0.9673 -0.7088
14139TIP3    H263909   2.400   3.221   3.868  1.6060 -0.2821  0.4405
14140TIP3   OH263910   0.948   3.684  11.535 -0.3074 -0.2139  0.8541
14140TIP3    H163911   0.884   3.664  11.466  0.3789  1.9077 -0.5145
14140TIP3    H263912   0.914   3.639  11.612 -1.0749 -2.7784 -0.8256
14141TIP3   OH263913   5.521   2.979   1.182  0.3130 -0.5863 -0.2886
14141TIP3    H163914   5.426   2.969   1.174  0.3649  0.0408 -1.9954
14141TIP3    H263915   5.533   3.063   1.226  0.1054 -1.7426  2.2188
14142TIP3   OH263916   3.661   4.164   3.585 -0.1206  0.3608  0.2177
14142TIP3    H163917   3.689   4.166   3.677 -1.1139 -1.1404  0.5862
14142TIP3    H263918   3.663   4.072   3.561 -1.7231  0.5154 -0.6665
14143TIP3   OH263919   0.535   5.189   4.242 -0.2374 -0.0304  0.0180
14143TIP3    H163920   0.440   5.189   4.230 -0.0602  1.0317 -1.8798
14143TIP3    H263921   0.565   5.269   4.198  1.5836 -0.6088  0.1026
14144TIP3   OH263922   1.426   2.292  15.752  0.5163  0.0150  0.2489
14144TIP3    H163923   1.495   2.290  15.686  1.5417 -1.3983  1.3304
14144TIP3    H263924   1.420   2.203  15.784 -1.5866  0.1831  0.4502
14145TIP3   OH263925   6.301   1.582   0.360  0.2962  0.0837  0.0224
14145TIP3    H163926   6.232   1.593   0.426  0.4143  1.2775 -0.0378
14145TIP3    H263927   6.325   1.671   0.335 -0.1894 -0.3184 -2.1181
14146TIP3   OH263928   6.579   0.353  10.742  0.0928  0.0275 -0.2002
14146TIP3    H163929   6.596   0.432  10.792 -0.4166  0.0276 -0.0286
14146TIP3    H263930   6.593   0.282  10.805 -0.2881  0.0161 -0.1307
14147TIP3   OH263931   6.263   6.220  15.535 -0.1884  0.4044  0.2339
14147TIP3    H163932   6.289   6.289  15.597  1.3422 -0.3320  0.4482
14147TIP3    H263933   6.338   6.161  15.532 -1.6923 -1.6040  0.5087
14148TIP3   OH263934   3.729   2.494  15.170  0.7073  0.3536 -0.1347
14148TIP3    H163935   3.708   2.449  15.252 -1.8460  0.4468 -0.6315
14148TIP3    H263936   3.738   2.423  15.106 -3.1797  0.2835 -0.8883
14149TIP3   OH263937   0.803   1.445  13.063 -0.2996  0.2448  0.7475
14149TIP3    H163938   0.854   1.491  13.129  0.4297 -1.0507  1.1187
14149TIP3    H263939   0.712   1.469  13.082  0.0651  1.9430  0.5757
14150TIP3   OH263940   4.121   3.817  12.693  0.0308 -0.0620  0.6514
14150TIP3    H163941   4.068   3.744  12.661 -1.2751  1.4650 -0.8465
14150TIP3    H263942   4.196   3.820  12.634 -0.6266  0.6433 -0.1607
14151TIP3   OH263943   3.754   4.993  13.981  0.1671  0.0597  0.2749
14151TIP3    H163944   3.769   4.976  14.074 -0.6151  1.4358  0.6936
14151TIP3    H263945   3.828   4.951  13.936 -0.2906 -2.0200  1.3460
14152TIP3   OH263946   6.446   2.397   4.764  0.3898 -0.3591  0.2348
14152TIP3    H163947   6.505   2.415   4.691 -1.0735  1.1945 -0.6228
14152TIP3    H263948   6.365   2.368   4.722  0.0768 -1.1120  1.3312
14153TIP3   OH263949   1.715   6.472   3.830 -0.3198 -0.6438  0.5293
14153TIP3    H163950   1.627   6.443   3.808 -0.3735  1.1228 -2.0057
14153TIP3    H263951   1.760   6.476   3.746  1.4785  0.6983  1.4974
14154TIP3   OH263952   4.876   0.819   1.635 -0.2269  0.0767  0.3930
14154TIP3    H163953   4.781   0.816   1.644 -0.3903  1.0623 -0.6732
14154TIP3    H263954   4.897   0.746   1.576 -0.5680  0.9915 -0.9006
14155TIP3   OH263955   3.783   2.283  15.997 -0.2470  0.9879  0.3080
14155TIP3    H163956   3.811   2.375  15.991  0.4411  0.7999  0.6408
14155TIP3    H263957   3.836   2.246  16.067 -1.2708  0.6015  0.9143
14156TIP3   OH263958   5.721   3.604   0.870  0.2450  0.5240  0.0475
14156TIP3    H163959   5.695   3.695   0.884 -0.6487  0.8193 -2.9386
14156TIP3    H263960   5.814   3.602   0.891 -0.1299  1.6323  1.9989
14157TIP3   OH263961   5.289   4.193   1.482 -0.0199 -0.0109  0.3966
14157TIP3    H163962   5.353   4.225   1.419  1.4166 -1.3568  1.1022
14157TIP3    H263963   5.341   4.172   1.560 -1.4232 -0.5029  1.2292
14158TIP3   OH263964   0.527   3.379  13.282 -0.1674 -0.0112  0.4616
14158TIP3    H163965   0.451   3.364  13.338 -0.9967 -1.7917 -1.0242
14158TIP3    H263966   0.499   3.447  13.221 -0.2404 -0.0143  0.4913
14159TIP3   OH263967   0.734   3.186  13.130 -0.3378 -0.1543  0.0870
14159TIP3    H163968   0.790   3.115  13.161  0.8010  0.5343 -0.2903
14159TIP3    H263969   0.766   3.263  13.177 -0.6490  0.3437 -0.5020
14160TIP3   OH263970   5.555   0.565   2.133  0.8750  0.1528 -0.5549
14160TIP3    H163971   5.572   0.519   2.215 -0.0607  0.7356 -0.0305
14160TIP3    H263972   5.464   0.546   2.112  0.8090  0.8314 -0.9280
14161TIP3   OH263973   5.715   5.642  12.797 -0.5134 -0.5271 -0.0742
14161TIP3    H163974   5.793   5.588  12.782  0.4021  0.6678  0.1481
14161TIP3    H263975   5.715   5.657  12.891 -4.0814 -4.8542  0.9336
14162TIP3   OH263976   3.881   3.066  16.213 -0.1894  0.7606  0.2131
14162TIP3    H163977   3.808   3.007  16.196  0.3311 -0.3552  1.6515
14162TIP3    H263978   3.880   3.079  16.308  1.2799  0.9718  0.2268
14163TIP3   OH263979   6.446   6.525   2.794 -0.0263 -0.9731 -0.6521
14163TIP3    H163980   6.533   6.485   2.792  0.3859 -0.0904 -0.6419
14163TIP3    H263981   6.445   6.576   2.875 -0.3621 -0.5608 -0.9100
14164TIP3   OH263982   5.323   1.800   1.880 -0.7391 -0.2027 -0.2707
14164TIP3    H163983   5.280   1.872   1.927  1.1147  0.9451 -0.1985
14164TIP3    H263984   5.264   1.779   1.808 -0.6942  2.4861 -1.2192
14165TIP3   OH263985   0.616   0.809   4.907 -0.3927 -0.0235  0.1703
14165TIP3    H163986   0.622   0.714   4.897 -0.4950  0.1721 -2.5028
14165TIP3    H263987   0.692   0.832   4.962  0.9954 -1.4398 -1.0601
14166TIP3   OH263988   2.878   5.503  16.557  0.1843 -0.2093  0.6534
14166TIP3    H163989   2.795   5.490  16.510  0.7003 -1.1690 -0.0306
14166TIP3    H263990   2.858   5.567  16.625 -0.7387  0.7955 -0.5203
14167TIP3   OH263991   4.035   4.546  13.722 -0.0784 -0.3206 -0.0421
14167TIP3    H163992   3.999   4.521  13.808 -0.8932 -0.0931 -0.3075
14167TIP3    H263993   4.123   4.577  13.742  0.0916 -1.1592  0.5939
14168TIP3   OH263994   4.717   3.269  16.215  0.7676 -0.4207  0.0202
14168TIP3    H163995   4.657   3.250  16.287 -1.2715 -0.0040 -1.5000
14168TIP3    H263996   4.767   3.345  16.246  1.5329 -1.5615  1.8278
14169TIP3   OH263997   5.955   4.644  16.202  0.5663 -0.3968  0.2980
14169TIP3    H163998   5.978   4.736  16.186  1.0433 -0.8299 -1.7052
14169TIP3    H263999   5.859   4.642  16.194  0.5536 -0.0749  0.3482
14170TIP3   OH264000   4.634   0.831  14.067  0.2714  0.7058 -0.7079
14170TIP3    H164001   4.703   0.897  14.073 -0.9557  2.0361 -0.3347
14170TIP3    H264002   4.561   0.870  14.116  0.0829 -1.7562  1.1430
14171TIP3   OH264003   2.340   3.603  15.887 -0.1674  0.3624 -0.8026
14171TIP3    H164004   2.295   3.655  15.955  1.5572 -0.0086  0.6971
14171TIP3    H264005   2.310   3.514  15.903 -0.2630  0.3657 -0.9630
14172TIP3   OH264006   1.043   3.201   2.094 -0.0772  0.7882 -0.1667
14172TIP3    H164007   0.994   3.135   2.046 -0.2439  1.1974 -0.5677
14172TIP3    H264008   0.980   3.240   2.154 -0.2538  1.3259 -0.6940
14173TIP3   OH264009   1.734   1.923   3.231 -0.0353  0.1908 -0.0335
14173TIP3    H164010   1.815   1.974   3.227 -0.0017  0.1259 -0.1920
14173TIP3    H264011   1.720   1.893   3.141  1.0349 -1.7855  0.4050
14174TIP3   OH264012   1.812   1.777   4.610 -0.2215  0.1006 -0.1544
14174TIP3    H164013   1.883   1.762   4.547  0.1663  0.7335  0.1221
14174TIP3    H264014   1.825   1.710   4.677  0.9719  1.0438  0.6166
14175TIP3   OH264015   1.051   4.474   6.217 -0.3560  0.0769  0.8832
14175TIP3    H164016   1.086   4.396   6.261  1.3480 -0.4013 -1.1544
14175TIP3    H264017   1.112   4.544   6.240 -0.2195  0.1189  0.4209
14176TIP3   OH264018   4.012   0.186  16.370  0.4036 -0.3740  0.4922
14176TIP3    H164019   3.976   0.098  16.384 -2.0366 -0.0738 -2.7025
14176TIP3    H264020   4.033   0.189  16.277 -1.1795  2.9361  0.1029
14177TIP3   OH264021   4.800   2.688  16.337  0.0807  0.4898 -0.0331
14177TIP3    H164022   4.831   2.639  16.261  1.1280  0.9452  0.0768
14177TIP3    H264023   4.786   2.622  16.405 -1.0486  0.0614 -0.6709
14178TIP3   OH264024   4.306   4.134  13.531 -0.1269  0.3706  0.4874
14178TIP3    H164025   4.241   4.201  13.551  1.2688  1.8414  0.3799
14178TIP3    H264026   4.347   4.165  13.450 -0.6676 -1.5928 -0.5895
14179TIP3   OH264027   2.216   4.694   5.626 -0.3296  0.5137 -0.1655
14179TIP3    H164028   2.129   4.653   5.624 -0.2628  0.3921 -0.7247
14179TIP3    H264029   2.201   4.780   5.665 -0.9619  1.0808 -1.5740
14180TIP3   OH264030   1.893   0.439  15.523  0.0477 -0.2384  0.0504
14180TIP3    H164031   1.879   0.504  15.455  0.8415  0.4157  0.4867
14180TIP3    H264032   1.955   0.377  15.484 -0.2956 -0.4376 -0.1801
14181TIP3   OH264033   6.569   1.689  13.780 -0.1009 -0.2117 -0.6586
14181TIP3    H164034   6.621   1.674  13.701 -0.7384  0.9852 -1.3472
14181TIP3    H264035   6.547   1.783  13.776  1.0936  0.2406  1.7129
14182TIP3   OH264036   3.141   5.505  15.196  0.0885  0.0125 -0.3335
14182TIP3    H164037   3.104   5.558  15.267 -0.6334  1.4708 -1.7277
14182TIP3    H264038   3.065   5.468  15.151  0.4304  0.4345 -1.3006
14183TIP3   OH264039   5.688   2.156  13.059  0.5446 -0.1773  0.2045
14183TIP3    H164040   5.689   2.241  13.102 -0.7142 -0.0797  0.0788
14183TIP3    H264041   5.597   2.144  13.032  0.4471 -2.0516  1.2033
14184TIP3   OH264042   2.209   5.646   5.417 -0.2938  0.6061  0.0852
14184TIP3    H164043   2.287   5.611   5.375 -0.2520 -0.2002  0.8037
14184TIP3    H264044   2.149   5.665   5.345  0.8418  1.9821 -0.5450
14185TIP3   OH264045   0.205   2.207  14.891 -0.4091  0.3563 -0.2051
14185TIP3    H164046   0.199   2.301  14.908 -0.4886  0.4645 -0.8307
14185TIP3    H264047   0.283   2.196  14.838 -0.3686  0.0607 -0.0893
14186TIP3   OH264048   5.767   4.771  11.960  0.0803 -0.3004  0.5823
14186TIP3    H164049   5.782   4.704  12.027 -0.1066  0.5020  1.4414
14186TIP3    H264050   5.687   4.816  11.988 -1.1845 -1.2694 -1.2889
14187TIP3   OH264051   2.045   2.402  16.187 -0.3966  0.3679 -0.6199
14187TIP3    H164052   1.970   2.447  16.224  0.0338  1.5963 -1.1801
14187TIP3    H264053   2.082   2.352  16.260 -1.7555 -0.3014 -0.3467
14188TIP3   OH264054   2.793   1.777  12.519 -0.4941 -0.3215  0.0222
14188TIP3    H164055   2.722   1.835  12.489 -1.1996 -1.6088 -0.9131
14188TIP3    H264056   2.812   1.806  12.608 -2.4560 -0.1623  0.4374
14189TIP3   OH264057   6.583   4.473  13.176 -0.1946  0.0451  0.0725
14189TIP3    H164058   6.562   4.558  13.137 -2.0186 -0.1182  0.5933
14189TIP3    H264059   6.508   4.418  13.154  0.3037 -1.0287  0.9520
14190TIP3   OH264060   3.269   2.329  16.631  0.3669 -0.0667  0.3307
14190TIP3    H164061   3.174   2.328  16.642  0.1695  1.6294 -0.8737
14190TIP3    H264062   3.300   2.395  16.693  0.8924 -1.2847  1.4036
14191TIP3   OH264063   0.659   5.101   0.922 -0.2653 -0.3522  0.3600
14191TIP3    H164064   0.709   5.112   1.003  2.2945 -1.6451 -0.9204
14191TIP3    H264065   0.590   5.167   0.927  1.0512  0.9776  2.6455
14192TIP3   OH264066   6.457   4.900   4.598 -0.0994 -0.2112  0.5202
14192TIP3    H164067   6.414   4.963   4.540 -0.1669  0.2372  1.0448
14192TIP3    H264068   6.412   4.817   4.580  0.1782 -0.1776 -0.3757
14193TIP3   OH264069   0.407   3.859  14.477  0.0799  0.2367 -0.0229
14193TIP3    H164070   0.337   3.793  14.472 -0.0121  0.2887  0.5508
14193TIP3    H264071   0.485   3.813  14.446 -0.3995  0.4645 -1.6470
14194TIP3   OH264072   6.510   1.789   3.287 -0.2886  0.3460 -0.3726
14194TIP3    H164073   6.553   1.756   3.366  1.3986 -1.8124 -2.0502
14194TIP3    H264074   6.574   1.848   3.248 -0.5498  0.3580 -0.7862
14195TIP3   OH264075   3.787   5.083   2.603 -0.3039  0.4532  0.2306
14195TIP3    H164076   3.734   5.127   2.669 -1.2895 -0.9829  0.4366
14195TIP3    H264077   3.791   4.992   2.633 -1.3444 -0.3851 -2.0415
14196TIP3   OH264078   1.325   2.976  13.716  0.1561 -0.7128 -0.1340
14196TIP3    H164079   1.352   2.911  13.781 -0.4177 -0.9544 -0.1305
14196TIP3    H264080   1.399   2.982  13.656  0.3275 -1.1589  0.0246
14197TIP3   OH264081   3.084   1.228   0.829  0.3310  0.4997  0.2518
14197TIP3    H164082   3.159   1.232   0.770 -0.3704 -0.1991 -0.7345
14197TIP3    H264083   3.107   1.285   0.901  2.2469 -0.4842  0.4912
14198TIP3   OH264084   2.548   5.980   0.510 -0.2829 -0.1417 -0.0188
14198TIP3    H164085   2.518   5.931   0.434  0.6689 -0.6830 -0.0688
14198TIP3    H264086   2.578   5.913   0.571 -2.8814  0.1550  1.7113
14199TIP3   OH264087   5.425   4.879  13.901 -0.4690 -0.3121  0.3530
14199TIP3    H164088   5.495   4.933  13.939 -0.9423  1.3861 -1.0427
14199TIP3    H264089   5.451   4.865  13.810 -1.0873 -1.2081  0.2991
14200TIP3   OH264090   2.642   3.212   4.864  0.1395  0.2341 -0.4250
14200TIP3    H164091   2.603   3.294   4.894  1.7558  0.6953  0.5425
14200TIP3    H264092   2.697   3.238   4.790  0.3300 -0.0483 -0.3818
14201TIP3   OH264093   3.796   2.872  13.857 -0.8237  0.0381  0.1754
14201TIP3    H164094   3.725   2.892  13.917  0.5447  1.9261  1.3117
14201TIP3    H264095   3.869   2.847  13.914 -0.1560 -0.3867 -0.8382
14202TIP3   OH264096   0.215   2.917   3.464 -0.3284  0.0638  0.0243
14202TIP3    H164097   0.250   2.914   3.375  0.8097  0.7021  0.4294
14202TIP3    H264098   0.292   2.928   3.519 -0.9884 -0.7223  1.1266
14203TIP3   OH264099   0.903   1.487  16.513  0.0898  0.4361  0.4098
14203TIP3    H164100   0.910   1.510  16.606  1.1043  0.1729  0.4069
14203TIP3    H264101   0.889   1.392  16.514  1.7794  0.1567  0.2656
14204TIP3   OH264102   3.943   5.111   0.034  0.3758 -0.0460  0.1694
14204TIP3    H164103   3.857   5.153   0.031  1.0506  1.3654 -0.5284
14204TIP3    H264104   3.951   5.068  -0.052  0.4039 -0.1065  0.2029
14205TIP3   OH264105   6.016   3.151   0.480 -0.2278 -0.1794  0.0492
14205TIP3    H164106   6.086   3.123   0.421 -0.4092  0.8955 -0.7028
14205TIP3    H264107   6.037   3.242   0.501 -0.8181 -0.1818  0.6891
14206TIP3   OH264108   3.620   6.544  12.423  0.4674  0.0080 -0.0913
14206TIP3    H164109   3.665   6.535  12.339 -0.7711 -1.0714 -0.6644
14206TIP3    H264110   3.582   6.632  12.420  0.0960 -0.1697 -0.8426
14207TIP3   OH264111   4.988   4.647  13.188  0.1009 -0.2481  0.1564
14207TIP3    H164112   5.080   4.671  13.178 -0.0125 -0.0982 -0.6709
14207TIP3    H264113   4.965   4.608  13.103 -0.4453 -0.8084  0.5535
14208TIP3   OH264114   2.876   5.633  12.584  0.0591  0.2760  0.3978
14208TIP3    H164115   2.801   5.688  12.607  0.2981  0.1994  1.4527
14208TIP3    H264116   2.916   5.612  12.669  0.2971 -1.0629 -0.0203
14209TIP3   OH264117   0.715   4.029  13.375  0.1825 -0.2160 -0.2857
14209TIP3    H164118   0.669   4.019  13.458 -0.9866  0.2073 -0.8604
14209TIP3    H264119   0.765   3.948  13.365 -0.3670 -0.6465  0.4019
14210TIP3   OH264120   6.127   5.663   3.821  0.1611 -0.0355 -0.0336
14210TIP3    H164121   6.051   5.625   3.776 -0.8018  0.1287  1.3871
14210TIP3    H264122   6.120   5.757   3.803 -0.4457  0.0800  0.7197
14211TIP3   OH264123   0.025   5.880   3.682 -1.0418  0.5317  1.0447
14211TIP3    H164124   0.053   5.938   3.752 -0.1624 -0.0025  1.1547
14211TIP3    H264125   0.105   5.837   3.653 -1.5959 -0.2514  0.6278
14212TIP3   OH264126   5.757   1.101   4.461 -0.0450 -0.0255  0.5872
14212TIP3    H164127   5.744   1.152   4.541  1.6481  0.0099  0.8908
14212TIP3    H264128   5.829   1.146   4.416  1.4062 -2.0086  0.7735
14213TIP3   OH264129   3.214   4.458   6.309  0.0264  0.2624  0.2278
14213TIP3    H164130   3.308   4.445   6.322  0.3825  1.9544 -0.4469
14213TIP3    H264131   3.178   4.468   6.397  1.1320  3.5341  0.4233
14214TIP3   OH264132   5.359   5.903  16.481 -0.5821  1.1602 -0.6545
14214TIP3    H164133   5.377   5.827  16.536 -0.4449  2.7710  1.7378
14214TIP3    H264134   5.265   5.900  16.464 -0.2945 -0.4658 -2.1806
14215TIP3   OH264135   2.520   1.591  16.883 -0.7243  0.4665 -0.0230
14215TIP3    H164136   2.571   1.585  16.964  0.3387  0.0646 -0.7033
14215TIP3    H264137   2.578   1.634  16.821 -1.9775  1.9424 -0.2455
14216TIP3   OH264138   5.079   6.662  10.476  0.4528  0.3217 -0.0106
14216TIP3    H164139   5.164   6.699  10.453  0.1929  2.0252  1.5396
14216TIP3    H264140   5.017   6.706  10.417  0.6476 -1.3114 -1.5101
14217TIP3   OH264141   4.527   2.378  13.050  0.8608  0.1510  0.2098
14217TIP3    H164142   4.493   2.413  12.968  0.8158 -0.1457  0.1010
14217TIP3    H264143   4.564   2.454  13.095 -0.0273  0.4917  0.3753
14218TIP3   OH264144   2.153   5.483  13.480  0.4355  0.1799  0.2687
14218TIP3    H164145   2.114   5.443  13.558  0.3203  0.3901  0.3176
14218TIP3    H264146   2.153   5.577  13.498  0.2826  0.2410 -0.0405
14219TIP3   OH264147   2.909   3.995  13.715  0.1361 -0.1424  0.0823
14219TIP3    H164148   2.957   4.042  13.783 -0.0790  0.0708  0.0888
14219TIP3    H264149   2.926   3.903  13.732 -1.5606 -0.2223  1.6891
14220TIP3   OH264150   3.929   4.351  15.756 -0.1006 -0.3671 -0.4046
14220TIP3    H164151   3.976   4.407  15.818 -3.9540  1.7591  0.9536
14220TIP3    H264152   3.975   4.364  15.673  1.5084  1.7431  0.7213
14221TIP3   OH264153   2.743   5.741   2.326  0.9631  0.5670  0.3125
14221TIP3    H164154   2.670   5.679   2.331  0.8778  0.7342  1.3354
14221TIP3    H264155   2.711   5.812   2.271  0.1501  0.8861  1.1644
14222TIP3   OH264156   0.651   6.591   0.886 -0.1711 -0.2905  0.6803
14222TIP3    H164157   0.620   6.663   0.942 -0.9522 -0.0035 -0.0956
14222TIP3    H264158   0.639   6.624   0.797  0.9637 -0.7757  0.3261
14223TIP3   OH264159   1.895   0.118  15.158  0.6474  0.5331  0.2913
14223TIP3    H164160   1.827   0.080  15.214  0.2487  0.6060 -0.1395
14223TIP3    H264161   1.957   0.046  15.143 -0.5510 -0.2440 -1.2273
14224TIP3   OH264162   3.805   2.387   2.607 -0.5026 -0.1319  0.2953
14224TIP3    H164163   3.840   2.444   2.676 -0.7690 -1.4633  1.5730
14224TIP3    H264164   3.873   2.320   2.595 -0.4086  0.1480 -0.8430
14225TIP3   OH264165   1.690   2.549  13.190  0.3192  0.3306  0.1598
14225TIP3    H164166   1.611   2.517  13.234  0.8340 -0.0019  0.8503
14225TIP3    H264167   1.762   2.509  13.237  0.8895 -0.1082 -1.0581
14226TIP3   OH264168   4.727   0.885   4.461  0.1217  0.2878 -0.0231
14226TIP3    H164169   4.640   0.924   4.467  0.2523  0.4300  1.2190
14226TIP3    H264170   4.753   0.897   4.370 -1.7930 -1.1373 -0.8396
14227TIP3   OH264171   2.453   1.417  12.688 -0.8824 -0.0404  0.3833
14227TIP3    H164172   2.457   1.384  12.778 -1.2730  0.0794  0.4432
14227TIP3    H264173   2.410   1.347  12.639 -1.3432  0.2037  0.4333
14228TIP3   OH264174   5.890   6.550  10.131  0.1519 -0.1207  0.0544
14228TIP3    H164175   5.941   6.492  10.188  2.0705  1.1029 -0.3320
14228TIP3    H264176   5.809   6.567  10.180  2.2823  2.0635  3.2099
14229TIP3   OH264177   1.362   5.469   1.664  0.3291 -0.0933 -0.6669
14229TIP3    H164178   1.278   5.501   1.696 -0.4625 -0.5443 -2.1816
14229TIP3    H264179   1.417   5.462   1.742 -0.9536  0.4652  0.3155
14230TIP3   OH264180   1.090   4.872   3.589 -0.2771 -0.2809 -0.7913
14230TIP3    H164181   1.169   4.894   3.638 -0.8140  0.4882 -0.2645
14230TIP3    H264182   1.059   4.955   3.554 -1.3393 -0.4512 -0.2766
14231TIP3   OH264183   3.777   3.022   1.505 -0.0247 -0.4146 -0.4147
14231TIP3    H164184   3.791   2.935   1.467  2.5155  0.3243 -1.3695
14231TIP3    H264185   3.858   3.070   1.486 -0.6391  1.6228  1.6266
14232TIP3   OH264186   4.451   4.300  14.721 -0.5574 -0.3955 -0.3000
14232TIP3    H164187   4.453   4.312  14.816  2.8590  2.3974 -0.5339
14232TIP3    H264188   4.454   4.205  14.709  0.0214 -0.8030  2.4087
14233TIP3   OH264189   6.084   4.511   4.500  0.2047 -0.8616 -0.0188
14233TIP3    H164190   6.023   4.575   4.537 -0.8327 -0.9514 -1.4535
14233TIP3    H264191   6.113   4.550   4.418  0.9289 -1.4891 -0.0733
14234TIP3   OH264192   3.254   5.311   1.490 -0.7481  0.3832  0.2826
14234TIP3    H164193   3.164   5.322   1.458 -1.1339  1.4343  1.6209
14234TIP3    H264194   3.268   5.217   1.491 -1.1449  0.2565 -1.7261
14235TIP3   OH264195   2.063   2.972   4.860  0.0743 -0.3545 -0.4453
14235TIP3    H164196   2.061   2.950   4.953  1.0066 -0.2472 -0.3856
14235TIP3    H264197   2.064   2.887   4.815  2.1789 -0.4928 -0.2598
14236TIP3   OH264198   5.796   1.461   5.696 -0.0601  0.2444 -0.5266
14236TIP3    H164199   5.819   1.387   5.639 -0.3184 -0.2184 -0.0463
14236TIP3    H264200   5.847   1.446   5.776 -1.1238 -0.1733  0.1018
14237TIP3   OH264201   3.699   6.012  10.745  0.6416 -0.3831 -0.0109
14237TIP3    H164202   3.639   6.061  10.802  2.0815  1.2241  0.2081
14237TIP3    H264203   3.662   6.023  10.657  0.6646  0.7268  0.0991
14238TIP3   OH264204   1.791   4.537  14.897 -0.1592  0.3868  0.1957
14238TIP3    H164205   1.699   4.561  14.882 -0.6787 -1.4600  0.1695
14238TIP3    H264206   1.825   4.517  14.809  0.1589  0.6952  0.2479
14239TIP3   OH264207   0.228   0.453   0.704 -0.6799 -0.2102 -0.1985
14239TIP3    H164208   0.290   0.380   0.704  0.1018  0.3688  2.4338
14239TIP3    H264209   0.154   0.422   0.652  0.9113 -1.6925 -1.7170
14240TIP3   OH264210   5.275   4.672   6.460  0.0452  0.1238  0.3739
14240TIP3    H164211   5.245   4.760   6.482  0.3074  0.0273  1.1736
14240TIP3    H264212   5.363   4.686   6.424  0.3461  0.1422  1.1032
14241TIP3   OH264213   1.573   0.626   0.880 -0.0544 -0.3213  0.1645
14241TIP3    H164214   1.580   0.628   0.785  0.5723  1.6251  0.2098
14241TIP3    H264215   1.489   0.668   0.899 -0.0927 -0.5375  0.4826
14242TIP3   OH264216   4.673   5.352   3.316  0.4455 -0.1100  0.0509
14242TIP3    H164217   4.712   5.287   3.375  0.2678 -0.1441  0.1317
14242TIP3    H264218   4.727   5.430   3.328  1.3157 -0.5514 -0.8328
14243TIP3   OH264219   5.964   5.479  15.301  0.1779 -0.0163  0.5460
14243TIP3    H164220   6.000   5.530  15.229 -0.6930 -0.7818 -0.4684
14243TIP3    H264221   5.874   5.460  15.274 -0.2666 -0.0712  1.9730
14244TIP3   OH264222   3.582   1.449  13.832  0.1702 -0.1038 -0.2513
14244TIP3    H164223   3.640   1.415  13.901  0.9089 -2.4047 -1.8840
14244TIP3    H264224   3.615   1.536  13.814  1.1691 -0.1905  0.9772
14245TIP3   OH264225   3.368   0.442  14.367 -0.0679 -0.2576  0.2200
14245TIP3    H164226   3.424   0.411  14.296  0.2207  0.9534 -0.1141
14245TIP3    H264227   3.327   0.522  14.332 -1.2930 -0.6140  0.7925
14246TIP3   OH264228   0.194   6.132   4.668 -0.0489  0.5738 -0.0186
14246TIP3    H164229   0.204   6.181   4.586 -0.4436 -0.7556 -0.8784
14246TIP3    H264230   0.138   6.058   4.646  0.6220 -0.3402  1.2354
14247TIP3   OH264231   2.493   4.861   3.406  0.5512  0.6390 -0.3457
14247TIP3    H164232   2.542   4.866   3.488 -1.1531  2.6855  0.6418
14247TIP3    H264233   2.430   4.790   3.419  0.4656  0.7799  0.0132
14248TIP3   OH264234   1.164   6.684   4.441 -0.2593  0.2078  0.2108
14248TIP3    H164235   1.235   6.747   4.437 -1.1773  1.2170 -0.6003
14248TIP3    H264236   1.174   6.643   4.527  1.0330  0.6261  0.2831
14249TIP3   OH264237   2.633   3.137  14.657  0.0933 -0.1528  0.8029
14249TIP3    H164238   2.708   3.077  14.649  1.3419  1.5016 -1.0317
14249TIP3    H264239   2.563   3.094  14.608  0.0326 -1.3465  1.8563
14250TIP3   OH264240   4.669   6.600   4.980  0.1364 -0.4068 -0.3465
14250TIP3    H164241   4.744   6.601   5.039 -0.7608 -1.3411  0.8780
14250TIP3    H264242   4.653   6.507   4.962 -0.7258 -0.2360 -0.5368
14251TIP3   OH264243   4.503   5.818  16.267  0.7074 -0.3872  0.0042
14251TIP3    H164244   4.578   5.858  16.224  2.1089 -1.3591  1.3958
14251TIP3    H264245   4.536   5.793  16.354 -1.7559  0.8532  1.4143
14252TIP3   OH264246   4.718   1.268  11.195  0.2756 -0.1094 -0.1225
14252TIP3    H164247   4.702   1.226  11.110 -1.4425 -1.3269  0.7336
14252TIP3    H264248   4.631   1.272  11.236  0.6061  2.9269  0.5131
14253TIP3   OH264249   3.096   5.207  13.852 -0.0390 -0.6445  0.1719
14253TIP3    H164250   3.081   5.297  13.880 -2.9484 -0.8572 -0.4746
14253TIP3    H264251   3.122   5.162  13.932 -1.2882  0.2146  1.1085
14254TIP3   OH264252   3.664   0.155  15.104 -0.4851 -0.1732  0.2163
14254TIP3    H164253   3.742   0.189  15.147 -1.2391  0.6577  0.9646
14254TIP3    H264254   3.617   0.232  15.074 -1.2723 -0.6332  0.2330
14255TIP3   OH264255   1.707   0.448  13.424  0.3544  0.1399 -0.8180
14255TIP3    H164256   1.798   0.419  13.415  0.0877 -1.1195  0.3737
14255TIP3    H264257   1.713   0.530  13.472  0.8485 -0.0667 -0.5222
14256TIP3   OH264258   2.671   1.647  11.007 -0.3345 -0.3410 -0.0901
14256TIP3    H164259   2.582   1.619  10.986  0.5281 -2.8842 -0.6833
14256TIP3    H264260   2.684   1.619  11.098  0.5685 -2.0865 -0.7171
14257TIP3   OH264261   5.373   5.249  12.722  0.4756  0.2851 -0.1775
14257TIP3    H164262   5.390   5.256  12.628 -0.2233  3.7679 -0.1967
14257TIP3    H264263   5.432   5.314  12.762  1.0518 -1.3935  1.8848
14258TIP3   OH264264   3.045   6.524   4.549  0.0949  0.0006 -0.0968
14258TIP3    H164265   3.111   6.458   4.528 -1.1648 -1.1450 -0.5087
14258TIP3    H264266   3.084   6.574   4.621  0.9646 -1.3436  0.3987
14259TIP3   OH264267   6.231   1.655  15.013 -0.4003 -0.0684 -0.1441
14259TIP3    H164268   6.165   1.721  15.034 -2.6067 -1.5267 -1.9921
14259TIP3    H264269   6.208   1.579  15.067 -0.1858 -0.5531 -0.7189
14260TIP3   OH264270   4.461   2.081  15.627  0.7680 -1.0412 -0.1549
14260TIP3    H164271   4.450   2.149  15.694 -0.1944 -0.2283 -1.0890
14260TIP3    H264272   4.538   2.109  15.578 -0.1775 -0.0565 -1.1354
14261TIP3   OH264273   3.884   6.478   3.248  0.7239 -0.0855  0.7904
14261TIP3    H164274   3.825   6.406   3.272  1.3321 -0.8114  0.1422
14261TIP3    H264275   3.869   6.491   3.154  0.3685  0.8833  0.9673
14262TIP3   OH264276   4.410   0.720   2.286 -1.1875 -0.2767 -0.2546
14262TIP3    H164277   4.412   0.810   2.252 -0.1202 -0.0706  0.2978
14262TIP3    H264278   4.455   0.725   2.370 -2.1348 -1.1284  0.3286
14263TIP3   OH264279   2.914   3.070   6.563 -0.7679  0.5080 -0.1816
14263TIP3    H164280   2.984   3.121   6.604 -1.3939  0.5217  0.9195
14263TIP3    H264281   2.958   2.989   6.534  0.0561  1.2915 -1.1830
14264TIP3   OH264282   0.660   2.490  13.901 -0.8572  0.4482  0.0829
14264TIP3    H164283   0.706   2.512  13.820 -1.3635  0.2491 -0.2682
14264TIP3    H264284   0.590   2.555  13.906  1.1251  2.6302  2.1249
14265TIP3   OH264285   2.164   6.383   2.726 -0.3438 -0.6553  0.3635
14265TIP3    H164286   2.113   6.464   2.732  0.8645  0.0314  3.3714
14265TIP3    H264287   2.246   6.410   2.685  1.3779  0.6007  4.1471
14266TIP3   OH264288   0.788   2.453   5.136 -0.1751 -0.2448 -0.2990
14266TIP3    H164289   0.818   2.417   5.053  1.5659  1.1427 -0.3326
14266TIP3    H264290   0.859   2.435   5.198 -0.4652  0.6648  0.3295
14267TIP3   OH264291   4.348   0.627   3.828 -0.8894 -0.1842  0.0765
14267TIP3    H164292   4.379   0.538   3.841 -0.7110  0.1238  2.2153
14267TIP3    H264293   4.257   0.626   3.857 -0.9426  0.2849 -0.0563
14268TIP3   OH264294   2.636   1.765   4.765  0.0003  0.8259 -0.0555
14268TIP3    H164295   2.575   1.758   4.692 -1.5849  2.6228  1.0011
14268TIP3    H264296   2.657   1.674   4.788 -0.1799  0.2148 -2.1114
14269TIP3   OH264297   5.597   2.592   4.500 -0.5195 -0.2485 -0.1707
14269TIP3    H164298   5.619   2.651   4.572  1.4107 -0.8739 -0.1814
14269TIP3    H264299   5.517   2.627   4.463 -0.3758  1.3305  0.9322
14270TIP3   OH264300   4.727   4.843  12.803  0.7717  0.2907 -0.3978
14270TIP3    H164301   4.646   4.890  12.822  0.4867 -1.0608  2.0787
14270TIP3    H264302   4.769   4.895  12.735 -1.5570  1.7183 -0.8607
14271TIP3   OH264303   6.158   1.640   6.248 -0.1041 -0.4694 -0.3979
14271TIP3    H164304   6.118   1.725   6.228  0.9139 -0.2876 -1.8847
14271TIP3    H264305   6.119   1.613   6.331 -1.3658  0.8708 -0.5216
14272TIP3   OH264306   6.098   1.932   4.000  0.1657 -0.5423 -0.2272
14272TIP3    H164307   6.043   1.883   3.938  0.2489 -2.4763  1.1317
14272TIP3    H264308   6.179   1.949   3.952  0.5910 -2.8140 -0.4397
14273TIP3   OH264309   0.527   1.325   2.503 -0.4522  0.1166 -0.9766
14273TIP3    H164310   0.528   1.373   2.585  0.2393  2.6110 -2.3527
14273TIP3    H264311   0.441   1.343   2.465 -0.5146 -0.4642 -1.1247
14274TIP3   OH264312   0.667   5.953   2.450 -0.1143 -0.7013 -0.1609
14274TIP3    H164313   0.730   5.893   2.410  0.9751 -0.4984  1.1754
14274TIP3    H264314   0.666   5.929   2.542 -0.2421  0.8148  0.2566
14275TIP3   OH264315   5.726   2.978   1.700  0.5059 -0.2987 -0.4943
14275TIP3    H164316   5.793   3.046   1.704  1.3146 -0.9081 -2.5609
14275TIP3    H264317   5.691   2.984   1.610 -1.1875 -0.9577  0.0764
14276TIP3   OH264318   2.645   1.950   3.798  0.1340  0.1237  0.1204
14276TIP3    H164319   2.570   2.008   3.787 -1.5832 -2.3781 -3.0783
14276TIP3    H264320   2.608   1.864   3.813  2.4202 -0.9321  0.1889
14277TIP3   OH264321   6.541   5.166  13.436 -0.0404 -0.1552  0.0175
14277TIP3    H164322   6.542   5.106  13.361  2.5851 -1.1174  0.6962
14277TIP3    H264323   6.572   5.249  13.401 -0.3171 -0.1755 -0.2743
14278TIP3   OH264324   6.404   2.434  16.963  0.4494  0.0154  0.3364
14278TIP3    H164325   6.384   2.366  17.027  0.7544  1.1501  1.6848
14278TIP3    H264326   6.328   2.491  16.964  1.8394  1.9996  2.3641
14279TIP3   OH264327   4.301   0.619  11.777 -0.3154  0.3123  0.2498
14279TIP3    H164328   4.265   0.684  11.837 -1.1680  0.1813 -0.1000
14279TIP3    H264329   4.318   0.667  11.696  0.0907  0.3264  0.3425
14280TIP3   OH264330   2.285   2.723  10.364  0.5492 -0.3769  0.2927
14280TIP3    H164331   2.248   2.736  10.276  0.5008  0.3053  0.4033
14280TIP3    H264332   2.275   2.630  10.381  0.8130 -0.5687 -0.5423
14281TIP3   OH264333   5.921   6.701  13.780 -0.1319  0.0884  0.6341
14281TIP3    H164334   6.000   6.741  13.816  0.3519  1.2910 -1.6059
14281TIP3    H264335   5.890   6.763  13.714 -1.1616 -1.7848 -0.7491
14282TIP3   OH264336   3.600   1.867   4.124  0.4374 -0.1226  0.3127
14282TIP3    H164337   3.577   1.938   4.184 -0.9516  0.9948 -1.4599
14282TIP3    H264338   3.529   1.803   4.136  0.6711 -0.3379  0.5465
14283TIP3   OH264339   6.058   6.220  14.167  0.0283 -0.4181 -0.2954
14283TIP3    H164340   6.116   6.279  14.215  1.2552 -1.3102 -0.6583
14283TIP3    H264341   6.022   6.275  14.096  0.8510  0.0096 -0.3950
14284TIP3   OH264342   3.360   5.950  15.431  0.1164  0.2105 -0.2398
14284TIP3    H164343   3.323   6.031  15.465 -1.0615 -0.1149 -0.7181
14284TIP3    H264344   3.425   5.978  15.367  1.6137  0.8095  1.4575
14285TIP3   OH264345   1.296   0.337   0.852  0.3361 -1.5196  0.9005
14285TIP3    H164346   1.245   0.375   0.781  2.5731 -2.0949 -1.1454
14285TIP3    H264347   1.239   0.269   0.888 -1.5036 -0.1073  0.8408
14286TIP3   OH264348   4.288   0.972  14.808  0.6768 -0.0588 -0.4001
14286TIP3    H164349   4.283   0.917  14.731 -1.7488 -2.0551  1.0325
14286TIP3    H264350   4.351   0.928  14.865  1.3194  0.5810 -0.5997
14287TIP3   OH264351   1.830   1.177   3.873  0.1624  0.6421 -0.3139
14287TIP3    H164352   1.760   1.243   3.873 -1.2328 -0.7146  1.3941
14287TIP3    H264353   1.847   1.160   3.780  0.2398  3.0099 -0.7979
14288TIP3   OH264354   5.683   2.667  16.373  0.2236 -0.0281  0.1691
14288TIP3    H164355   5.661   2.760  16.385 -2.6821 -0.5235 -0.6493
14288TIP3    H264356   5.716   2.639  16.458 -0.3852  1.3639  0.9002
14289TIP3   OH264357   2.834   4.183  15.779  0.2908 -0.3582 -0.5063
14289TIP3    H164358   2.911   4.128  15.764  0.4248 -0.0850 -0.8504
14289TIP3    H264359   2.830   4.195  15.874  0.1350 -1.1332 -0.4114
14290TIP3   OH264360   2.061   5.008  15.024 -0.6498  0.5002  0.4013
14290TIP3    H164361   2.065   4.923  15.067  1.4933  0.3256 -0.0708
14290TIP3    H264362   2.017   5.065  15.088  0.4296 -0.2960  1.9014
14291TIP3   OH264363   1.344   0.187   4.808  0.4410 -0.5458 -0.0707
14291TIP3    H164364   1.342   0.221   4.719  0.4040 -1.2358 -0.3386
14291TIP3    H264365   1.388   0.255   4.859  0.7954 -0.3073 -0.6877
14292TIP3   OH264366   5.048   3.211   5.968 -0.9279  0.1296  0.1206
14292TIP3    H164367   4.966   3.229   6.015 -1.3038  1.0678 -0.8563
14292TIP3    H264368   5.025   3.219   5.876  0.6410  2.1262 -0.1571
14293TIP3   OH264369   2.877   1.579   1.581  0.5428 -0.2839  0.2075
14293TIP3    H164370   2.936   1.565   1.655  0.2219  0.9333  0.7167
14293TIP3    H264371   2.822   1.652   1.608 -0.8270 -1.0158 -0.4809
14294TIP3   OH264372   4.827   4.954   0.517  0.1205 -0.2193 -0.3591
14294TIP3    H164373   4.909   4.917   0.550  0.1144  0.2457  0.1783
14294TIP3    H264374   4.834   5.048   0.534 -1.0709 -0.3357  0.8835
14295TIP3   OH264375   0.243   5.807  10.710  0.0214  0.3947 -0.0743
14295TIP3    H164376   0.151   5.828  10.692 -0.1091 -0.1695 -0.0833
14295TIP3    H264377   0.254   5.717  10.678  0.9205  0.8997 -1.2866
14296TIP3   OH264378   2.947   4.310  12.303  0.6676 -0.4212 -0.5608
14296TIP3    H164379   2.994   4.258  12.238  0.1786  1.0752 -2.1970
14296TIP3    H264380   2.973   4.401  12.284 -2.3374  0.4098 -1.1451
14297TIP3   OH264381   3.160   2.815  16.104 -0.0094 -0.1776 -0.2882
14297TIP3    H164382   3.250   2.809  16.135 -0.5188  0.3699  1.4315
14297TIP3    H264383   3.152   2.905  16.073  0.0943 -0.2988 -0.6731
14298TIP3   OH264384   0.818   3.160   4.530 -0.3070  0.1220 -0.0859
14298TIP3    H164385   0.757   3.143   4.459 -0.9873 -1.8084  0.8781
14298TIP3    H264386   0.899   3.117   4.503  0.3670  1.8426 -0.9260
14299TIP3   OH264387   3.119   1.258   3.221 -0.6854  0.3172  0.6862
14299TIP3    H164388   3.097   1.305   3.141 -1.0302  1.5725  1.4942
14299TIP3    H264389   3.106   1.322   3.291 -0.3440 -0.7371  1.7456
14300TIP3   OH264390   2.768   5.450  16.087 -0.3355 -0.3209  0.2326
14300TIP3    H164391   2.760   5.380  16.023  1.2113 -0.5673  0.2695
14300TIP3    H264392   2.740   5.529  16.040  2.1781 -0.2321 -1.3125
14301TIP3   OH264393   5.216   6.830  11.285 -0.0852 -0.6382  0.4117
14301TIP3    H164394   5.179   6.880  11.357 -1.3414 -0.9958  0.0352
14301TIP3    H264395   5.294   6.789  11.322 -0.0376  0.1483  1.2186
14302TIP3   OH264396   3.204   5.399   1.937  0.1910 -0.4276 -0.0698
14302TIP3    H164397   3.285   5.349   1.927  0.8840  0.1334  2.1744
14302TIP3    H264398   3.190   5.440   1.851  1.6492 -1.4125 -0.8182
14303TIP3   OH264399   0.690   1.539  14.972  0.5375  0.6276 -0.2634
14303TIP3    H164400   0.615   1.515  15.026  1.1418 -0.4641  0.1098
14303TIP3    H264401   0.706   1.462  14.918  0.9445  1.1192 -0.8601
14304TIP3   OH264402   3.492   5.592  12.524  0.6179  0.0026 -0.0989
14304TIP3    H164403   3.424   5.547  12.573  0.1150  1.2257  0.3803
14304TIP3    H264404   3.573   5.546  12.548  0.1623 -0.4748  0.5745
14305TIP3   OH264405   4.667   6.237   3.223  0.2961  0.2786  0.0824
14305TIP3    H164406   4.654   6.154   3.267 -0.7443  0.2552 -0.2489
14305TIP3    H264407   4.761   6.240   3.205  0.2280 -1.2609 -0.7415
14306TIP3   OH264408   0.308   3.318  14.464  0.3713  0.1892 -0.3746
14306TIP3    H164409   0.329   3.335  14.556 -1.8391  2.9799 -0.2320
14306TIP3    H264410   0.366   3.376  14.415 -0.1468  0.5519 -0.5645
14307TIP3   OH264411   4.105   0.927   5.172  0.5823  0.0537  0.5710
14307TIP3    H164412   4.045   0.993   5.207 -1.1084 -1.5824  0.8733
14307TIP3    H264413   4.185   0.939   5.224 -0.7574 -0.1655  2.8473
14308TIP3   OH264414   5.108   3.665   6.159 -0.7108 -0.4184 -0.1424
14308TIP3    H164415   5.143   3.579   6.134 -1.5805 -0.5940 -0.8010
14308TIP3    H264416   5.088   3.656   6.252  0.2481 -0.5599  0.0622
14309TIP3   OH264417   6.378   0.125   5.860  0.5606  0.4319 -0.2476
14309TIP3    H164418   6.287   0.156   5.860  0.3107 -0.1912 -1.6329
14309TIP3    H264419   6.402   0.121   5.952 -0.9407  0.3010  0.1751
14310TIP3   OH264420   2.419   2.466  11.581 -0.2865 -0.3090 -0.5771
14310TIP3    H164421   2.483   2.479  11.511 -0.1725  0.6225 -0.3163
14310TIP3    H264422   2.422   2.547  11.631  0.2272 -1.2740  1.0009
14311TIP3   OH264423   4.254   3.180   4.546  0.3241  0.2851  0.6287
14311TIP3    H164424   4.342   3.210   4.519  0.7528  0.2193  1.8933
14311TIP3    H264425   4.239   3.101   4.494  2.0401 -1.0558  2.0595
14312TIP3   OH264426   0.978   6.766   1.254 -0.7113 -0.3163  0.1916
14312TIP3    H164427   1.055   6.808   1.293 -0.0268 -1.1226 -0.2577
14312TIP3    H264428   0.904   6.817   1.287 -0.0054  0.3497  0.7990
14313TIP3   OH264429   5.753   0.788  16.781  0.3388  0.0022 -0.0432
14313TIP3    H164430   5.749   0.736  16.701  0.6421  0.0727 -0.1043
14313TIP3    H264431   5.847   0.801  16.796  0.2645  1.6802 -0.7771
14314TIP3   OH264432   3.842   5.469   2.153  0.1509  0.2855 -0.2774
14314TIP3    H164433   3.890   5.552   2.154  0.7341 -0.0158  1.3378
14314TIP3    H264434   3.756   5.491   2.117  0.5430  1.4334 -0.5642
14315TIP3   OH264435   0.204   2.473   1.654  0.0853  0.0391 -0.4163
14315TIP3    H164436   0.196   2.525   1.734  1.4250  2.2214 -1.5965
14315TIP3    H264437   0.287   2.426   1.663 -1.1343 -2.0637  0.6588
14316TIP3   OH264438   3.637   4.216  11.324 -0.2921 -0.8659  0.4369
14316TIP3    H164439   3.690   4.168  11.387  0.1910 -0.3367  0.4434
14316TIP3    H264440   3.701   4.253  11.263 -0.5596  0.5949  1.0010
14317TIP3   OH264441   3.856   1.366  13.788  0.1680  0.5008  0.0586
14317TIP3    H164442   3.896   1.281  13.807  2.2596  1.1062 -1.2206
14317TIP3    H264443   3.919   1.430  13.824  0.3141  1.5099 -1.8571
14318TIP3   OH264444   4.527   1.182  13.196 -0.0624 -0.2205 -0.2917
14318TIP3    H164445   4.445   1.132  13.192  0.3367 -0.8432 -1.2079
14318TIP3    H264446   4.592   1.118  13.227  0.0780  0.2739  0.4485
14319TIP3   OH264447   2.998   5.767   2.382 -0.9203 -0.2455 -0.1024
14319TIP3    H164448   2.908   5.771   2.350 -0.2375 -0.5445 -2.2308
14319TIP3    H264449   3.052   5.774   2.303  0.9975  2.0288  1.2612
14320TIP3   OH264450   4.492   4.337   4.614 -0.6867 -0.1825  0.2953
14320TIP3    H164451   4.578   4.296   4.603  0.2838  1.6112  0.8341
14320TIP3    H264452   4.439   4.301   4.543  0.3422 -1.7232  0.2693
14321TIP3   OH264453   1.891   4.587   5.381 -0.0740 -0.4982 -0.3478
14321TIP3    H164454   1.846   4.506   5.357  0.6993 -1.2276  0.5527
14321TIP3    H264455   1.898   4.583   5.477  2.4982 -0.8087 -0.4668
14322TIP3   OH264456   2.853   6.759   1.831  0.3077 -0.0482  0.1831
14322TIP3    H164457   2.803   6.812   1.893  0.8234  0.9860 -0.2601
14322TIP3    H264458   2.837   6.668   1.858 -0.9876  0.3044  0.6535
14323TIP3   OH264459   3.411   6.265  14.466  0.8450 -0.0196  0.5885
14323TIP3    H164460   3.351   6.198  14.435  0.1103  0.3011  1.2879
14323TIP3    H264461   3.387   6.344  14.418  2.8883 -0.6013 -1.6024
14324TIP3   OH264462   3.428   0.741   0.279 -0.1926 -0.2826  0.0140
14324TIP3    H164463   3.343   0.725   0.320 -1.0165 -1.3374 -1.9767
14324TIP3    H264464   3.408   0.795   0.203  1.1032  0.4830  0.1990
14325TIP3   OH264465   1.945   6.831   5.805 -0.2375  0.1964 -0.1394
14325TIP3    H164466   1.924   6.865   5.718 -1.1324 -0.2961 -0.1286
14325TIP3    H264467   1.860   6.823   5.849  0.3092  1.7776  1.3009
14326TIP3   OH264468   1.925   5.070  15.725 -0.1917  0.2111  0.4205
14326TIP3    H164469   1.964   4.987  15.699  2.1260  1.0863  0.8689
14326TIP3    H264470   1.910   5.116  15.642 -0.3115 -0.1585  0.2343
14327TIP3   OH264471   3.029   2.442   6.531  0.0749 -0.1907 -0.0550
14327TIP3    H164472   2.988   2.528   6.516 -0.7935 -0.5664  0.1095
14327TIP3    H264473   2.962   2.392   6.578  0.7244 -0.8317  0.1991
14328TIP3   OH264474   4.732   5.417   5.710 -0.5180 -0.8330 -0.3088
14328TIP3    H164475   4.718   5.328   5.743 -0.4734 -0.4317  0.8373
14328TIP3    H264476   4.680   5.472   5.768  1.0592  0.0931  0.2625
14329TIP3   OH264477   6.821   6.626   4.790  0.3559 -0.8837  0.0267
14329TIP3    H164478   6.744   6.571   4.780  0.4997 -1.8914  3.1555
14329TIP3    H264479   6.892   6.565   4.810  1.1508  0.2326  0.8010
14330TIP3   OH264480   2.352   2.326  14.930  0.5428 -0.3395 -0.6315
14330TIP3    H164481   2.264   2.332  14.892  1.4730  0.9217 -2.8025
14330TIP3    H264482   2.390   2.413  14.916  1.8073 -0.5483  1.1877
14331TIP3   OH264483   4.943   4.662  12.619 -0.3391  0.2557  0.2599
14331TIP3    H164484   5.035   4.640  12.605 -1.2752 -3.4204 -1.1957
14331TIP3    H264485   4.902   4.579  12.643 -3.3542  1.7451  0.7231
14332TIP3   OH264486   5.983   2.356  15.555 -0.5295  0.2532 -0.1535
14332TIP3    H164487   5.924   2.280  15.550  1.4537 -1.3037 -1.1782
14332TIP3    H264488   5.941   2.414  15.619 -2.0602 -1.7529  0.7997
14333TIP3   OH264489   0.480   4.654  14.657  0.0752  0.1761  0.1184
14333TIP3    H164490   0.512   4.728  14.605  0.6701 -0.1442  0.0280
14333TIP3    H264491   0.385   4.665  14.658 -0.2019 -1.0273 -2.8995
14334TIP3   OH264492   1.259   1.314  11.631 -0.3793 -0.2805 -0.3370
14334TIP3    H164493   1.176   1.311  11.583  0.1778  1.8374 -1.5598
14334TIP3    H264494   1.252   1.392  11.686 -0.4905 -1.9562  2.2405
14335TIP3   OH264495   4.658   3.805  15.975  0.1891  0.5186 -0.6363
14335TIP3    H164496   4.604   3.874  16.014 -0.0511  0.3527 -0.6761
14335TIP3    H264497   4.647   3.816  15.881 -0.9493 -0.4363 -0.6336
14336TIP3   OH264498   1.928   0.039   5.490 -0.4261  1.0509 -0.2300
14336TIP3    H164499   1.943   0.017   5.398  3.3988 -1.1594  0.7103
14336TIP3    H264500   1.847  -0.006   5.513 -1.2957  1.4061 -2.3823
14337TIP3   OH264501   1.420   1.461  16.252  0.1427  0.4941 -0.8447
14337TIP3    H164502   1.484   1.531  16.265  0.1766  0.0293  2.1379
14337TIP3    H264503   1.467   1.381  16.275 -0.2458 -0.4402 -3.0673
14338TIP3   OH264504   0.182   0.204   2.576  0.0863 -0.7289  0.2340
14338TIP3    H164505   0.199   0.288   2.534  0.5326 -0.4228  1.0069
14338TIP3    H264506   0.218   0.213   2.664  1.5425 -2.2385 -0.1442
14339TIP3   OH264507   4.112   1.263  10.717  0.4186  0.8574  0.4687
14339TIP3    H164508   4.030   1.219  10.736 -1.1094  3.2944 -0.0296
14339TIP3    H264509   4.147   1.288  10.803 -1.0577  2.6105  0.6067
14340TIP3   OH264510   5.497   1.724  15.054 -0.4380 -0.0202 -0.1036
14340TIP3    H164511   5.421   1.679  15.092 -0.2503  1.1623  1.8547
14340TIP3    H264512   5.462   1.808  15.024 -0.2612 -0.2896 -1.0858
14341TIP3   OH264513   0.700   6.209  11.475  0.0484 -0.0297  0.2492
14341TIP3    H164514   0.727   6.292  11.513  0.1791 -0.2952  0.7486
14341TIP3    H264515   0.607   6.220  11.454  0.1349  0.3302  0.0587
14342TIP3   OH264516   3.591   2.100   1.431 -0.0762  0.0507  0.4779
14342TIP3    H164517   3.556   2.117   1.343  0.4245 -1.0632  0.0428
14342TIP3    H264518   3.685   2.092   1.418  0.3162  2.1348  1.5002
14343TIP3   OH264519   0.958   1.028   1.834 -0.0872 -0.0372  0.4131
14343TIP3    H164520   0.928   1.108   1.791 -1.5772 -1.2124 -0.8531
14343TIP3    H264521   0.905   1.023   1.913 -0.4829 -0.1193  0.1453
14344TIP3   OH264522   5.042   5.918  14.615 -0.2553  0.4836  0.3277
14344TIP3    H164523   5.076   5.831  14.633 -1.1493 -0.4453 -2.0230
14344TIP3    H264524   5.005   5.948  14.698  1.6370 -0.5950  1.6211
14345TIP3   OH264525   0.082   0.743  12.080 -0.4990  0.5618 -0.3912
14345TIP3    H164526   0.025   0.817  12.100  0.4649  1.0982  0.4598
14345TIP3    H264527   0.144   0.777  12.016 -0.4798  0.2857 -0.5239
14346TIP3   OH264528   6.016   0.717   5.858 -0.0741 -0.2431 -0.4982
14346TIP3    H164529   6.025   0.694   5.951 -0.3147  0.5918 -0.2542
14346TIP3    H264530   5.943   0.664   5.827 -2.2807  1.9197  0.6904
14347TIP3   OH264531   5.132   0.326  15.746  0.1843 -0.1081 -0.2973
14347TIP3    H164532   5.072   0.351  15.676 -0.9191  0.7247  0.8964
14347TIP3    H264533   5.081   0.267  15.802  0.1472  1.2694  1.1919
14348TIP3   OH264534   6.361   3.006  12.225  0.8374  0.5569  0.6881
14348TIP3    H164535   6.448   3.027  12.192  1.0539  1.0341  1.5320
14348TIP3    H264536   6.311   2.983  12.147  1.9557 -0.6080  0.2756
14349TIP3   OH264537   0.908   5.490  11.684  0.0229  0.5275  0.1218
14349TIP3    H164538   0.953   5.573  11.698  0.6262  0.1428  0.5666
14349TIP3    H264539   0.973   5.424  11.709  0.1076 -0.1409 -1.7286
14350TIP3   OH264540   2.280   0.385  15.148  0.0561 -0.5358 -0.5378
14350TIP3    H164541   2.197   0.433  15.152 -0.4894 -1.4674 -0.4886
14350TIP3    H264542   2.276   0.325  15.222  0.0564 -1.7330 -1.4827
14351TIP3   OH264543   2.797   3.863  14.534 -0.2978  0.0893  0.6834
14351TIP3    H164544   2.819   3.780  14.576 -0.0080  0.8440  2.0636
14351TIP3    H264545   2.860   3.926  14.569  0.1224  0.7224 -1.0870
14352TIP3   OH264546   6.840   2.828   0.541 -0.2447 -0.8137  0.3305
14352TIP3    H164547   6.847   2.883   0.619 -0.0040  0.2499 -0.4102
14352TIP3    H264548   6.885   2.747   0.564  0.1460 -0.3648  1.1685
14353TIP3   OH264549   1.718   5.678   3.758  0.3405 -0.1599 -0.1313
14353TIP3    H164550   1.787   5.694   3.822 -0.8472 -0.3258  1.2638
14353TIP3    H264551   1.755   5.614   3.698  1.6704  0.3551  0.1003
14354TIP3   OH264552   1.238   0.120  14.111 -0.4040 -0.4752 -0.6633
14354TIP3    H164553   1.196   0.041  14.078 -1.0783 -0.2528 -0.3518
14354TIP3    H264554   1.262   0.170  14.033 -1.1168 -0.4029 -0.8436
14355TIP3   OH264555   4.549   4.336   2.664 -0.2881 -0.1605  0.3582
14355TIP3    H164556   4.546   4.254   2.713 -0.3203 -0.2623  0.1841
14355TIP3    H264557   4.641   4.360   2.662 -0.2505 -0.3183  0.1974
14356TIP3   OH264558   4.361   0.462   0.140 -0.3715 -0.3344 -0.1049
14356TIP3    H164559   4.412   0.397   0.091 -0.9177 -0.6301 -0.2923
14356TIP3    H264560   4.361   0.430   0.230  0.6528  0.2219  0.1040
14357TIP3   OH264561   2.750   4.190  11.070  0.3709 -0.0521  0.4527
14357TIP3    H164562   2.685   4.216  11.136 -0.9031 -0.8996 -0.4110
14357TIP3    H264563   2.754   4.264  11.010 -0.2503 -0.2143  0.1962
14358TIP3   OH264564   3.993   3.921   1.931  0.2371 -0.2588 -0.0147
14358TIP3    H164565   3.962   3.908   2.021 -0.1463  1.3101  0.1074
14358TIP3    H264566   4.059   3.990   1.939  0.0896  0.0012 -0.9588
14359TIP3   OH264567   0.527   6.583  12.540  0.2139 -0.5101  0.2162
14359TIP3    H164568   0.516   6.515  12.473 -1.3030  0.5778 -0.6707
14359TIP3    H264569   0.449   6.576  12.595 -1.2570  2.0468 -1.3528
14360TIP3   OH264570   0.052   6.122   4.203 -0.6335  0.3885  0.1774
14360TIP3    H164571  -0.035   6.139   4.239 -0.8438  2.3155 -1.0920
14360TIP3    H264572   0.106   6.194   4.235  0.4904 -0.6844  0.7988
14361TIP3   OH264573   2.073   2.037   0.964 -0.1545  0.4297  0.1930
14361TIP3    H164574   2.084   2.072   1.053  0.5725  2.0438 -0.4828
14361TIP3    H264575   2.154   2.061   0.919 -0.7427  0.1250 -1.0668
14362TIP3   OH264576   5.163   4.768  13.808 -0.2098 -0.4194  0.6739
14362TIP3    H164577   5.091   4.781  13.869  0.2333  0.5370  1.0230
14362TIP3    H264578   5.242   4.772  13.862  0.1354 -0.9134  0.2260
14363TIP3   OH264579   2.315   1.878   4.149 -0.0470  0.3020 -0.1789
14363TIP3    H164580   2.409   1.858   4.148 -0.0611  0.2486 -0.4822
14363TIP3    H264581   2.278   1.816   4.213  0.0028 -0.2419 -0.6610
14364TIP3   OH264582   1.498   4.388  11.414 -0.2168  0.3661 -0.3111
14364TIP3    H164583   1.591   4.369  11.405 -0.3335  0.7303 -3.3097
14364TIP3    H264584   1.491   4.436  11.497  2.1354 -0.1767  0.2752
14365TIP3   OH264585   6.000   4.447  15.976  0.8249  0.4142 -0.2394
14365TIP3    H164586   6.089   4.427  15.949  0.8963 -0.3085  0.4985
14365TIP3    H264587   6.009   4.514  16.044  1.1354 -2.2271  2.5537
14366TIP3   OH264588   2.331   5.551   4.899 -0.6607 -0.6210 -0.1124
14366TIP3    H164589   2.361   5.621   4.843  0.9650  0.4122  1.9206
14366TIP3    H264590   2.408   5.495   4.912 -0.2181  0.5016  2.9058
14367TIP3   OH264591   2.494   3.219   4.404 -0.0655 -0.1946 -0.1805
14367TIP3    H164592   2.572   3.267   4.432 -1.8424  2.2735  0.9029
14367TIP3    H264593   2.486   3.147   4.467  1.5109 -0.7345 -0.5528
14368TIP3   OH264594   0.077   1.591   5.017 -0.2660 -0.0832  0.0483
14368TIP3    H164595   0.068   1.499   5.042 -0.3949 -0.0872 -0.0118
14368TIP3    H264596   0.142   1.591   4.947 -1.2008 -0.2751 -0.8293
14369TIP3   OH264597   5.096   3.128   3.104 -0.3647  0.3545 -0.2487
14369TIP3    H164598   5.165   3.188   3.131  0.4456 -0.0813 -1.3287
14369TIP3    H264599   5.122   3.097   3.018 -1.6573 -0.2068 -0.4678
14370TIP3   OH264600   1.818   1.487  16.350  0.3041 -0.1765 -0.1196
14370TIP3    H164601   1.900   1.491  16.400 -0.2744 -1.5270  1.0222
14370TIP3    H264602   1.825   1.406  16.299  0.6310  0.8868 -1.8442
14371TIP3   OH264603   4.455   0.011  12.570  0.1012 -1.0894  0.3771
14371TIP3    H164604   4.366   0.035  12.596  0.9097 -0.0352  2.3873
14371TIP3    H264605   4.473  -0.071  12.616  0.6276 -0.5875  1.0858
14372TIP3   OH264606   3.592   4.651   5.695 -0.1183 -0.3235  0.0673
14372TIP3    H164607   3.670   4.622   5.742  0.5449 -0.4521 -1.0564
14372TIP3    H264608   3.529   4.673   5.763  1.2343  0.7528  1.0346
14373TIP3   OH264609   1.520   2.120  11.794  0.2790  0.6347  0.0983
14373TIP3    H164610   1.527   2.051  11.727 -0.3446  1.4117 -0.7901
14373TIP3    H264611   1.584   2.186  11.766  1.0369  0.3325  1.0751
14374TIP3   OH264612   1.947   5.160  11.648 -0.1718  0.0496 -0.2087
14374TIP3    H164613   1.949   5.146  11.553 -2.6375 -2.7123 -0.0141
14374TIP3    H264614   1.958   5.072  11.684  0.9764  1.0841  2.1081
14375TIP3   OH264615   1.053   5.879  15.986 -0.6680  0.2573  0.4250
14375TIP3    H164616   1.114   5.840  16.050 -0.5393 -1.9798 -0.9400
14375TIP3    H264617   1.092   5.859  15.901 -0.8443  3.1500 -0.4397
14376TIP3   OH264618   0.903   2.617  13.357 -0.7985 -0.6066  0.1277
14376TIP3    H164619   0.842   2.549  13.332 -3.0853  1.9618 -1.8005
14376TIP3    H264620   0.969   2.617  13.288 -1.6711  0.1052 -0.7290
14377TIP3   OH264621   3.803   2.629   4.659  0.1392 -0.6420  0.1102
14377TIP3    H164622   3.805   2.547   4.610 -1.4677 -0.6315 -0.0194
14377TIP3    H264623   3.824   2.605   4.749 -1.7090 -1.4545  0.3645
14378TIP3   OH264624   4.799   1.095  15.361  0.1817 -0.0562 -0.3380
14378TIP3    H164625   4.826   1.017  15.411  0.7207  0.5013  0.2579
14378TIP3    H264626   4.747   1.146  15.423 -1.9007 -0.8673 -1.3171
14379TIP3   OH264627   3.259   1.950  12.628  0.0515  0.4814  0.1148
14379TIP3    H164628   3.168   1.947  12.597  0.3039 -0.0790 -0.5839
14379TIP3    H264629   3.302   2.014  12.572  0.0833  0.7937  0.4875
14380TIP3   OH264630   5.831   2.547  16.582  0.2701  0.3050  0.1577
14380TIP3    H164631   5.802   2.587  16.664  0.2024  0.4173  0.0787
14380TIP3    H264632   5.879   2.469  16.609 -1.4045 -0.7400  0.2400
14381TIP3   OH264633   1.522   0.632   5.532  0.5057  0.2867 -0.1919
14381TIP3    H164634   1.579   0.647   5.456  0.7808  1.9210  0.2939
14381TIP3    H264635   1.442   0.680   5.510  0.3581  0.2597  0.2869
14382TIP3   OH264636   4.592   0.031  13.900 -0.8057 -0.3424  0.3491
14382TIP3    H164637   4.577  -0.064  13.898 -1.9827 -0.1714  0.4804
14382TIP3    H264638   4.581   0.055  13.992  0.5322 -0.2188  0.4959
14383TIP3   OH264639   3.694   4.073   6.028 -0.1718 -0.0828 -0.3666
14383TIP3    H164640   3.734   3.986   6.027 -1.0311 -0.4921 -1.9203
14383TIP3    H264641   3.673   4.091   5.936 -0.9258  1.3375  0.0557
14384TIP3   OH264642   1.990   3.258  10.702  0.3482 -0.0386 -0.3176
14384TIP3    H164643   1.985   3.170  10.741 -0.3237  0.8135  1.6503
14384TIP3    H264644   2.082   3.283  10.713  0.3575 -0.1624 -0.0859
14385TIP3   OH264645   5.344   4.992  12.682  0.2852  0.2508 -0.4062
14385TIP3    H164646   5.361   5.078  12.719 -0.4444  0.6215 -0.9069
14385TIP3    H264647   5.332   4.935  12.758 -0.5186  0.8654 -0.0647
14386TIP3   OH264648   1.559   3.189   5.721  0.1627 -0.0538  0.1458
14386TIP3    H164649   1.625   3.133   5.762 -1.4520 -0.1576  2.8286
14386TIP3    H264650   1.483   3.132   5.709 -0.1859  0.5975 -0.8756
14387TIP3   OH264651   6.721   2.616   2.780 -0.1607 -0.0570  0.0346
14387TIP3    H164652   6.758   2.571   2.704  0.4713  0.6149 -0.0721
14387TIP3    H264653   6.700   2.547   2.842  4.1235 -0.4105  1.4160
14388TIP3   OH264654   5.809   0.568   0.525 -0.1674 -0.1768  0.1204
14388TIP3    H164655   5.891   0.584   0.573 -0.3764  1.9952 -0.1834
14388TIP3    H264656   5.817   0.477   0.495  1.8522 -0.2174  0.6227
14389TIP3   OH264657   5.542   2.774  12.304  0.2727  0.6481  0.7045
14389TIP3    H164658   5.558   2.691  12.348  0.3678  0.5624  0.5103
14389TIP3    H264659   5.625   2.796  12.262 -0.9150 -1.7298 -3.5927
14390TIP3   OH264660   5.564   3.375   4.529 -0.3900 -0.4897 -0.1456
14390TIP3    H164661   5.570   3.318   4.605 -1.8382 -0.1004  0.2992
14390TIP3    H264662   5.628   3.444   4.545  1.0669 -1.7055 -0.4820
14391TIP3   OH264663   0.018   1.714   4.164 -0.1358  0.0500 -0.4740
14391TIP3    H164664  -0.068   1.731   4.202  0.5376  0.9114  0.7122
14391TIP3    H264665   0.080   1.751   4.226  1.1942 -2.0597 -0.4493
14392TIP3   OH264666   2.308   5.073  11.558  0.0868  0.2773 -0.1999
14392TIP3    H164667   2.233   5.058  11.501  0.1390  0.9245 -0.4493
14392TIP3    H264668   2.317   4.992  11.608  0.6499 -0.7111 -1.8223
14393TIP3   OH264669   6.417   5.433  14.104 -0.2935  0.0236 -0.1242
14393TIP3    H164670   6.435   5.498  14.035 -1.5993  0.7777  0.2034
14393TIP3    H264671   6.462   5.354  14.074 -0.8156  0.3260 -1.8497
14394TIP3   OH264672   4.483   2.065  16.773 -0.0042  0.1418 -0.4718
14394TIP3    H164673   4.552   2.055  16.839 -0.5914 -0.3761  0.0698
14394TIP3    H264674   4.406   2.024  16.812 -0.5820  0.5704 -1.1437
14395TIP3   OH264675   0.728   1.472   0.236 -0.4756  0.1877  0.5392
14395TIP3    H164676   0.662   1.517   0.288 -0.5528 -0.8421  1.3728
14395TIP3    H264677   0.764   1.406   0.296  1.0275  0.4660 -0.0170
14396TIP3   OH264678   0.477   5.468  16.443 -1.1372 -0.1588  0.1490
14396TIP3    H164679   0.504   5.400  16.380  0.4324  2.7530 -2.6149
14396TIP3    H264680   0.558   5.496  16.484 -1.6994  0.3219  0.9507
14397TIP3   OH264681   0.595   2.294   2.199 -0.6678 -0.0000 -0.4816
14397TIP3    H164682   0.556   2.218   2.156 -1.5758  0.1918 -0.0366
14397TIP3    H264683   0.519   2.348   2.224 -0.3357 -0.7871  2.6741
14398TIP3   OH264684   0.204   4.769  12.852  0.2172  0.2746 -0.1523
14398TIP3    H164685   0.259   4.757  12.774 -0.1311  1.5905 -0.6411
14398TIP3    H264686   0.249   4.836  12.903 -0.0241  0.0756  0.3250
14399TIP3   OH264687   5.294   0.846   4.711  0.0279  0.2985 -0.5145
14399TIP3    H164688   5.311   0.838   4.617  0.2243 -1.4315 -0.3662
14399TIP3    H264689   5.238   0.771   4.732  0.6021  0.2288  0.8817
14400TIP3   OH264690   2.732   2.101   2.298  0.3101  0.0254 -0.1240
14400TIP3    H164691   2.643   2.110   2.263  1.1140 -0.3655 -2.4082
14400TIP3    H264692   2.770   2.189   2.290  0.8904 -0.3227 -1.4603
14401TIP3   OH264693   2.407   5.574  14.055 -0.0278  0.2354 -0.2355
14401TIP3    H164694   2.366   5.519  13.989  0.7391  0.1396 -0.6448
14401TIP3    H264695   2.345   5.646  14.068 -2.1138 -1.7707  1.9021
14402TIP3   OH264696   0.933   4.530   4.033  0.8540 -0.1120 -0.8751
14402TIP3    H164697   0.879   4.553   3.957 -0.9367 -2.4351 -0.4493
14402TIP3    H264698   0.885   4.565   4.108 -0.0355 -1.9461 -0.5156
14403TIP3   OH264699   1.137   3.076  16.362 -0.2509 -0.1798  0.1523
14403TIP3    H164700   1.057   3.129  16.360 -0.4969 -0.5520 -0.1233
14403TIP3    H264701   1.106   2.985  16.357  0.1415 -0.3815  1.1198
14404TIP3   OH264702   1.109   0.824  10.738 -0.1040  0.1647  0.2003
14404TIP3    H164703   1.063   0.740  10.739  1.3512 -0.6922 -0.8929
14404TIP3    H264704   1.069   0.873  10.666 -0.1637 -0.0697  0.0731
14405TIP3   OH264705   4.032   5.867   1.309  0.0801  0.1971 -0.0860
14405TIP3    H164706   4.103   5.900   1.365  0.7232  1.0309 -1.3496
14405TIP3    H264707   4.030   5.773   1.327 -0.1160  0.5153  1.7295
14406TIP3   OH264708   2.859   5.020   3.377  0.3293 -0.1142  0.1155
14406TIP3    H164709   2.820   5.065   3.452  1.5964  1.5055 -0.1404
14406TIP3    H264710   2.919   5.084   3.339  0.4724 -1.2511 -1.6918
14407TIP3   OH264711   4.165   1.068  16.791  0.4773  0.0031  0.7851
14407TIP3    H164712   4.213   0.986  16.779  0.2043 -0.0135 -0.3651
14407TIP3    H264713   4.080   1.041  16.827 -0.3641 -0.4755 -1.3786
14408TIP3   OH264714   5.157   5.934  13.486  0.2497  0.0285  0.2991
14408TIP3    H164715   5.144   5.847  13.524 -0.4323 -0.4167 -0.9084
14408TIP3    H264716   5.115   5.993  13.548  0.7717 -0.4851  1.1647
14409TIP3   OH264717   2.503   4.406   4.933 -0.0396 -0.0455 -0.0359
14409TIP3    H164718   2.436   4.459   4.977 -0.3289  0.0882 -0.6183
14409TIP3    H264719   2.583   4.422   4.982  0.0605  1.5532 -0.6406
14410TIP3   OH264720   3.390   0.854  12.486  0.7761  0.0768  0.1176
14410TIP3    H164721   3.377   0.862  12.580  0.3885  1.1649 -0.0187
14410TIP3    H264722   3.336   0.779  12.461  0.7509 -0.1165  0.7318
14411TIP3   OH264723   2.095   2.722   1.181  0.1369 -0.5058 -0.1369
14411TIP3    H164724   2.104   2.652   1.116  0.5047 -1.9016  1.3415
14411TIP3    H264725   2.006   2.755   1.169 -0.1329 -1.4201 -0.7091
14412TIP3   OH264726   6.669   4.455   0.717  0.0111 -0.2732  0.2229
14412TIP3    H164727   6.726   4.532   0.714  1.6605 -1.3260  1.9909
14412TIP3    H264728   6.730   4.381   0.724 -1.4611 -1.9017 -2.5578
14413TIP3   OH264729   2.834   2.406  11.241  0.2984  0.4765  0.6041
14413TIP3    H164730   2.850   2.331  11.183  0.8984  0.1292  1.1970
14413TIP3    H264731   2.853   2.372  11.329  1.1080  1.4592  0.8290
14414TIP3   OH264732   3.688   4.356   6.013  0.2459  0.0513  0.3705
14414TIP3    H164733   3.730   4.275   6.042 -1.1139 -0.6779  0.3695
14414TIP3    H264734   3.664   4.339   5.922  0.6666  0.7562  0.1213
14415TIP3   OH264735   2.084   6.258   1.379  0.8089 -0.0124 -0.2717
14415TIP3    H164736   2.145   6.188   1.358 -0.3080 -0.6262 -1.6308
14415TIP3    H264737   1.998   6.216   1.380  0.2545  1.0708  0.3172
14416TIP3   OH264738   5.355   2.291   0.509  0.2138 -0.4728  0.2533
14416TIP3    H164739   5.351   2.275   0.415 -2.4046  0.8726  0.0514
14416TIP3    H264740   5.407   2.371   0.518  1.2022 -1.0725  0.0708
14417TIP3   OH264741   0.196   1.428  16.424 -0.1901  0.0379  0.3705
14417TIP3    H164742   0.226   1.517  16.406  2.1761 -0.6632  0.5119
14417TIP3    H264743   0.194   1.423  16.520  0.1559 -0.1832  0.3696
14418TIP3   OH264744   3.904   2.078   1.438  0.4638 -0.0272  0.0915
14418TIP3    H164745   3.863   2.007   1.388  1.2076 -0.4470  0.0705
14418TIP3    H264746   3.866   2.158   1.402 -1.1660 -0.4346  0.8001
14419TIP3   OH264747   4.560   5.299   4.731 -0.6360  0.6481  0.5195
14419TIP3    H164748   4.532   5.309   4.640  0.7321 -0.5093 -0.0731
14419TIP3    H264749   4.517   5.371   4.778 -1.3507  1.2724 -1.0326
14420TIP3   OH264750   1.114   1.207   5.745 -0.0706 -0.0780  0.0614
14420TIP3    H164751   1.036   1.261   5.757  1.2314  1.6630  1.3354
14420TIP3    H264752   1.093   1.124   5.788 -0.3541  1.2901  2.7975
14421TIP3   OH264753   4.452   6.409  14.877 -0.0084  0.0635 -0.0395
14421TIP3    H164754   4.504   6.334  14.849  0.4005  0.1739  0.3940
14421TIP3    H264755   4.384   6.371  14.933  1.5297  0.1862  2.0278
14422TIP3   OH264756   5.645   2.102   4.578 -0.2655  0.4960 -0.3513
14422TIP3    H164757   5.680   2.184   4.612  2.0500 -0.0127 -1.3085
14422TIP3    H264758   5.658   2.108   4.483 -1.0080 -0.5700 -0.5375
14423TIP3   OH264759   1.002   3.084   4.341 -0.2432  0.1691 -0.5249
14423TIP3    H164760   0.918   3.094   4.296  0.1970 -0.5316 -1.5398
14423TIP3    H264761   1.068   3.107   4.275  0.5210 -2.7419 -0.9278
14424TIP3   OH264762   0.421   1.361  11.351  0.0182  0.0506  0.2121
14424TIP3    H164763   0.392   1.402  11.270 -0.3661 -1.9884 -0.7420
14424TIP3    H264764   0.461   1.432  11.401 -0.2399  1.4672 -1.5092
14425TIP3   OH264765   3.813   1.624  16.087  0.0901  0.0868  0.0612
14425TIP3    H164766   3.813   1.545  16.033 -0.4335 -0.3021  0.6085
14425TIP3    H264767   3.724   1.658  16.077  0.6827  1.3456 -1.2042
14426TIP3   OH264768   0.360   5.488  14.616  0.6692  0.3060 -0.2504
14426TIP3    H164769   0.315   5.497  14.532 -0.5737  0.9317  0.4408
14426TIP3    H264770   0.453   5.482  14.594  0.3942  0.8494 -1.6415
14427TIP3   OH264771   6.000   5.016   5.737  0.2468  0.0043  1.0202
14427TIP3    H164772   6.037   5.020   5.825 -0.1926  0.0135  1.2073
14427TIP3    H264773   6.010   4.925   5.710  1.3912  0.2213  0.6318
14428TIP3   OH264774   1.714   3.783   0.740 -0.3587 -1.1080 -0.0325
14428TIP3    H164775   1.768   3.843   0.791  0.6348 -1.2286 -0.9083
14428TIP3    H264776   1.697   3.830   0.658 -1.2607 -1.2341  0.0707
14429TIP3   OH264777   0.389   2.952   4.779 -0.0383 -0.2399 -0.2902
14429TIP3    H164778   0.388   3.048   4.775  1.0055 -0.1034  1.5223
14429TIP3    H264779   0.297   2.926   4.779 -0.3921  0.9038  1.2361
14430TIP3   OH264780   4.718   6.542  16.692 -0.1567  0.0238 -0.3050
14430TIP3    H164781   4.676   6.468  16.737 -1.9434  0.5941 -0.9789
14430TIP3    H264782   4.725   6.610  16.759  1.5195 -0.7168  0.3287
14431TIP3   OH264783   6.414   0.691   5.882  0.6483  0.2066 -0.8613
14431TIP3    H164784   6.457   0.692   5.967 -0.9764 -0.8623  0.0127
14431TIP3    H264785   6.381   0.602   5.872  2.5618 -0.3327 -3.5648
14432TIP3   OH264786   3.219   0.793   6.503 -0.0187 -0.2677 -0.2558
14432TIP3    H164787   3.143   0.841   6.537 -0.4682 -1.4434  0.4827
14432TIP3    H264788   3.181   0.728   6.444  0.4340 -0.6986 -0.0738
14433TIP3   OH264789   6.010   6.524   5.015  0.0639  0.3036  0.3038
14433TIP3    H164790   6.093   6.573   5.018  2.2022 -2.9693 -0.1502
14433TIP3    H264791   5.978   6.526   5.105  0.3752  1.9404  0.4165
14434TIP3   OH264792   5.084   6.551  12.873  0.5386  0.8724 -0.0104
14434TIP3    H164793   5.031   6.475  12.895  1.8891 -1.1248 -3.0473
14434TIP3    H264794   5.044   6.587  12.794  1.2781  1.8997  0.0604
14435TIP3   OH264795   6.005   2.162  15.085  0.5099  0.7719  0.1041
14435TIP3    H164796   6.031   2.141  14.995  1.9880 -1.0454  0.9055
14435TIP3    H264797   5.924   2.214  15.075  0.5215  0.4300 -2.2396
14436TIP3   OH264798   5.512   0.306   0.342  0.3654  0.0051  0.4192
14436TIP3    H164799   5.519   0.221   0.299  0.1699  0.3344 -0.2940
14436TIP3    H264800   5.603   0.336   0.350  0.3930  0.0249  0.0517
14437TIP3   OH264801   5.831   2.236  12.040  0.1763  0.5746  0.0300
14437TIP3    H164802   5.914   2.196  12.014  0.0894 -1.0251  1.9899
14437TIP3    H264803   5.765   2.194  11.984  0.0611 -2.4027  2.1677
14438TIP3   OH264804   2.780   2.691  16.266  0.1180 -0.4136 -0.7383
14438TIP3    H164805   2.734   2.646  16.196 -0.1470  1.0069 -1.5059
14438TIP3    H264806   2.713   2.740  16.312  0.4754 -0.3792 -0.2445
14439TIP3   OH264807   5.315   5.851  13.102  0.1411 -0.5926 -0.1914
14439TIP3    H164808   5.300   5.757  13.110  1.0741 -0.8309 -1.0701
14439TIP3    H264809   5.358   5.875  13.184  1.1687 -1.2064 -0.5416
14440TIP3   OH264810   5.459   4.074   2.696 -0.3632 -0.4897  0.0975
14440TIP3    H164811   5.366   4.099   2.703 -0.5440 -0.8585 -0.7990
14440TIP3    H264812   5.479   4.032   2.780 -1.4354 -1.7498 -0.2396
14441TIP3   OH264813   3.018   4.733   5.588  0.0186  0.2842 -0.3608
14441TIP3    H164814   2.940   4.677   5.581  0.2739 -0.0136 -0.8729
14441TIP3    H264815   2.986   4.822   5.576 -0.5308  0.3410  1.3408
14442TIP3   OH264816   6.444   6.447   3.216  0.3397  0.7984 -0.1292
14442TIP3    H164817   6.490   6.426   3.135  0.0475 -1.5892  0.2742
14442TIP3    H264818   6.352   6.442   3.193  0.2332 -1.2332  0.6216
14443TIP3   OH264819   0.819   0.608   3.478 -0.4643  0.6090 -0.2079
14443TIP3    H164820   0.846   0.606   3.570  0.3644  0.7432 -0.4328
14443TIP3    H264821   0.737   0.560   3.476 -0.4628  0.5524  0.5947
14444TIP3   OH264822   2.143   2.091  15.586 -0.0421  0.3507 -0.3595
14444TIP3    H164823   2.201   2.167  15.577 -1.1313  1.5162  1.5652
14444TIP3    H264824   2.076   2.120  15.649 -0.2068 -2.4012  0.8575
14445TIP3   OH264825   4.335   3.896   5.112 -0.3237 -0.7066 -0.3049
14445TIP3    H164826   4.340   3.877   5.206 -0.7813  0.7378  0.0496
14445TIP3    H264827   4.349   3.812   5.069 -0.6733 -1.4951  1.0720
14446TIP3   OH264828   6.263   2.720   3.603  0.6263 -0.0259 -0.4276
14446TIP3    H164829   6.240   2.754   3.517  1.6841  1.9752  0.0216
14446TIP3    H264830   6.325   2.649   3.586 -0.2304 -0.5699 -1.3399
14447TIP3   OH264831   4.542   4.845  15.426  0.2430 -0.1938  0.1464
14447TIP3    H164832   4.510   4.771  15.478  1.0797 -0.1672  0.7177
14447TIP3    H264833   4.625   4.869  15.467  0.6583  0.1805 -0.8785
14448TIP3   OH264834   2.031   6.080   0.470  0.3079  0.0765 -0.4188
14448TIP3    H164835   2.091   6.026   0.419  1.2472  0.4015  0.3297
14448TIP3    H264836   2.048   6.058   0.561 -1.2666 -0.3963 -0.2003
14449TIP3   OH264837   5.202   6.358  11.705  0.7286 -0.0595  0.2862
14449TIP3    H164838   5.117   6.376  11.745  0.4030 -0.0050 -0.4094
14449TIP3    H264839   5.225   6.270  11.734  0.4535 -0.0562  0.5147
14450TIP3   OH264840   3.010   1.886   1.532  0.3034 -0.1527  0.1442
14450TIP3    H164841   3.038   1.977   1.532  2.5059 -0.7607 -0.1466
14450TIP3    H264842   2.999   1.864   1.624  0.2359  0.2857  0.2418
14451TIP3   OH264843   0.115   1.526  13.413  1.1930  0.7318 -0.0558
14451TIP3    H164844   0.146   1.617  13.409  3.0723  0.0924 -2.5668
14451TIP3    H264845   0.099   1.502  13.322  1.9792 -1.8564  0.4099
14452TIP3   OH264846   0.747   2.544  13.650 -0.0206  0.4830  0.1988
14452TIP3    H164847   0.722   2.635  13.634 -0.6322  0.2488 -0.2056
14452TIP3    H264848   0.764   2.507  13.563 -0.7780 -0.0614  0.2644
14453TIP3   OH264849   3.527   3.605  14.848 -0.1762  0.0013  0.6879
14453TIP3    H164850   3.531   3.695  14.881  0.2433  0.2620 -0.0551
14453TIP3    H264851   3.614   3.590  14.810 -0.6883 -0.2471 -0.4121
14454TIP3   OH264852   4.935   3.999  16.943 -0.0743  0.4667  0.2759
14454TIP3    H164853   5.022   3.961  16.935 -0.3915  0.0029 -1.0743
14454TIP3    H264854   4.948   4.075  17.001  0.8779 -0.6366  1.5664
14455TIP3   OH264855   6.455   4.155   4.563 -0.1293 -0.3493 -0.6205
14455TIP3    H164856   6.518   4.162   4.634 -0.8424 -0.7822  0.0682
14455TIP3    H264857   6.383   4.213   4.588 -0.3241 -0.3974 -1.0565
14456TIP3   OH264858   3.234   4.181  15.207 -1.0704 -0.4945  0.0225
14456TIP3    H164859   3.154   4.232  15.201 -1.8620 -1.7688 -0.8195
14456TIP3    H264860   3.212   4.097  15.167 -0.4510 -2.2802  3.0484
14457TIP3   OH264861   1.793   5.103  12.266 -0.2375  0.1206 -0.4749
14457TIP3    H164862   1.882   5.091  12.299 -0.4264 -1.6191 -0.4919
14457TIP3    H264863   1.738   5.099  12.345 -0.3059  1.7073 -0.3996
14458TIP3   OH264864   3.252   3.732  10.540  0.1890  0.0817 -0.0645
14458TIP3    H164865   3.295   3.661  10.494 -0.9499  1.0701 -2.8558
14458TIP3    H264866   3.169   3.695  10.570  1.1142 -0.6840  1.7467
14459TIP3   OH264867   2.781   4.704   0.404 -0.9380  0.1498  0.0655
14459TIP3    H164868   2.825   4.776   0.358  1.5569 -1.4859 -0.3471
14459TIP3    H264869   2.841   4.630   0.394 -1.7026 -1.0923  3.4476
14460TIP3   OH264870   2.379   6.555  12.730 -0.0868  0.0723 -0.0365
14460TIP3    H164871   2.285   6.573  12.733  0.1024  1.0386  0.6818
14460TIP3    H264872   2.415   6.604  12.805  1.0199 -0.0616 -0.4650
14461TIP3   OH264873   2.392   1.997  13.376 -0.1934  0.2203 -0.0637
14461TIP3    H164874   2.424   2.083  13.349 -0.7857  0.8331  1.0862
14461TIP3    H264875   2.464   1.958  13.425 -0.8147  1.2030  1.7114
14462TIP3   OH264876   5.911   5.806  14.884  0.1444  0.0864 -0.2869
14462TIP3    H164877   5.997   5.847  14.875  1.1066 -1.4270  1.3100
14462TIP3    H264878   5.897   5.799  14.978 -1.4016 -0.3848 -0.5215
14463TIP3   OH264879   2.600   2.737  11.534 -0.1015  0.0135  0.1809
14463TIP3    H164880   2.540   2.790  11.481 -1.2526 -1.8947 -0.5290
14463TIP3    H264881   2.637   2.674  11.473  1.5830  0.2450  0.9099
14464TIP3   OH264882   2.243   1.054  14.894 -0.1036  0.3073 -0.8907
14464TIP3    H164883   2.160   1.081  14.933  0.6723  0.0291  1.0891
14464TIP3    H264884   2.271   1.129  14.841 -1.4598  0.5041 -1.3509
14465TIP3   OH264885   4.340   2.808  14.165 -0.1427  0.4996  0.1625
14465TIP3    H164886   4.270   2.872  14.179 -1.3959 -0.6621 -0.5382
14465TIP3    H264887   4.323   2.739  14.230  0.2995  0.1579 -0.0778
14466TIP3   OH264888   2.966   6.434  11.375  0.2030 -0.3505  0.9043
14466TIP3    H164889   3.010   6.504  11.327 -0.3082 -1.4053 -1.2252
14466TIP3    H264890   2.873   6.454  11.367 -0.0312 -1.7952 -0.7470
14467TIP3   OH264891   3.574   3.722   0.088  0.1410  0.2569 -0.5252
14467TIP3    H164892   3.498   3.776   0.067  0.0760 -0.3444 -1.9306
14467TIP3    H264893   3.547   3.633   0.068  0.6989 -0.1509  0.4795
14468TIP3   OH264894   6.570   2.799  15.602  0.0138  0.0845 -0.3496
14468TIP3    H164895   6.523   2.718  15.622 -0.1942  0.8275  2.5872
14468TIP3    H264896   6.650   2.771  15.558 -1.8972 -1.3706 -3.2569
14469TIP3   OH264897   6.685   0.767   4.669  0.5843  0.2724 -0.5023
14469TIP3    H164898   6.683   0.683   4.623 -0.6855  0.6944 -1.2588
14469TIP3    H264899   6.596   0.801   4.660  0.6168  0.9140  1.2759
14470TIP3   OH264900   6.276   4.782   1.806  0.4567  0.0062 -0.3292
14470TIP3    H164901   6.247   4.867   1.773 -0.0459  0.3898  1.0072
14470TIP3    H264902   6.359   4.801   1.851  1.0136 -0.4598 -1.1324
14471TIP3   OH264903   2.690   2.906  13.951  0.1317 -0.1269  0.0145
14471TIP3    H164904   2.647   2.839  14.005 -0.5938  0.0338 -0.3427
14471TIP3    H264905   2.781   2.878  13.945  0.3409  0.1336  1.7502
14472TIP3   OH264906   4.992   1.936   0.657 -0.1140  0.3612 -0.1113
14472TIP3    H164907   4.982   2.010   0.597  2.5266  0.1718 -0.9062
14472TIP3    H264908   5.087   1.927   0.668 -0.4101 -2.0910  1.0233
14473TIP3   OH264909   1.042   4.355   2.905 -0.0964 -0.5218 -0.1224
14473TIP3    H164910   1.052   4.440   2.864  1.4566 -0.0984  1.0477
14473TIP3    H264911   0.954   4.356   2.942  0.1455  0.8293  0.4501
14474TIP3   OH264912   2.046   6.148  11.075  0.4413 -0.3776 -0.5601
14474TIP3    H164913   1.998   6.065  11.071 -0.4438  0.1023 -0.0950
14474TIP3    H264914   2.071   6.164  10.984 -0.1499 -0.7166 -0.7917
14475TIP3   OH264915   4.829   1.636   2.113  0.4839 -0.0840  0.0436
14475TIP3    H164916   4.749   1.667   2.069 -0.6112 -0.2392  1.8230
14475TIP3    H264917   4.850   1.705   2.176  2.6423  0.6357 -1.3674
14476TIP3   OH264918   0.247   5.936  12.456  0.0741  0.4945  0.1120
14476TIP3    H164919   0.219   5.940  12.548  0.6846  1.5161  0.2684
14476TIP3    H264920   0.166   5.948  12.406 -0.0508  1.6500  0.5494
14477TIP3   OH264921   3.985   1.154   3.786 -0.3428 -0.0575 -0.0349
14477TIP3    H164922   3.948   1.190   3.705  0.3206  0.5255 -0.0847
14477TIP3    H264923   4.024   1.230   3.830  0.4409 -0.5976  0.2047
14478TIP3   OH264924   1.719   2.397   6.495  0.0477  0.1184 -0.3445
14478TIP3    H164925   1.671   2.374   6.574  1.1090 -0.7265  0.0891
14478TIP3    H264926   1.804   2.354   6.506 -0.2432 -1.1649 -2.5487
14479TIP3   OH264927   2.845   2.120  17.071  0.1830 -0.3774 -0.0204
14479TIP3    H164928   2.801   2.115  17.156 -0.0836  1.0801 -0.0460
14479TIP3    H264929   2.787   2.173  17.017  1.0571 -0.0444 -0.6567
14480TIP3   OH264930   3.679   2.777  14.795  0.2020  0.7241 -1.1386
14480TIP3    H164931   3.586   2.794  14.810 -0.3205 -2.1606 -0.5161
14480TIP3    H264932   3.686   2.759  14.702 -0.1295 -0.4298 -0.9436
14481TIP3   OH264933   0.850   3.304  14.297  0.4773 -0.2202  0.5476
14481TIP3    H164934   0.844   3.299  14.392  0.7160  1.0052  0.6373
14481TIP3    H264935   0.905   3.380  14.280 -2.0431  1.4795 -0.6220
14482TIP3   OH264936   2.073   0.848  11.507  0.5066 -0.4518  0.2661
14482TIP3    H164937   2.142   0.781  11.501 -1.5265 -2.5985 -0.9385
14482TIP3    H264938   2.021   0.836  11.428 -2.0417  0.1359  1.7509
14483TIP3   OH264939   3.124   1.275  12.195 -0.2606 -0.1803 -0.3488
14483TIP3    H164940   3.043   1.298  12.240 -0.1197  1.3740 -0.8352
14483TIP3    H264941   3.150   1.355  12.149  0.7019 -1.1149 -1.5096
14484TIP3   OH264942   4.734   3.466   2.400  0.1654  0.3942  0.0728
14484TIP3    H164943   4.786   3.432   2.472  1.5009  1.9224 -0.1247
14484TIP3    H264944   4.669   3.524   2.442  0.1541  0.3337  0.1385
14485TIP3   OH264945   0.834   3.308   2.247 -0.4272 -0.5412  0.4094
14485TIP3    H164946   0.845   3.306   2.342 -0.8434  3.4499  0.6746
14485TIP3    H264947   0.742   3.284   2.233 -0.3048 -1.3684  0.9578
14486TIP3   OH264948   2.299   6.074   1.398  0.1497  0.8930  0.5261
14486TIP3    H164949   2.359   6.000   1.397 -0.8544  0.0673 -0.3691
14486TIP3    H264950   2.268   6.078   1.489 -0.6848 -0.5593  0.3357
14487TIP3   OH264951   6.438   6.659   2.545 -0.3394  0.3475 -0.4120
14487TIP3    H164952   6.474   6.605   2.615  0.1132  0.5569 -0.4775
14487TIP3    H264953   6.345   6.668   2.566  0.1876  2.4371  1.5281
14488TIP3   OH264954   4.305   4.780   1.466 -0.0245  0.7919 -0.6479
14488TIP3    H164955   4.220   4.817   1.490  0.1775 -0.5020  2.5772
14488TIP3    H264956   4.363   4.856   1.459 -0.8693  1.5064 -0.1191
14489TIP3   OH264957   5.559   6.532  11.208  0.0624  0.3144 -0.0330
14489TIP3    H164958   5.577   6.626  11.197 -0.1485  0.3258 -0.2909
14489TIP3    H264959   5.468   6.522  11.180 -0.1986  0.1833  0.8436
14490TIP3   OH264960   5.961   5.888  15.590 -0.1478 -0.1980  0.2067
14490TIP3    H164961   6.055   5.875  15.586 -0.0815  0.2429  0.2887
14490TIP3    H264962   5.942   5.894  15.684 -0.3877 -1.1993  0.2328
14491TIP3   OH264963   1.538   0.242   3.149 -0.4362  0.1357 -0.1682
14491TIP3    H164964   1.544   0.334   3.122 -2.1953  0.2144 -0.4684
14491TIP3    H264965   1.536   0.245   3.244 -0.7820  0.4570 -0.1810
14492TIP3   OH264966   6.717   2.604  11.488  0.0281  0.2952  0.4294
14492TIP3    H164967   6.767   2.649  11.419 -1.9626 -0.1921 -1.4419
14492TIP3    H264968   6.735   2.654  11.567  2.3763  0.9245 -0.3993
14493TIP3   OH264969   6.350   5.533  14.562  0.8573  0.6513 -0.1173
14493TIP3    H164970   6.311   5.506  14.478  0.6250 -0.1727  0.2413
14493TIP3    H264971   6.444   5.523  14.548  1.1314  3.8304 -1.3970
14494TIP3   OH264972   2.396   3.354  15.341 -0.6151 -0.1681  0.0502
14494TIP3    H164973   2.440   3.344  15.256 -0.3094  0.2514  0.1599
14494TIP3    H264974   2.303   3.364  15.318 -0.6118 -0.7009 -0.1988
14495TIP3   OH264975   0.487   3.550  13.050  0.7625 -0.3207 -0.1080
14495TIP3    H164976   0.454   3.638  13.034  1.9361 -0.0673 -1.3909
14495TIP3    H264977   0.457   3.499  12.974  2.2243 -0.3652 -0.6885
14496TIP3   OH264978   6.535   3.895   5.772 -0.2209  0.0480  0.1220
14496TIP3    H164979   6.464   3.878   5.834 -0.9762  0.9433 -0.4737
14496TIP3    H264980   6.510   3.976   5.728  0.3159 -0.5385 -1.3284
14497TIP3   OH264981   4.721   3.106   4.026 -0.2063 -0.1029  0.0601
14497TIP3    H164982   4.715   3.181   3.966  0.9762 -1.6930 -2.2295
14497TIP3    H264983   4.812   3.077   4.017 -0.5719 -1.6394  1.0954
14498TIP3   OH264984   5.894   6.453  11.980 -0.4454 -0.6827  0.2570
14498TIP3    H164985   5.972   6.398  11.980 -1.4569 -2.1785 -0.3128
14498TIP3    H264986   5.834   6.411  12.041 -1.4017 -0.4660 -0.5077
14499TIP3   OH264987   4.042   6.185  17.059 -0.4036  0.2874 -0.0802
14499TIP3    H164988   3.966   6.196  17.002 -1.4789 -2.0378  0.7680
14499TIP3    H264989   4.006   6.157  17.143  1.3827 -1.1812  0.2774
14500TIP3   OH264990   4.023   2.440   0.819  0.1537  0.3694  0.2170
14500TIP3    H164991   3.972   2.360   0.833 -0.6793  1.2448  2.9645
14500TIP3    H264992   3.960   2.504   0.785  0.6053  0.1604 -1.0764
14501TIP3   OH264993   3.662   5.869   3.300 -0.3569 -0.2128  0.2812
14501TIP3    H164994   3.567   5.865   3.313 -0.4713 -1.1960 -0.7179
14501TIP3    H264995   3.696   5.901   3.383 -1.6698  1.6494  0.1767
14502TIP3   OH264996   1.971   6.422  13.213  0.0024  0.2155  0.3615
14502TIP3    H164997   2.056   6.432  13.170 -0.0059  0.1041  0.3186
14502TIP3    H264998   1.915   6.486  13.170  0.2760  0.8684  0.9458
14503TIP3   OH264999   5.749   5.626   0.210  0.0541  0.2939 -0.2245
14503TIP3    H165000   5.763   5.542   0.167 -1.3123 -0.1312  0.0915
14503TIP3    H265001   5.837   5.659   0.228  0.6230 -1.2013 -0.1037
14504TIP3   OH265002   0.395   5.689   2.307  0.2877  0.5532  0.0354
14504TIP3    H165003   0.438   5.704   2.391 -1.3587  1.9579  0.6938
14504TIP3    H265004   0.462   5.647   2.252  1.2931 -0.7610  2.1361
14505TIP3   OH265005   3.371   1.924   3.609 -0.1304  0.4921  0.3508
14505TIP3    H165006   3.348   1.878   3.690 -2.2017  0.6520 -0.0782
14505TIP3    H265007   3.422   1.861   3.559  0.3070  0.0334  1.3459
14506TIP3   OH265008   5.046   1.987   5.973 -0.4194 -0.1076 -0.3395
14506TIP3    H165009   5.095   1.996   5.891 -0.7634 -2.0915 -0.8181
14506TIP3    H265010   4.960   2.023   5.953  0.9684  4.6752  0.8914
14507TIP3   OH265011   3.231   6.466   2.567 -0.6583  0.0947  0.1773
14507TIP3    H165012   3.168   6.401   2.538 -0.2897 -0.9588  1.6019
14507TIP3    H265013   3.290   6.477   2.492 -0.7528 -1.1939 -0.1232
14508TIP3   OH265014   1.924   1.325   1.557  0.4830 -0.1814  0.0414
14508TIP3    H165015   1.850   1.265   1.557  0.7883 -0.6080 -1.5883
14508TIP3    H265016   1.924   1.364   1.469  0.1396  2.4476  1.1072
14509TIP3   OH265017   3.118   5.068   5.196  0.2025  0.4274 -0.2493
14509TIP3    H165018   3.169   5.141   5.233 -0.5007  1.0594 -0.4907
14509TIP3    H265019   3.027   5.089   5.220  0.0676 -0.7645  0.3206
14510TIP3   OH265020   3.917   0.947   0.624  0.1515  0.0823 -0.5340
14510TIP3    H165021   3.938   0.942   0.531  1.1432 -0.3639 -0.3021
14510TIP3    H265022   3.852   1.016   0.631 -0.1014 -0.0401 -1.5859
14511TIP3   OH265023   2.990   1.049  12.767  0.0753  0.5151  0.1169
14511TIP3    H165024   3.051   1.051  12.693  1.2211  1.7620  1.0251
14511TIP3    H265025   2.912   1.095  12.735 -0.1058 -0.3949 -0.8101
14512TIP3   OH265026   1.118   2.602  13.182  0.2553 -0.5771  0.3770
14512TIP3    H165027   1.183   2.630  13.247  2.2016 -1.2326 -1.1693
14512TIP3    H265028   1.170   2.581  13.104 -1.8621 -0.9927 -1.0084
14513TIP3   OH265029   0.302   5.287  16.990 -0.0693  0.3451 -0.2750
14513TIP3    H165030   0.340   5.348  17.052  0.2146 -0.0564 -0.0486
14513TIP3    H265031   0.240   5.235  17.042 -0.8714  0.9404 -0.6217
14514TIP3   OH265032   1.735   0.045   3.173  0.0407 -0.1521  0.0376
14514TIP3    H165033   1.737   0.011   3.083 -1.3568 -0.7342  0.2028
14514TIP3    H265034   1.709   0.136   3.164  2.2855  0.5354 -0.2890
14515TIP3   OH265035   1.415   4.027  12.688 -0.8172 -0.0697  0.1101
14515TIP3    H165036   1.326   4.060  12.676 -0.0951  1.3375 -1.9683
14515TIP3    H265037   1.466   4.070  12.619  1.4753 -0.8782  1.2002
14516TIP3   OH265038   0.135   4.033   3.010 -0.5225 -0.1145 -0.7625
14516TIP3    H165039   0.147   4.094   3.083  1.9804 -1.0488 -0.2924
14516TIP3    H265040   0.103   4.088   2.938 -0.3206  1.3711  0.2359
14517TIP3   OH265041   5.941   0.631  13.023 -0.0566  0.2248  0.1939
14517TIP3    H165042   5.883   0.670  13.088  2.2268  0.2841  2.3597
14517TIP3    H265043   5.918   0.538  13.023  0.0233  0.1884  1.2784
14518TIP3   OH265044   6.373   5.776  15.887 -0.2681 -0.0133 -0.2392
14518TIP3    H165045   6.395   5.715  15.957 -0.8041 -0.5832 -0.5682
14518TIP3    H265046   6.282   5.758  15.866  0.1887 -0.6385 -1.8569
14519TIP3   OH265047   6.231   4.447  12.357  0.1959 -0.8164 -0.7374
14519TIP3    H165048   6.284   4.518  12.321 -2.1275  1.7631  0.4349
14519TIP3    H265049   6.246   4.452  12.452  0.3239 -2.1908 -0.6788
14520TIP3   OH265050   0.540   3.335   5.676 -0.4008 -0.0247  0.6173
14520TIP3    H165051   0.613   3.396   5.669 -1.5121  1.3875  0.7868
14520TIP3    H265052   0.577   3.250   5.652  1.4249  0.5282  1.3219
14521TIP3   OH265053   2.843   6.150   3.331  0.2646  0.3951  0.4750
14521TIP3    H165054   2.919   6.168   3.386  1.8530 -0.2419 -1.4109
14521TIP3    H265055   2.828   6.232   3.283 -1.2000  0.9922  1.8374
14522TIP3   OH265056   1.900   2.553   5.787 -0.0648  0.0977  0.8553
14522TIP3    H165057   1.948   2.597   5.717  0.0443  1.4219  1.7132
14522TIP3    H265058   1.824   2.610   5.803 -0.6634 -0.7481  1.1008
14523TIP3   OH265059   3.038   5.682   6.704  0.1370  0.0743  0.3011
14523TIP3    H165060   3.065   5.660   6.794  0.5502 -0.0138  0.1602
14523TIP3    H265061   2.960   5.629   6.689  0.9949 -1.1650  0.0399
14524TIP3   OH265062   2.519   6.823   1.224 -0.4608  0.1647 -0.3411
14524TIP3    H165063   2.543   6.889   1.159 -0.8983  1.5647  0.8808
14524TIP3    H265064   2.589   6.826   1.289 -0.2606 -0.8991 -0.4930
14525TIP3   OH265065   2.485   3.531   3.029  0.3729 -0.0168 -0.0407
14525TIP3    H165066   2.398   3.537   2.989  1.4535  2.4440 -2.3793
14525TIP3    H265067   2.488   3.444   3.069 -3.1022 -0.2028  0.0973
14526TIP3   OH265068   4.486   2.095   5.882  0.1630  0.4884 -0.2545
14526TIP3    H165069   4.531   2.014   5.862  0.3642  0.9058 -1.5985
14526TIP3    H265070   4.551   2.163   5.868 -0.7796  1.0909 -2.1176
14527TIP3   OH265071   3.328   3.676   3.085 -0.1925  0.1576  0.1814
14527TIP3    H165072   3.347   3.767   3.064  0.7003 -0.8110 -4.0226
14527TIP3    H265073   3.413   3.636   3.103  0.0290 -0.6509 -2.2828
14528TIP3   OH265074   6.642   2.829   4.626  0.0834  0.3036 -0.2785
14528TIP3    H165075   6.667   2.866   4.711  0.3741  1.5540 -0.8834
14528TIP3    H265076   6.718   2.775   4.601 -0.1494 -0.3589  0.3991
14529TIP3   OH265077   1.017   5.579  12.968  0.6912  0.6105  0.0999
14529TIP3    H165078   1.105   5.615  12.976  0.7954  0.5236 -0.6094
14529TIP3    H265079   1.030   5.484  12.967  0.4834  0.5548  1.1657
14530TIP3   OH265080   1.277   3.407  12.340 -0.3993  0.3032  0.1640
14530TIP3    H165081   1.301   3.341  12.405  0.7382 -0.0599 -0.5857
14530TIP3    H265082   1.292   3.365  12.256 -1.3936  0.9274 -0.3452
14531TIP3   OH265083   6.042   3.131  15.752 -0.3897 -0.8177  0.2931
14531TIP3    H165084   6.020   3.171  15.667  1.2083 -1.0048 -0.2427
14531TIP3    H265085   6.085   3.202  15.800 -0.1260 -1.0711  0.4339
14532TIP3   OH265086   5.318   3.860  15.657 -0.0785 -0.0896  0.1615
14532TIP3    H165087   5.383   3.793  15.678 -1.2078 -0.9976  0.8944
14532TIP3    H265088   5.319   3.865  15.561 -0.2465 -1.4564  0.0642
14533TIP3   OH265089   3.578   0.607  15.013 -0.8832 -0.1194 -0.4625
14533TIP3    H165090   3.521   0.627  14.938 -1.8850  1.3314  0.6269
14533TIP3    H265091   3.665   0.635  14.984 -1.3489  0.9405 -0.9107
14534TIP3   OH265092   3.074   6.821  16.791  0.4047  0.3946 -0.1214
14534TIP3    H165093   2.988   6.860  16.801  0.2796 -0.3319  2.4617
14534TIP3    H265094   3.057   6.727  16.778  0.8050  0.3851 -0.6344
14535TIP3   OH265095   2.278   4.883  13.683  0.4005  0.0543  0.2070
14535TIP3    H165096   2.309   4.813  13.741  1.6666  0.8142  0.4881
14535TIP3    H265097   2.254   4.954  13.743 -2.3049 -0.5956  0.0316
14536TIP3   OH265098   3.382   1.547  17.013 -0.4321  0.1286  0.2898
14536TIP3    H165099   3.313   1.481  17.017  0.7387 -1.1762 -0.0963
14536TIP3    H265100   3.391   1.578  17.103 -0.2339 -1.0954  0.7185
14537TIP3   OH265101   2.668   1.703   2.936 -0.5326 -0.2573 -0.4161
14537TIP3    H165102   2.591   1.754   2.961  0.1011  0.0508  1.0100
14537TIP3    H265103   2.682   1.724   2.844  0.6104  3.4238  0.4572
14538TIP3   OH265104   1.010   6.585   2.217 -0.5186 -0.1450  0.7425
14538TIP3    H165105   1.042   6.581   2.127 -1.2576 -0.4638  0.4844
14538TIP3    H265106   0.969   6.672   2.224 -1.6449 -0.6253  0.3457
14539TIP3   OH265107   4.201   3.607   4.296  0.2420 -0.0974  0.2829
14539TIP3    H165108   4.269   3.621   4.363  0.9091 -1.1425 -0.1446
14539TIP3    H265109   4.146   3.537   4.332 -0.1146  0.1743  0.2650
14540TIP3   OH265110   0.209   5.451  10.927  0.1466  0.2520  0.1991
14540TIP3    H165111   0.143   5.432  10.994 -0.1952 -0.2260 -0.2652
14540TIP3    H265112   0.253   5.367  10.913 -1.6205 -0.3887 -2.1498
14541TIP3   OH265113   6.723   1.665  17.088  0.1935 -0.6398 -0.1746
14541TIP3    H165114   6.748   1.736  17.029 -0.1530 -0.6130 -0.2933
14541TIP3    H265115   6.728   1.586  17.034 -0.3855 -0.5826 -0.3187
14542TIP3   OH265116   0.750   0.387  16.774 -0.0273  0.3023 -0.4696
14542TIP3    H165117   0.814   0.317  16.766  1.7470  1.8396 -0.4039
14542TIP3    H265118   0.802   0.468  16.772 -2.0399  1.6600 -1.2273
14543TIP3   OH265119   1.296   2.156  11.936  0.3138  0.0368 -0.5690
14543TIP3    H165120   1.275   2.250  11.937  2.0799  0.4623  0.1589
14543TIP3    H265121   1.379   2.150  11.889  1.3555 -0.8630  1.2670
14544TIP3   OH265122   3.906   2.626   0.276 -0.0164  0.1987  0.5740
14544TIP3    H165123   3.979   2.633   0.337  0.6116  0.4276 -0.1878
14544TIP3    H265124   3.903   2.534   0.251  0.0109  0.1915  0.5982
14545TIP3   OH265125   1.740   4.765   4.061  0.0393  0.2110  0.8978
14545TIP3    H165126   1.787   4.846   4.079 -1.5793  1.1140  1.2668
14545TIP3    H265127   1.647   4.789   4.063 -0.5520 -1.8343  2.0728
14546TIP3   OH265128   4.811   1.207   3.013 -0.1570 -0.3382  0.0370
14546TIP3    H165129   4.774   1.294   3.031 -0.5663 -0.6653  0.8156
14546TIP3    H265130   4.826   1.207   2.919 -0.8546  0.3158 -0.0893
14547TIP3   OH265131   4.225   6.486   1.335  0.3354  0.7121 -0.1959
14547TIP3    H165132   4.213   6.495   1.241 -1.2715 -0.8436 -0.1839
14547TIP3    H265133   4.163   6.548   1.374 -0.8850 -0.4834 -0.1798
14548TIP3   OH265134   3.522   4.312   0.350 -0.3882  0.0635  0.5691
14548TIP3    H165135   3.456   4.243   0.341  0.7149 -1.1832  1.5671
14548TIP3    H265136   3.597   4.281   0.300 -0.7089  1.7867 -1.1327
14549TIP3   OH265137   6.600   1.340  12.448  0.2196  0.2924 -0.1527
14549TIP3    H165138   6.528   1.398  12.422 -0.7698 -0.1640  1.4582
14549TIP3    H265139   6.672   1.399  12.472 -0.0648  0.7860 -0.5104
14550TIP3   OH265140   4.937   2.730  11.282 -0.1686  0.2199 -0.3107
14550TIP3    H165141   5.023   2.762  11.252 -0.6232  1.4937 -0.3237
14550TIP3    H265142   4.884   2.809  11.291 -0.8484 -0.3806  1.3293
14551TIP3   OH265143   0.066   1.049  13.877  0.2162 -0.1954  0.5162
14551TIP3    H165144   0.121   1.014  13.946  0.0785  0.1994  0.8304
14551TIP3    H265145  -0.017   1.003  13.886  0.5435 -0.9079 -0.0607
14552TIP3   OH265146   1.862   2.715   1.696  0.6882  0.0049 -0.1455
14552TIP3    H165147   1.928   2.657   1.734  0.1813 -1.5685 -1.5176
14552TIP3    H265148   1.902   2.746   1.614  1.0005  1.7499  0.6346
14553TIP3   OH265149   6.643   4.794   3.112 -0.1324  0.2297  0.2719
14553TIP3    H165150   6.641   4.754   3.025 -4.0307 -0.0943  0.3393
14553TIP3    H265151   6.678   4.726   3.169 -0.7603 -0.8261 -0.5630
14554TIP3   OH265152   0.129   5.638  12.140 -0.1058 -0.0048  0.0635
14554TIP3    H165153   0.113   5.732  12.143  1.6910  0.3912 -1.2817
14554TIP3    H265154   0.105   5.607  12.227  0.1910  1.8538  0.8468
14555TIP3   OH265155   4.399   4.389   0.034 -1.2316  0.2159 -0.0418
14555TIP3    H165156   4.430   4.392   0.124 -1.4715 -0.1855  0.0543
14555TIP3    H265157   4.323   4.448   0.033 -0.4438  1.2691 -0.2981
14556TIP3   OH265158   1.962   1.909  12.371  0.1071 -0.1523  0.1366
14556TIP3    H165159   1.868   1.922  12.381  0.1540 -0.6829  1.5690
14556TIP3    H265160   1.980   1.826  12.415  0.9797 -1.0770 -1.8253
14557TIP3   OH265161   4.172   1.458   0.640 -0.2239 -0.2106  0.0760
14557TIP3    H165162   4.223   1.521   0.589 -3.2833  0.3456 -2.6713
14557TIP3    H265163   4.207   1.372   0.616 -0.5682  0.1485 -1.8748
14558TIP3   OH265164   6.328   5.336  15.586  0.4411 -0.4112  0.0930
14558TIP3    H165165   6.234   5.324  15.600  0.6370 -0.3797  1.5911
14558TIP3    H265166   6.334   5.384  15.504 -0.7721 -1.7849 -0.8433
14559TIP3   OH265167   3.663   2.013   2.187 -0.2529  0.3923 -1.1450
14559TIP3    H165168   3.614   2.042   2.264 -4.7016 -1.9407 -2.7404
14559TIP3    H265169   3.671   2.091   2.132  0.8118  1.5201  0.5177
14560TIP3   OH265170   2.568   0.620   1.473 -0.0445 -0.4468 -0.4343
14560TIP3    H165171   2.640   0.558   1.466  0.1640 -0.2423 -0.1274
14560TIP3    H265172   2.568   0.667   1.389 -1.7034 -2.4471 -1.6696
14561TIP3   OH265173   3.495   4.884   3.114  0.0540  0.3141 -0.1719
14561TIP3    H165174   3.444   4.844   3.043  0.4993 -2.8879  1.1301
14561TIP3    H265175   3.586   4.868   3.090  0.2524  0.6138  0.3590
14562TIP3   OH265176   3.435   5.355   3.221  0.2614 -0.4796 -0.0039
14562TIP3    H165177   3.401   5.396   3.142 -2.0782 -0.2931  1.0358
14562TIP3    H265178   3.471   5.271   3.191  0.8138  0.2425 -1.4445
14563TIP3   OH265179   2.044   1.605   3.512  0.4335  0.6363 -0.3946
14563TIP3    H165180   2.130   1.615   3.555  0.2217  2.8378 -0.3446
14563TIP3    H265181   2.001   1.690   3.525 -2.3651 -0.8298  0.8100
14564TIP3   OH265182   3.736   5.175  13.422  0.5986 -0.0108 -0.2071
14564TIP3    H165183   3.759   5.083  13.410  0.4867 -0.0668 -0.0018
14564TIP3    H265184   3.813   5.223  13.392  1.0732 -0.2034  0.6643
14565TIP3   OH265185   1.040   2.743   1.771 -0.1662  0.6922 -0.6190
14565TIP3    H165186   1.131   2.743   1.740  0.6212  0.4766  1.5215
14565TIP3    H265187   1.018   2.836   1.780  0.8340  0.7979  1.3699
14566TIP3   OH265188   3.018   2.573  12.497 -0.2878  0.0513 -0.0637
14566TIP3    H165189   2.964   2.597  12.422  0.4828 -0.9188 -0.9598
14566TIP3    H265190   3.071   2.651  12.515 -0.3695  0.2384 -0.6263
14567TIP3   OH265191   3.935   4.751   0.578 -0.5829  0.1991 -0.0220
14567TIP3    H165192   3.930   4.831   0.631 -1.2260 -0.2990  0.6932
14567TIP3    H265193   4.000   4.771   0.510  0.3257  0.8391  0.9920
14568TIP3   OH265194   5.444   0.408   0.595 -0.3223 -0.1676  0.3901
14568TIP3    H165195   5.434   0.358   0.514 -0.6503  1.9486 -0.9489
14568TIP3    H265196   5.505   0.355   0.647 -0.4935 -1.8459 -0.9947
14569TIP3   OH265197   6.021   6.248   0.373 -0.7406  0.2171  0.2850
14569TIP3    H165198   6.107   6.289   0.370 -0.5911 -0.0963  0.2170
14569TIP3    H265199   6.019   6.203   0.457 -0.9236  0.4052  0.3817
14570TIP3   OH265200   4.992   5.176   4.463  0.1385 -0.1368 -0.0031
14570TIP3    H165201   4.981   5.178   4.558  3.7266  1.2887  0.5547
14570TIP3    H265202   5.002   5.083   4.441 -0.8068 -0.4836  0.9642
14571TIP3   OH265203   2.346   4.331   2.135  0.1360  0.4306 -0.4173
14571TIP3    H165204   2.380   4.348   2.223  0.5318  1.5527 -0.7704
14571TIP3    H265205   2.356   4.414   2.089  0.0581 -0.1807 -1.5731
14572TIP3   OH265206   3.240   2.482   6.705  0.5358  0.2215 -0.0342
14572TIP3    H165207   3.288   2.399   6.708  1.3266  0.6555 -0.4914
14572TIP3    H265208   3.162   2.462   6.653  1.1062 -0.0581 -0.8150
14573TIP3   OH265209   1.225   3.730  14.056  0.5451 -0.1620 -0.3279
14573TIP3    H165210   1.269   3.781  14.124  1.0140  0.8519 -1.3622
14573TIP3    H265211   1.295   3.702  13.997  0.0925 -0.6462 -0.6505
14574TIP3   OH265212   5.631   3.412  10.498  0.1737 -0.1437  0.1188
14574TIP3    H165213   5.631   3.320  10.526 -0.9446 -0.3762 -0.5846
14574TIP3    H265214   5.723   3.440  10.508  0.6780 -1.5463 -0.3547
14575TIP3   OH265215   1.269   5.554  16.791  0.3674  0.3265 -0.7333
14575TIP3    H165216   1.237   5.499  16.863  2.7277  0.1676  0.2800
14575TIP3    H265217   1.195   5.611  16.771 -0.2038  0.9034  2.3690
14576TIP3   OH265218   0.412   3.299  14.731 -0.0799  0.0343 -0.3529
14576TIP3    H165219   0.467   3.377  14.725 -0.3758  0.2905  0.1959
14576TIP3    H265220   0.351   3.318  14.802 -0.1955 -0.6694 -0.2549
14577TIP3   OH265221   6.318   1.958  12.010  0.5858  0.0853 -0.2038
14577TIP3    H165222   6.260   1.984  12.082  1.6389 -0.0643  0.7267
14577TIP3    H265223   6.267   1.895  11.960  0.1416 -0.5154  0.9583
14578TIP3   OH265224   3.561   5.196   5.601 -0.3921  0.2080  0.6847
14578TIP3    H165225   3.586   5.214   5.511  1.7478  0.4946  1.2771
14578TIP3    H265226   3.590   5.106   5.617 -4.2742 -1.3504  0.0000
14579TIP3   OH265227   6.097   1.938  11.680  0.9374  0.1277 -1.0735
14579TIP3    H165228   6.089   1.870  11.613  1.4695 -0.5581 -0.4535
14579TIP3    H265229   6.181   1.980  11.661  0.3440  1.0248 -1.8142
14580TIP3   OH265230   3.913   1.208   2.398  0.3218  0.5836 -0.3683
14580TIP3    H165231   3.870   1.158   2.328 -0.0679  0.5570 -0.1102
14580TIP3    H265232   3.946   1.286   2.353 -1.9429  1.7338 -0.2062
14581TIP3   OH265233   3.596   0.220  16.437  0.2796  0.1899 -0.4934
14581TIP3    H165234   3.635   0.280  16.500  0.9744  0.0907 -0.8186
14581TIP3    H265235   3.507   0.206  16.469  0.3596  0.7826  0.0092
14582TIP3   OH265236   0.951   3.406   1.648  0.0688 -0.0354 -0.0621
14582TIP3    H165237   1.025   3.445   1.693  0.4269 -2.7095  1.8761
14582TIP3    H265238   0.884   3.396   1.715 -0.4968 -1.4321 -0.7915
14583TIP3   OH265239   5.158   3.432   1.940  0.0693 -0.2673 -0.2174
14583TIP3    H165240   5.084   3.422   1.881 -0.9811  1.5495  0.7276
14583TIP3    H265241   5.216   3.494   1.896  0.3938 -0.6604 -0.3516
14584TIP3   OH265242   2.736   6.442  15.735 -0.2338  0.0968 -0.2363
14584TIP3    H165243   2.689   6.387  15.672 -0.1121  2.2548 -2.3475
14584TIP3    H265244   2.824   6.404  15.738 -0.8887 -1.4757  0.5672
14585TIP3   OH265245   4.125   0.278   1.411  0.3091  0.0419 -0.6898
14585TIP3    H165246   4.088   0.349   1.465 -0.0362  0.3867 -1.3601
14585TIP3    H265247   4.162   0.323   1.335 -0.2014 -0.5127 -1.2847
14586TIP3   OH265248   0.189   3.775  13.461  0.0087  0.1425 -0.0974
14586TIP3    H165249   0.262   3.782  13.400  0.6636  2.3977  0.8476
14586TIP3    H265250   0.164   3.682  13.458  1.7330 -0.3300 -1.7492
14587TIP3   OH265251   5.303   5.803   4.061  0.2554 -0.6335  0.1525
14587TIP3    H165252   5.281   5.791   4.154 -0.4900 -1.8414 -0.1635
14587TIP3    H265253   5.396   5.782   4.056  0.3200 -0.4857  0.6275
14588TIP3   OH265254   1.736   3.720   2.760 -0.5547 -0.0584 -0.2284
14588TIP3    H165255   1.796   3.653   2.727 -1.6509 -0.9796 -0.4243
14588TIP3    H265256   1.748   3.719   2.854  1.3142  1.3410 -0.3887
14589TIP3   OH265257   5.591   4.861  12.610 -0.1505 -0.1930  0.0514
14589TIP3    H165258   5.501   4.875  12.580  0.2915  0.6143 -0.9303
14589TIP3    H265259   5.621   4.947  12.639  0.0948 -0.5848  1.0129
14590TIP3   OH265260   1.003   4.245   6.025  0.1519 -0.5106 -0.0541
14590TIP3    H165261   0.930   4.216   6.080 -0.6469  0.7049 -0.4345
14590TIP3    H265262   1.072   4.268   6.088 -0.9570  1.4509  0.5571
14591TIP3   OH265263   0.552   2.901  15.721  0.3442 -0.2566  0.1985
14591TIP3    H165264   0.524   2.898  15.813  1.8335  5.3192  1.1864
14591TIP3    H265265   0.470   2.911  15.672 -0.3221 -0.7689  1.1520
14592TIP3   OH265266   3.157   3.789   5.746  0.3145 -0.3455  0.1364
14592TIP3    H165267   3.189   3.759   5.831 -0.9540 -2.2754 -0.0039
14592TIP3    H265268   3.146   3.709   5.695 -0.9145  0.5922 -1.1437
14593TIP3   OH265269   3.959   2.848  12.591 -0.2357  0.1464 -0.9860
14593TIP3    H165270   3.949   2.926  12.646  1.8210 -0.3720  0.2576
14593TIP3    H265271   3.934   2.775  12.648 -1.6418 -0.1682 -1.9712
14594TIP3   OH265272   0.641   6.403  15.901  0.4072 -0.2522 -0.6911
14594TIP3    H165273   0.586   6.333  15.936 -0.8320  0.1538 -1.7477
14594TIP3    H265274   0.706   6.420  15.970 -0.0289 -1.5797  0.0811
14595TIP3   OH265275   0.501   6.369   6.145  0.3860  0.5640  0.1144
14595TIP3    H165276   0.565   6.316   6.098 -0.1050  0.1109 -0.0515
14595TIP3    H265277   0.553   6.438   6.187  0.9168  0.5293 -0.4692
14596TIP3   OH265278   2.091   3.856   2.374 -0.5593 -0.2766 -0.7053
14596TIP3    H165279   2.044   3.852   2.458 -0.8103  0.7062 -0.7891
14596TIP3    H265280   2.032   3.903   2.316 -0.4661 -1.1316 -1.5050
14597TIP3   OH265281   3.164   3.039   2.965 -0.5762  0.0018 -0.0185
14597TIP3    H165282   3.172   2.975   2.895  0.5793 -0.0524  0.1360
14597TIP3    H265283   3.181   2.989   3.046 -0.4229  0.3429  0.1638
14598TIP3   OH265284   6.757   0.107  13.746  0.3577 -0.2137  0.2572
14598TIP3    H165285   6.806   0.048  13.804  2.4659  1.1323 -0.0658
14598TIP3    H265286   6.749   0.188  13.795  1.5804  0.7263 -1.0131
14599TIP3   OH265287   2.799   2.823   1.777 -0.1348 -0.0593  0.7033
14599TIP3    H165288   2.850   2.786   1.848  1.2896 -0.0711 -0.2815
14599TIP3    H265289   2.782   2.749   1.718 -1.2380 -0.0354  0.9567
14600TIP3   OH265290   1.173   3.179   0.282 -0.2770 -0.3288  0.8878
14600TIP3    H165291   1.232   3.106   0.267 -0.3875 -0.4384  0.9809
14600TIP3    H265292   1.217   3.232   0.349  1.3954  1.4824 -1.4904
14601TIP3   OH265293   6.572   0.891   5.425 -0.0766 -0.0837  0.0628
14601TIP3    H165294   6.489   0.888   5.471 -0.0887 -1.0765  0.0097
14601TIP3    H265295   6.620   0.963   5.465 -0.3520 -0.4960  1.1710
14602TIP3   OH265296   0.350   5.526  15.526  0.6097  0.5270  0.0189
14602TIP3    H165297   0.287   5.592  15.555 -0.4465 -0.5099  0.1629
14602TIP3    H265298   0.432   5.549  15.570  0.3478  1.8973 -0.1586
14603TIP3   OH265299   3.811   4.864  12.107  0.5956  0.6187  0.3593
14603TIP3    H165300   3.899   4.900  12.109 -0.3624  3.0926  0.8949
14603TIP3    H265301   3.761   4.925  12.054 -0.4489 -1.7572 -1.6059
14604TIP3   OH265302   6.733   1.447  13.545 -0.4743 -0.2980 -0.3658
14604TIP3    H165303   6.740   1.356  13.576  0.6838 -0.2124 -0.3381
14604TIP3    H265304   6.821   1.469  13.515 -0.2348  1.4239  1.3572
14605TIP3   OH265305   4.162   4.503  14.049 -0.8867  0.5988  0.5398
14605TIP3    H165306   4.195   4.505  14.139 -1.0791  0.3701  0.6175
14605TIP3    H265307   4.239   4.519  13.995 -0.8488  1.2025  0.7600
14606TIP3   OH265308   6.629   2.070  16.121 -0.8196  0.5527 -0.0123
14606TIP3    H165309   6.616   2.007  16.192  0.9846  1.0044  0.7656
14606TIP3    H265310   6.601   2.024  16.042 -1.7037 -0.3891  0.8191
14607TIP3   OH265311   0.067   3.880   3.920  0.9081  0.4349 -0.4613
14607TIP3    H165312   0.071   3.838   4.006  0.4651  0.6287 -0.3413
14607TIP3    H265313   0.152   3.861   3.880  0.7063 -0.5730 -0.4194
14608TIP3   OH265314   3.957   5.714  13.619  0.1508 -0.0651  0.0969
14608TIP3    H165315   3.874   5.693  13.575  0.0094  1.7761 -0.6366
14608TIP3    H265316   4.023   5.705  13.550  0.1865  1.0158 -0.0235
14609TIP3   OH265317   3.953   1.499   0.091  0.1452 -0.4589  0.2427
14609TIP3    H165318   3.954   1.482   0.185 -0.9419 -0.1551  0.3216
14609TIP3    H265319   4.010   1.575   0.080 -1.6563  1.0943  1.0227
14610TIP3   OH265320   1.558   5.802  11.814 -0.0822 -0.3134  0.2508
14610TIP3    H165321   1.640   5.829  11.855 -0.2476 -2.0141  1.8683
14610TIP3    H265322   1.490   5.852  11.859 -0.1279 -0.9799  0.9504
14611TIP3   OH265323   5.160   2.067  10.617  0.0348 -0.5073  0.0845
14611TIP3    H165324   5.248   2.030  10.623  0.6665  1.0712  1.0670
14611TIP3    H265325   5.149   2.089  10.525  1.5029  1.1922  0.2772
14612TIP3   OH265326   2.537   3.903   3.334  0.4210  0.8095 -0.5660
14612TIP3    H165327   2.513   3.810   3.329 -0.4089  1.0028 -0.3581
14612TIP3    H265328   2.617   3.904   3.387  0.2730  0.2310 -0.3194
14613TIP3   OH265329   4.680   0.493   2.273 -0.3485  0.0146  0.3722
14613TIP3    H165330   4.735   0.544   2.333 -0.4673  2.2204 -1.2497
14613TIP3    H265331   4.738   0.425   2.239  1.4383  2.0870 -1.0454
14614TIP3   OH265332   4.632   5.117  13.658  0.2230  0.2313 -0.0820
14614TIP3    H165333   4.718   5.096  13.695  0.1267  2.0678  1.2797
14614TIP3    H265334   4.649   5.187  13.595 -0.4219  1.8857  1.4886
14615TIP3   OH265335   2.540   5.554  12.062  0.1621  0.4896 -0.6597
14615TIP3    H165336   2.610   5.492  12.082 -0.0195  0.4793 -0.0335
14615TIP3    H265337   2.567   5.595  11.980  0.8090  0.3490 -0.5216
14616TIP3   OH265338   4.166   3.316  15.014 -0.2081 -0.3763 -0.1384
14616TIP3    H165339   4.165   3.398  15.064 -0.8938  0.2972 -1.2233
14616TIP3    H265340   4.117   3.336  14.935 -0.2327 -1.8013 -0.5000
14617TIP3   OH265341   3.706   5.710   6.347 -0.1069  0.4729  0.3882
14617TIP3    H165342   3.723   5.643   6.412 -1.5180  1.5966  2.0199
14617TIP3    H265343   3.760   5.784   6.374  1.8091 -0.0676 -1.6651
14618TIP3   OH265344   2.100   2.687   3.322 -0.2372  0.0022 -0.3617
14618TIP3    H165345   2.107   2.594   3.300 -0.3767  0.4232 -2.4016
14618TIP3    H265346   2.023   2.694   3.377 -1.1617 -0.9104 -1.4953
14619TIP3   OH265347   1.887   3.974  11.606  0.0146 -0.3552  0.2304
14619TIP3    H165348   1.867   4.052  11.555  0.4604 -0.6825 -0.4653
14619TIP3    H265349   1.803   3.947  11.643 -0.2751  0.0159 -0.1487
14620TIP3   OH265350   2.713   4.556   3.698 -0.1202  0.4516 -0.2647
14620TIP3    H165351   2.744   4.487   3.757 -0.2581 -0.1393 -0.8729
14620TIP3    H265352   2.629   4.524   3.665 -0.3203  1.0418 -0.3369
14621TIP3   OH265353   1.769   2.552   6.848  0.2561  0.5522 -0.0210
14621TIP3    H165354   1.843   2.521   6.797 -0.6774  0.5781 -1.4327
14621TIP3    H265355   1.787   2.522   6.937  0.8544 -1.4415 -0.7613
14622TIP3   OH265356   5.944   2.613   3.078  0.2226  0.6255  0.5298
14622TIP3    H165357   5.855   2.632   3.047 -0.6704  0.3127  2.7161
14622TIP3    H265358   5.974   2.541   3.023 -0.5039  1.3229 -0.8363
14623TIP3   OH265359   0.920   1.833   1.297 -0.0532 -0.2815 -0.2900
14623TIP3    H165360   0.832   1.806   1.322 -0.2257 -0.0507 -0.6377
14623TIP3    H265361   0.976   1.759   1.322 -0.3154 -0.3474  0.1091
14624TIP3   OH265362   0.394   6.352  14.029  0.4138 -0.1622  0.1807
14624TIP3    H165363   0.410   6.385  14.118  1.7608 -1.8707  0.6430
14624TIP3    H265364   0.446   6.410  13.973  2.2741 -1.0414  0.9018
14625TIP3   OH265365   5.612   0.050  11.190 -0.0626  0.1047  0.3676
14625TIP3    H165366   5.644   0.062  11.279 -0.5061  1.1268  0.4009
14625TIP3    H265367   5.680   0.087  11.134  0.0361 -0.1812  0.2938
14626TIP3   OH265368   2.741   5.078  15.086  0.3640 -0.5422 -0.2291
14626TIP3    H165369   2.678   5.094  15.016  0.9367 -1.7222 -1.0411
14626TIP3    H265370   2.818   5.129  15.062 -0.0502  0.4340  0.4606
14627TIP3   OH265371   2.383   1.923  15.888  0.0770  0.4156 -0.3574
14627TIP3    H165372   2.393   1.875  15.806 -0.4308  1.3277 -0.9703
14627TIP3    H265373   2.308   1.882  15.931  0.2758  0.0093 -0.3955
14628TIP3   OH265374   1.742   2.114  12.957 -0.3866  0.3876  0.3358
14628TIP3    H165375   1.651   2.143  12.948  0.2105  2.8248  1.2437
14628TIP3    H265376   1.784   2.145  12.876 -0.2714 -0.3567  0.1092
14629TIP3   OH265377   1.085   5.471   3.354  0.2531  0.2880 -0.1379
14629TIP3    H165378   1.139   5.453   3.277  0.7293 -0.9807  0.4618
14629TIP3    H265379   1.143   5.518   3.414  0.6425 -0.8200  0.3880
14630TIP3   OH265380   6.531   6.099   5.372 -0.8526 -0.0745  0.1515
14630TIP3    H165381   6.450   6.150   5.368  0.3322  1.9333  0.3195
14630TIP3    H265382   6.588   6.151   5.429  0.8325 -1.0074 -0.6289
14631TIP3   OH265383   3.255   2.427  14.354 -0.9319  0.3806  0.6537
14631TIP3    H165384   3.289   2.341  14.329 -1.0693  0.2533  0.8980
14631TIP3    H265385   3.239   2.472  14.271  1.3652  1.0673  0.5073
14632TIP3   OH265386   0.562   1.298   4.334 -0.1141  0.5483 -0.2192
14632TIP3    H165387   0.502   1.337   4.396 -0.6033 -1.8756  0.9640
14632TIP3    H265388   0.532   1.328   4.248 -0.7695  2.2204  0.5600
14633TIP3   OH265389   3.318   5.804   2.092  0.1661  0.1269 -0.1750
14633TIP3    H165390   3.394   5.758   2.057 -0.0274  0.6035 -1.2493
14633TIP3    H265391   3.253   5.735   2.107  0.4086 -0.1368 -0.3368
14634TIP3   OH265392   5.840   6.585  12.485  0.1508 -0.4865 -0.5887
14634TIP3    H165393   5.886   6.594  12.568 -0.8356 -0.9173  0.0251
14634TIP3    H265394   5.900   6.537  12.428  0.1999 -1.6534  0.4194
14635TIP3   OH265395   3.012   1.023  15.077 -0.3073  0.1040  0.0561
14635TIP3    H165396   2.947   1.093  15.082 -0.9087 -0.5273  2.1825
14635TIP3    H265397   3.072   1.040  15.149  2.0046  0.7041 -1.9061
14636TIP3   OH265398   6.223   4.309   5.702 -0.0508 -0.1073  0.4809
14636TIP3    H165399   6.205   4.359   5.781  0.3220 -0.6002  0.8903
14636TIP3    H265400   6.233   4.375   5.633  1.1510  0.4441  1.1441
14637TIP3   OH265401   4.632   5.809   6.067 -0.2427 -0.8107 -0.3441
14637TIP3    H165402   4.542   5.829   6.040 -0.2337  1.1060  0.8629
14637TIP3    H265403   4.622   5.749   6.141 -0.5442 -0.5534 -0.1734
14638TIP3   OH265404   6.548   3.047   4.385 -0.2795  0.6506  0.0302
14638TIP3    H165405   6.584   2.968   4.425  0.1885  0.1882 -1.2367
14638TIP3    H265406   6.600   3.059   4.305 -2.0942  0.6836 -1.2083
14639TIP3   OH265407   0.241   5.949   2.277  0.5160 -0.5638 -0.3983
14639TIP3    H165408   0.214   5.929   2.187 -0.4753  0.6586 -0.3946
14639TIP3    H265409   0.265   5.863   2.314 -0.1581 -1.2420 -1.4715
14640TIP3   OH265410   5.877   2.571  14.952  0.0460  0.0318 -0.2500
14640TIP3    H165411   5.809   2.598  14.891  1.4475 -0.1880 -1.9818
14640TIP3    H265412   5.858   2.478  14.969 -1.3153  0.5071  1.0251
14641TIP3   OH265413   6.307   0.714   3.501  0.2339 -0.5540 -0.0442
14641TIP3    H165414   6.292   0.758   3.584  0.7290 -2.7298  1.2656
14641TIP3    H265415   6.363   0.774   3.452  2.0563 -0.2677  2.2131
14642TIP3   OH265416   3.996   1.827  15.291 -0.3860 -0.2454  0.7144
14642TIP3    H165417   4.071   1.776  15.323 -0.2883 -1.8808 -1.7952
14642TIP3    H265418   3.928   1.761  15.274 -1.7896  1.0073  1.2819
14643TIP3   OH265419   0.472   5.009  16.970  0.2280 -0.4755 -0.3200
14643TIP3    H165420   0.526   4.996  16.892  0.4629 -0.7659 -0.1139
14643TIP3    H265421   0.383   4.986  16.943  0.2563 -0.2725 -0.5862
14644TIP3   OH265422   3.757   1.151   0.539 -0.3412  0.4756 -0.0142
14644TIP3    H165423   3.825   1.200   0.493  1.4515 -0.8556  1.0946
14644TIP3    H265424   3.689   1.137   0.473  2.4148 -1.9958 -2.6245
14645TIP3   OH265425   4.941   1.059   0.214  0.0807  0.4612  0.0585
14645TIP3    H165426   4.926   0.964   0.216  2.0047  0.1283  1.4228
14645TIP3    H265427   4.944   1.085   0.307  4.2464  0.9491 -0.0226
14646TIP3   OH265428   6.136   1.245   6.511 -0.1936  0.4639 -0.0336
14646TIP3    H165429   6.228   1.226   6.493  0.0195  1.5160 -0.1409
14646TIP3    H265430   6.130   1.341   6.509 -1.4649  0.3938 -0.8435
14647TIP3   OH265431   3.128   1.737   4.088 -0.4851 -0.0875  0.1215
14647TIP3    H165432   3.060   1.749   4.155 -1.4259  0.4071 -0.9054
14647TIP3    H265433   3.202   1.787   4.121 -0.7927 -0.1921  1.0048
14648TIP3   OH265434   5.191   5.672  14.908  0.1806  0.3150 -0.3636
14648TIP3    H165435   5.225   5.602  14.852 -1.4209  0.3888 -1.5124
14648TIP3    H265436   5.105   5.692  14.871 -1.5739 -0.5015  2.8575
14649TIP3   OH265437   3.226   4.008  10.456 -0.0953  0.2628 -0.5295
14649TIP3    H165438   3.153   4.020  10.517  0.8632  0.6576  0.5744
14649TIP3    H265439   3.257   3.919  10.474 -0.5885 -0.0735 -1.3221
14650TIP3   OH265440   4.958   1.877  12.285 -0.7581 -0.2340  0.0266
14650TIP3    H165441   4.871   1.852  12.254 -1.2595  2.2279 -0.6877
14650TIP3    H265442   4.945   1.900  12.377 -0.8481  0.0965 -0.0695
14651TIP3   OH265443   6.482   6.309   1.129  0.1080 -0.2769 -0.0728
14651TIP3    H165444   6.448   6.359   1.055  0.1554  0.1243  0.1762
14651TIP3    H265445   6.567   6.277   1.099  0.2694  0.1511 -0.0792
14652TIP3   OH265446   2.424   1.029   4.510 -0.3460  0.0610 -0.0529
14652TIP3    H165447   2.469   1.023   4.594 -1.0625 -1.6093  0.2566
14652TIP3    H265448   2.436   0.943   4.470  1.4889  1.3514 -2.5151
14653TIP3   OH265449   6.563   5.292   0.218  0.1490 -0.0848  0.0926
14653TIP3    H165450   6.595   5.289   0.308  0.1917  0.6619  0.1099
14653TIP3    H265451   6.612   5.223   0.173  1.6024  0.8526  0.1790
14654TIP3   OH265452   6.638   6.449   6.145  0.2040  0.3481  0.2737
14654TIP3    H165453   6.564   6.404   6.185  0.4514 -0.9974 -0.6883
14654TIP3    H265454   6.661   6.519   6.206  0.1816 -1.2174  2.1497
14655TIP3   OH265455   0.631   4.418  15.074  0.2930 -0.1398 -0.0590
14655TIP3    H165456   0.710   4.473  15.078 -0.2933  0.6163  3.2524
14655TIP3    H265457   0.646   4.350  15.139 -0.6464 -1.6970 -1.4030
14656TIP3   OH265458   1.859   1.742   2.755 -0.3114  0.3688  0.2921
14656TIP3    H165459   1.788   1.686   2.788 -2.7217  2.9634 -0.1318
14656TIP3    H265460   1.860   1.817   2.814  2.2671  0.3667  0.3577
14657TIP3   OH265461   4.708   5.974  11.491 -0.0531  0.4378  0.0914
14657TIP3    H165462   4.731   5.977  11.398 -1.5310  1.2499 -0.2792
14657TIP3    H265463   4.701   6.066  11.517 -1.8859  0.2510  0.3924
14658TIP3   OH265464   0.192   4.254  12.340 -0.6586 -0.2493  0.0160
14658TIP3    H165465   0.100   4.246  12.312 -0.7197 -0.7026  0.3346
14658TIP3    H265466   0.235   4.177  12.302 -0.0389  0.8089 -1.5285
14659TIP3   OH265467   2.438   0.768   2.391  0.3842  0.3312  0.7953
14659TIP3    H165468   2.492   0.843   2.415  1.6336  0.1321 -1.1551
14659TIP3    H265469   2.399   0.793   2.307 -0.0040 -0.7765  0.6292
14660TIP3   OH265470   5.448   0.149   2.299 -0.3248 -0.1195 -0.2774
14660TIP3    H165471   5.474   0.150   2.392  0.6627 -1.9902 -0.4784
14660TIP3    H265472   5.517   0.199   2.255  1.2870 -2.3244 -0.4016
14661TIP3   OH265473   5.440   6.850   3.624 -0.0466  0.3187  0.2287
14661TIP3    H165474   5.465   6.934   3.663 -0.9629  1.4570 -1.5176
14661TIP3    H265475   5.522   6.816   3.588  0.1296  1.0467 -0.0842
14662TIP3   OH265476   2.867   6.340   0.046 -0.7430 -0.6939 -0.3689
14662TIP3    H165477   2.870   6.418   0.102  0.7247 -1.8929  1.3417
14662TIP3    H265478   2.776   6.338   0.014 -0.9887  1.3375  0.0353
14663TIP3   OH265479   1.452   2.436  15.388 -0.0262  0.5071  0.6469
14663TIP3    H165480   1.366   2.418  15.351 -1.0661  3.1591  1.5067
14663TIP3    H265481   1.509   2.447  15.311 -0.4426 -1.0831  0.0656
14664TIP3   OH265482   4.274   5.845  15.293 -0.0720  0.3773  0.0216
14664TIP3    H165483   4.330   5.791  15.349 -0.5334  0.3402  0.4582
14664TIP3    H265484   4.186   5.807  15.304  0.0303 -0.5652 -1.8466
14665TIP3   OH265485   1.010   0.863   2.538  0.4693 -0.1467  0.0896
14665TIP3    H165486   1.096   0.893   2.570  1.0157 -0.8975 -0.6450
14665TIP3    H265487   0.948   0.923   2.579  1.4869  1.7570 -0.9947
14666TIP3   OH265488   1.385   1.993   0.714 -0.1378  0.2228  0.1988
14666TIP3    H165489   1.452   2.015   0.650  0.7805 -1.8949  0.3488
14666TIP3    H265490   1.324   2.066   0.711 -0.1221  0.2369 -3.0516
14667TIP3   OH265491   3.048   3.730   3.026 -0.4173  0.8913  0.0515
14667TIP3    H165492   3.141   3.728   3.048 -0.1372  0.6476 -1.0992
14667TIP3    H265493   3.003   3.727   3.111  0.6018 -0.4811  0.5761
14668TIP3   OH265494   2.816   2.070  15.879 -0.2749 -0.0167 -0.6716
14668TIP3    H165495   2.846   1.981  15.861  3.4695  0.7048  0.9454
14668TIP3    H265496   2.875   2.126  15.828 -2.3866  1.6416 -1.4755
14669TIP3   OH265497   4.474   5.182   1.774 -0.2474 -0.7786 -0.1152
14669TIP3    H165498   4.459   5.212   1.684 -1.1865  0.1153  0.3122
14669TIP3    H265499   4.569   5.185   1.785 -0.2352  1.7853 -0.2411
14670TIP3   OH265500   0.889   0.798  11.660 -1.1645 -0.0555  0.4516
14670TIP3    H165501   0.866   0.837  11.744 -2.6012 -0.7960  0.4296
14670TIP3    H265502   0.805   0.783  11.617 -0.4674 -0.1071 -0.9331
14671TIP3   OH265503   1.607   5.789  14.046 -0.5818  0.0990 -0.7779
14671TIP3    H165504   1.689   5.831  14.019  0.1708  0.7475  2.1245
14671TIP3    H265505   1.561   5.857  14.096 -0.7539 -1.5587  1.4609
14672TIP3   OH265506   2.110   4.908   3.658 -0.4987 -0.7172 -0.1501
14672TIP3    H165507   2.206   4.914   3.657 -0.5573  0.2860 -0.4244
14672TIP3    H265508   2.092   4.832   3.713  0.4395 -0.6218  0.3123
14673TIP3   OH265509   2.184   0.619   6.575 -0.4430 -0.1595  0.4939
14673TIP3    H165510   2.228   0.686   6.627  0.8340 -0.0463 -0.6678
14673TIP3    H265511   2.091   0.633   6.592 -0.1645  1.3140  0.9994
14674TIP3   OH265512   5.206   6.228   1.687 -0.0750  0.0491 -0.1157
14674TIP3    H165513   5.271   6.197   1.623  0.2386  0.7224 -0.1314
14674TIP3    H265514   5.200   6.322   1.671 -1.9871 -0.1735 -0.9625
14675TIP3   OH265515   4.264   6.658   2.709 -0.0010  0.0581  0.5740
14675TIP3    H165516   4.328   6.650   2.638 -0.6673 -2.6567  0.1882
14675TIP3    H265517   4.317   6.678   2.787  1.4188 -2.2543  0.2930
14676TIP3   OH265518   0.154   0.901  12.979 -0.5206 -0.1246 -0.4207
14676TIP3    H165519   0.127   0.983  13.022  0.3309  0.3402 -0.7332
14676TIP3    H265520   0.236   0.878  13.022 -0.7421 -0.8089 -0.3579
14677TIP3   OH265521   1.930   3.493  17.117  0.1941  0.2415  0.5489
14677TIP3    H165522   1.952   3.436  17.191 -1.1733 -1.3868 -0.2437
14677TIP3    H265523   1.912   3.433  17.045 -1.8483  1.6295 -0.1797
14678TIP3   OH265524   5.159   4.552  13.649  0.0368 -0.2082  0.3461
14678TIP3    H165525   5.135   4.632  13.696 -1.4964 -0.8172  0.6768
14678TIP3    H265526   5.215   4.582  13.577  1.1470  0.9214  1.6139
14679TIP3   OH265527   3.616   3.791  15.319  0.3790  0.6694 -0.1890
14679TIP3    H165528   3.648   3.880  15.309  0.2730  0.5749 -1.6682
14679TIP3    H265529   3.523   3.797  15.297 -0.2285  0.5921  2.0991
14680TIP3   OH265530   5.479   2.161  10.637  0.2023 -0.0500  0.0127
14680TIP3    H165531   5.550   2.131  10.694  1.2527  1.6006 -0.3580
14680TIP3    H265532   5.434   2.081  10.611  1.2240 -1.0490  1.1590
14681TIP3   OH265533   6.759   4.538   6.484  0.3412 -0.1479 -0.5509
14681TIP3    H165534   6.827   4.603   6.503 -0.5650  0.5022  0.5907
14681TIP3    H265535   6.719   4.570   6.403 -0.8031  1.3665  0.5564
14682TIP3   OH265536   1.474   4.852   4.749 -0.1726  0.3125 -0.0423
14682TIP3    H165537   1.437   4.879   4.833  0.3769  0.4642  0.1558
14682TIP3    H265538   1.568   4.861   4.760 -0.0345 -0.5843 -0.3572
14683TIP3   OH265539   5.190   1.971   0.966  0.7959  0.0613 -0.0762
14683TIP3    H165540   5.206   1.970   0.872 -0.6581 -0.3289 -0.3555
14683TIP3    H265541   5.262   1.920   1.003  0.7299 -0.8328 -1.1055
14684TIP3   OH265542   3.792   1.054   5.564  0.2062  0.0090  0.1455
14684TIP3    H165543   3.713   1.000   5.566 -0.1015  0.4433  1.8041
14684TIP3    H265544   3.808   1.077   5.656  0.3837  2.6190 -0.4415
14685TIP3   OH265545   1.546   3.465  13.798 -0.0632 -0.5751  0.3248
14685TIP3    H165546   1.527   3.396  13.862 -0.0481 -0.5843  0.3188
14685TIP3    H265547   1.549   3.420  13.714 -0.9196 -0.4388  0.2083
14686TIP3   OH265548   5.056   4.485  12.864 -0.2431  0.5587 -0.4749
14686TIP3    H165549   4.978   4.539  12.876 -0.2763  0.6593 -1.1041
14686TIP3    H265550   5.043   4.410  12.923 -1.4712 -0.1249 -1.5540
14687TIP3   OH265551   1.678   1.583   5.575 -0.4407 -0.0801 -0.1622
14687TIP3    H165552   1.607   1.621   5.627 -1.7984 -1.0885 -1.1925
14687TIP3    H265553   1.752   1.643   5.587 -1.4460  0.9830  0.9841
14688TIP3   OH265554   5.730   3.972  14.173 -0.4595 -0.0137  0.1484
14688TIP3    H165555   5.763   4.053  14.214 -0.4017 -0.1653  0.4047
14688TIP3    H265556   5.651   4.000  14.127 -0.8414  0.0572  0.8341
14689TIP3   OH265557   1.766   2.980   4.260 -0.2921  0.3340 -0.3175
14689TIP3    H165558   1.728   2.894   4.243  1.5217 -0.5353 -0.1525
14689TIP3    H265559   1.691   3.039   4.259 -1.4857 -1.1051 -1.3063
14690TIP3   OH265560   4.728   5.035  16.305  0.9023 -0.3003 -0.2168
14690TIP3    H165561   4.720   5.008  16.213 -0.5330  0.6868 -0.4174
14690TIP3    H265562   4.758   5.126  16.300  0.1281 -0.0078  0.2585
14691TIP3   OH265563   1.281   5.608   0.141 -0.1176  1.0836  0.2120
14691TIP3    H165564   1.262   5.516   0.161  2.4945  0.5172  0.4507
14691TIP3    H265565   1.354   5.604   0.080  1.3956  2.9855  1.7736
14692TIP3   OH265566   3.863   3.403   1.902  0.4461 -0.2649 -0.0072
14692TIP3    H165567   3.892   3.464   1.834 -0.0768 -0.3922 -0.3450
14692TIP3    H265568   3.862   3.456   1.982 -0.4197  0.2924 -0.3746
14693TIP3   OH265569   6.670   6.046  11.280  0.4900  0.1375  0.0165
14693TIP3    H165570   6.583   6.044  11.239 -0.0284 -0.3302  1.0859
14693TIP3    H265571   6.716   5.971  11.243 -0.0691 -0.4395  0.4550
14694TIP3   OH265572   0.184   4.048  12.787 -0.5619  0.3238 -0.6382
14694TIP3    H165573   0.129   4.070  12.712 -0.0686 -1.7825 -1.6815
14694TIP3    H265574   0.255   3.995  12.750 -1.3513 -2.4330  1.5124
14695TIP3   OH265575   6.276   2.336  12.373 -0.1071  1.0810  0.1317
14695TIP3    H165576   6.372   2.336  12.370 -0.0494  1.5890  1.4510
14695TIP3    H265577   6.251   2.257  12.323  1.0190  0.4845  0.4757
14696TIP3   OH265578   0.244   2.386  13.723  0.1234  1.0725 -0.0933
14696TIP3    H165579   0.327   2.397  13.676 -0.1423 -0.1756 -0.9142
14696TIP3    H265580   0.186   2.451  13.684  0.2457  0.8322 -0.6852
14697TIP3   OH265581   3.072   2.137   4.003  0.1520  0.3160  0.0358
14697TIP3    H165582   2.999   2.192   3.975 -0.1108  0.7430  1.4626
14697TIP3    H265583   3.032   2.055   4.030  0.2852  0.2708  0.0966
14698TIP3   OH265584   6.352   4.200  15.066 -0.0968  0.0947 -0.0686
14698TIP3    H165585   6.310   4.152  14.994 -0.1113  0.3547 -0.2352
14698TIP3    H265586   6.299   4.179  15.143  0.0825 -0.4094 -0.0761
14699TIP3   OH265587   0.546   2.838  12.175  0.0880  0.4072 -0.1985
14699TIP3    H165588   0.518   2.841  12.083 -0.2366 -2.2905 -0.2724
14699TIP3    H265589   0.641   2.832  12.170  0.1668  1.4978 -0.2749
14700TIP3   OH265590   1.876   3.355  11.484  0.5423  0.6929  0.1429
14700TIP3    H165591   1.799   3.407  11.506 -0.0134 -0.1837  0.3086
14700TIP3    H265592   1.933   3.362  11.561  0.5390  1.1691  0.1041
14701TIP3   OH265593   4.401   0.838  12.527 -0.2413 -0.1604 -1.1126
14701TIP3    H165594   4.325   0.783  12.510 -0.8272 -0.3340  1.6762
14701TIP3    H265595   4.367   0.927  12.529 -0.3414 -0.2156 -0.1112
14702TIP3   OH265596   1.241   4.407   6.546  0.5636  0.0778  0.3659
14702TIP3    H165597   1.309   4.466   6.514  0.9627 -0.0282  0.9963
14702TIP3    H265598   1.206   4.366   6.467 -0.3889  1.8532 -0.1919
14703TIP3   OH265599   2.411   0.638   4.867  0.4664  0.2914  0.2931
14703TIP3    H165600   2.322   0.661   4.892 -0.0872  0.8324 -2.0000
14703TIP3    H265601   2.412   0.542   4.868 -0.6750  0.2293 -1.2689
14704TIP3   OH265602   2.442   6.633   1.853  0.0740 -0.5186 -0.0023
14704TIP3    H165603   2.347   6.637   1.861 -0.0238 -2.6677  0.7376
14704TIP3    H265604   2.473   6.626   1.944  0.9145 -0.1466 -0.2546
14705TIP3   OH265605   4.356   1.682  16.855 -0.2941  0.0980  0.1936
14705TIP3    H165606   4.309   1.600  16.851 -0.5704  0.2624  0.0456
14705TIP3    H265607   4.443   1.659  16.888  0.3137 -0.5519 -1.7105
14706TIP3   OH265608   0.446   0.775   1.892  0.5732  0.8864 -0.1059
14706TIP3    H165609   0.427   0.836   1.964  1.2578 -0.7138  1.4975
14706TIP3    H265610   0.524   0.811   1.850  0.3542  1.6633  0.1335
14707TIP3   OH265611   3.610   2.557  16.260 -0.4350  0.2152  0.0136
14707TIP3    H165612   3.606   2.534  16.353 -1.6797  1.3204  0.2793
14707TIP3    H265613   3.655   2.642  16.259 -1.8111  0.9798 -0.1813
14708TIP3   OH265614   4.330   1.675  13.206 -0.5299 -0.0149  0.2861
14708TIP3    H165615   4.387   1.615  13.157  0.4003  1.6478 -0.7372
14708TIP3    H265616   4.356   1.762  13.177 -2.6468  0.8655  0.8534
14709TIP3   OH265617   3.936   0.598  12.811  0.1439  0.0257  0.2666
14709TIP3    H165618   3.881   0.637  12.879 -0.3393  0.6457 -0.4713
14709TIP3    H265619   3.874   0.558  12.750  0.4036  1.7645 -1.2117
14710TIP3   OH265620   0.153   2.381  14.653 -0.3344  0.0769  0.2824
14710TIP3    H165621   0.176   2.472  14.672 -0.7440  0.1870  0.2572
14710TIP3    H265622   0.073   2.366  14.703 -0.6888 -0.0362 -0.3112
14711TIP3   OH265623   6.133   6.460  16.993 -0.0510  0.0906 -0.1945
14711TIP3    H165624   6.151   6.470  17.087  1.2634  0.3611 -0.4580
14711TIP3    H265625   6.050   6.413  16.990  0.7445 -1.4992  1.1204
14712TIP3   OH265626   0.241   5.710   3.731 -1.4116 -0.1715  0.4117
14712TIP3    H165627   0.307   5.756   3.783 -1.0436 -0.4282  0.1749
14712TIP3    H265628   0.179   5.677   3.796 -1.1176 -0.2336  0.6660
14713TIP3   OH265629   3.169   1.488  16.655  1.1232  0.0671  0.0775
14713TIP3    H165630   3.152   1.529  16.570  2.0606 -1.9275 -1.1656
14713TIP3    H265631   3.253   1.524  16.683  0.4168  1.3670  0.6313
14714TIP3   OH265632   5.890   5.119   2.698 -0.4199  0.3461 -0.8174
14714TIP3    H165633   5.922   5.029   2.703 -1.4967 -0.0914 -1.4181
14714TIP3    H265634   5.830   5.119   2.623  0.1479  1.7549 -1.2977
14715TIP3   OH265635   0.287   3.272   5.526  0.2472 -0.2920 -0.0285
14715TIP3    H165636   0.360   3.256   5.466  1.1069  0.8596  0.6759
14715TIP3    H265637   0.239   3.344   5.486 -0.0608 -0.5268 -0.0879
14716TIP3   OH265638   3.282   5.687  15.527  0.1955  0.1725  0.2735
14716TIP3    H165639   3.372   5.654  15.520 -0.2594 -0.8296 -1.7500
14716TIP3    H265640   3.291   5.781  15.514  0.9299  0.0136 -0.5242
14717TIP3   OH265641   1.478   4.068   5.849  0.4144 -0.2527 -0.1885
14717TIP3    H165642   1.385   4.076   5.872  0.3519  3.5956 -1.2074
14717TIP3    H265643   1.523   4.063   5.934 -0.6308 -1.3916  0.3334
14718TIP3   OH265644   2.359   5.627  16.486 -0.4837  0.1937 -0.4715
14718TIP3    H165645   2.313   5.664  16.410  1.0579  0.7198 -1.1927
14718TIP3    H265646   2.357   5.698  16.551  1.9306  1.4400 -1.6299
14719TIP3   OH265647   4.216   1.028  11.989 -0.5480 -0.1184  0.9214
14719TIP3    H165648   4.165   1.012  11.910 -1.4374  1.6238  1.1043
14719TIP3    H265649   4.162   1.087  12.041  1.1693  0.8843  1.6371
14720TIP3   OH265650   6.356   4.697   3.617  0.2144  0.0407 -0.0591
14720TIP3    H165651   6.285   4.635   3.605 -0.4469  0.7949 -0.1580
14720TIP3    H265652   6.413   4.684   3.541 -0.7511  0.6292 -0.9045
14721TIP3   OH265653   1.472   2.461  12.544  1.0120 -0.1424  0.1686
14721TIP3    H165654   1.407   2.527  12.569  2.3835  1.7171 -0.9169
14721TIP3    H265655   1.537   2.463  12.614 -0.3091 -2.4701  1.5890
14722TIP3   OH265656   5.046   2.746  10.331 -0.4174 -0.3064  0.3637
14722TIP3    H165657   4.957   2.716  10.349 -1.1299  0.3950 -1.7341
14722TIP3    H265658   5.043   2.840  10.347 -0.3813 -0.0951 -0.8137
14723TIP3   OH265659   2.256   2.651  14.908  0.4405 -0.6044 -0.3097
14723TIP3    H165660   2.274   2.744  14.895 -0.7165 -0.4173 -0.7151
14723TIP3    H265661   2.342   2.609  14.906  1.3296  0.7794  3.0457
14724TIP3   OH265662   4.630   6.595   2.821  0.1374  0.0031  0.5857
14724TIP3    H165663   4.716   6.595   2.862  0.4657  1.6169 -0.0118
14724TIP3    H265664   4.569   6.604   2.893  0.5137 -0.3533  0.9530
14725TIP3   OH265665   1.169   0.799  17.105 -0.3544  0.3556 -0.2085
14725TIP3    H165666   1.248   0.749  17.125 -1.8835 -2.4945 -0.7162
14725TIP3    H265667   1.142   0.768  17.018 -3.4320 -0.8206  1.0489
14726TIP3   OH265668   1.652   4.677  13.160 -0.0316 -0.1870  0.3653
14726TIP3    H165669   1.619   4.657  13.247  0.1359 -0.1631  0.4337
14726TIP3    H265670   1.710   4.604  13.139 -1.1075 -0.8903 -0.2804
14727TIP3   OH265671   3.107   4.433   5.642  0.0304  0.5442  0.0863
14727TIP3    H165672   3.024   4.456   5.599  0.3690  0.2135 -0.7654
14727TIP3    H265673   3.080   4.379   5.716 -0.4956 -0.0796 -0.5364
14728TIP3   OH265674   1.928   1.511   3.946 -0.0994 -0.0708 -0.7719
14728TIP3    H165675   1.953   1.602   3.962  1.4318 -0.5550 -0.2548
14728TIP3    H265676   2.000   1.475   3.894  1.1819 -1.9466  2.0491
14729TIP3   OH265677   4.103   4.665  13.062  0.3953 -0.0046 -0.0116
14729TIP3    H165678   4.182   4.657  13.009 -0.3384  0.2212 -1.1893
14729TIP3    H265679   4.032   4.637  13.004 -0.5417  1.0831  0.5498
14730TIP3   OH265680   0.741   2.934   3.379 -0.1731  0.0084 -0.4552
14730TIP3    H165681   0.821   2.920   3.328  0.1336 -2.0650  0.4832
14730TIP3    H265682   0.772   2.949   3.468 -0.7921 -1.3429  0.0223
14731TIP3   OH265683   5.785   6.622   4.087  0.1977 -0.0249 -0.1299
14731TIP3    H165684   5.867   6.603   4.041  0.0873  0.0878 -0.3788
14731TIP3    H265685   5.794   6.579   4.172  0.0597 -0.9487 -0.5739
14732TIP3   OH265686   3.265   1.573   1.111  0.5200 -0.4789  0.1200
14732TIP3    H165687   3.203   1.536   1.048 -1.0161 -1.2003  1.9516
14732TIP3    H265688   3.228   1.659   1.133  1.7126  0.3137 -0.8260
14733TIP3   OH265689   0.427   3.389   2.851  0.0432 -0.0798 -0.1399
14733TIP3    H165690   0.478   3.466   2.826 -0.2198 -0.0336 -0.5394
14733TIP3    H265691   0.337   3.421   2.859  0.3826  0.4282  3.1104
14734TIP3   OH265692   0.218   5.722   5.122 -0.5000 -0.3027  0.4284
14734TIP3    H165693   0.249   5.656   5.060  0.0301 -1.1488  1.5664
14734TIP3    H265694   0.248   5.805   5.085 -1.0695 -0.6855 -0.9581
14735TIP3   OH265695   1.012   6.571   5.052  0.5690 -0.9774 -0.0125
14735TIP3    H165696   1.031   6.653   5.098 -0.8111 -0.4608 -0.3361
14735TIP3    H265697   1.048   6.503   5.110  2.3093 -0.1498 -0.0497
14736TIP3   OH265698   6.188   6.114   0.864  0.6975  0.5142 -0.1043
14736TIP3    H165699   6.118   6.051   0.883  1.5274 -0.2475  0.5198
14736TIP3    H265700   6.175   6.185   0.927  1.6202 -0.5552  1.3513
14737TIP3   OH265701   4.287   4.847  16.740 -0.1721 -0.3896 -0.4347
14737TIP3    H165702   4.359   4.908  16.730 -0.9697  0.5405 -0.6741
14737TIP3    H265703   4.328   4.764  16.762  1.0123 -0.0580 -1.3104
14738TIP3   OH265704   1.465   2.292  14.567 -0.0874 -0.0228  0.0050
14738TIP3    H165705   1.542   2.301  14.623  1.3985 -0.8423 -1.7882
14738TIP3    H265706   1.498   2.250  14.488 -2.3748 -0.2461 -0.9040
14739TIP3   OH265707   5.959   1.772  11.044 -0.0512  0.3257  0.5787
14739TIP3    H165708   5.972   1.849  10.988 -0.7874  0.1559  0.1704
14739TIP3    H265709   5.930   1.808  11.128 -1.0743  0.4685  0.1773
14740TIP3   OH265710   4.290   5.058  13.844 -0.0698 -0.7691  0.1568
14740TIP3    H165711   4.295   5.116  13.768 -0.9922 -0.4425  0.3353
14740TIP3    H265712   4.317   5.112  13.917 -1.8457 -0.2465  0.4730
14741TIP3   OH265713   3.772   0.627   2.067  0.2667  0.5558 -0.1100
14741TIP3    H165714   3.840   0.562   2.084  0.3997  0.9309  0.8597
14741TIP3    H265715   3.765   0.630   1.972  3.0393  1.9375 -0.3926
14742TIP3   OH265716   3.229   2.488   4.841  0.9072  0.1335  0.5123
14742TIP3    H165717   3.279   2.549   4.787 -0.4808 -0.0049 -1.0184
14742TIP3    H265718   3.190   2.543   4.909 -2.5758  1.6997 -2.3800
14743TIP3   OH265719   1.687   4.699   1.665  0.1002 -0.0748  0.2775
14743TIP3    H165720   1.769   4.652   1.675  0.4950  0.3696 -0.6835
14743TIP3    H265721   1.677   4.748   1.746  1.6612  1.1657 -0.2276
14744TIP3   OH265722   2.072   6.573  15.740  0.1087  0.1892  0.3068
14744TIP3    H165723   2.132   6.618  15.800  1.8932 -1.3257 -0.2239
14744TIP3    H265724   2.035   6.643  15.686  0.2322  1.3323  1.6454
14745TIP3   OH265725   1.974   4.925  11.842 -0.4999 -0.1317  0.3075
14745TIP3    H165726   1.996   4.882  11.759 -1.2062 -1.1309  0.6143
14745TIP3    H265727   2.037   4.890  11.905 -0.0848  0.4823  0.2407
14746TIP3   OH265728   2.741   6.454  14.868  0.1163 -0.0075 -0.5762
14746TIP3    H165729   2.720   6.542  14.898  0.8786 -0.0063 -0.0289
14746TIP3    H265730   2.816   6.465  14.809  2.2447 -0.5566  1.8468
14747TIP3   OH265731   2.458   4.649   2.746  0.4968 -0.0873 -0.4227
14747TIP3    H165732   2.524   4.599   2.794  0.6771  2.4701  2.3027
14747TIP3    H265733   2.505   4.726   2.714 -1.1099  2.2116  2.2666
14748TIP3   OH265734   4.647   5.295  14.804 -0.3886  0.5473 -0.0093
14748TIP3    H165735   4.628   5.201  14.797  0.1441  0.1437  2.6974
14748TIP3    H265736   4.567   5.338  14.774 -1.9152 -0.8905  1.7060
14749TIP3   OH265737   4.185   6.211  15.458 -0.5285  0.4337 -0.2200
14749TIP3    H165738   4.227   6.162  15.528  1.0508 -0.0678 -1.4612
14749TIP3    H265739   4.153   6.291  15.501  0.5932  0.2501  1.0339
14750TIP3   OH265740   3.698   6.764   0.642  0.5016 -0.2268  0.1538
14750TIP3    H165741   3.784   6.724   0.653  0.4999  0.0012  1.0426
14750TIP3    H265742   3.716   6.852   0.608  0.5388 -0.6883 -1.0695
14751TIP3   OH265743   2.283   3.390   2.895 -0.5519 -0.4948  0.0279
14751TIP3    H165744   2.320   3.414   2.810 -2.2538  0.0745 -0.5806
14751TIP3    H265745   2.345   3.325   2.930 -0.0980 -1.1518 -1.8655
14752TIP3   OH265746   3.925   3.054  10.986 -0.2046 -0.1869  0.2941
14752TIP3    H165747   3.911   3.014  11.072 -0.6439  0.3435  0.4694
14752TIP3    H265748   3.963   2.983  10.934  0.5187 -0.3809  1.0533
14753TIP3   OH265749   2.310   4.318   3.866 -0.1364  0.0416 -0.5378
14753TIP3    H165750   2.220   4.323   3.834 -0.7549  0.0716  1.1102
14753TIP3    H265751   2.302   4.283   3.955  1.3225  1.5671  0.2582
14754TIP3   OH265752   4.683   3.371  15.210 -0.0507 -0.5677  0.3244
14754TIP3    H165753   4.776   3.396  15.206 -0.3368  0.3782 -1.3529
14754TIP3    H265754   4.676   3.320  15.290  1.8112 -0.1960  0.7842
14755TIP3   OH265755   0.500   1.451  13.049 -0.6477 -0.2036 -0.0349
14755TIP3    H165756   0.495   1.386  13.119 -0.5709  1.0937  1.2207
14755TIP3    H265757   0.411   1.486  13.042 -0.1527  1.4252  1.1934
14756TIP3   OH265758   3.015   4.243  14.638  0.4210 -0.5710 -0.6761
14756TIP3    H165759   3.071   4.166  14.627  0.5060 -0.6036 -0.0615
14756TIP3    H265760   2.989   4.240  14.730 -0.9768 -0.8134 -1.0587
14757TIP3   OH265761   4.207   2.123  14.820 -0.1520  0.3897 -0.4921
14757TIP3    H165762   4.231   2.035  14.795  0.1040  0.6978 -1.3374
14757TIP3    H265763   4.288   2.162  14.854 -0.3245  0.2245  0.1351
14758TIP3   OH265764   3.541   4.026   2.852  0.6520  0.5240 -0.6006
14758TIP3    H165765   3.483   4.011   2.927  1.8784  1.6933  0.6466
14758TIP3    H265766   3.584   4.109   2.872  2.2913 -0.0001 -1.7715
14759TIP3   OH265767   5.022   5.130  14.243  0.6087 -0.1998 -0.8506
14759TIP3    H165768   5.111   5.165  14.238  1.7565 -2.7273  0.3892
14759TIP3    H265769   5.012   5.075  14.166  1.2818 -2.2582  0.4522
14760TIP3   OH265770   6.445   5.666   1.604 -0.8266  0.6437  0.4422
14760TIP3    H165771   6.415   5.576   1.592 -1.5736  0.9013  0.3241
14760TIP3    H265772   6.514   5.660   1.670  1.0219 -0.3682 -1.4482
14761TIP3   OH265773   5.512   0.515  11.826 -0.1128  0.0908  0.2032
14761TIP3    H165774   5.508   0.435  11.879 -0.0354 -0.5172 -0.7013
14761TIP3    H265775   5.439   0.508  11.765  2.1389 -1.2594 -2.5780
14762TIP3   OH265776   4.147   2.572  12.284 -0.4102 -0.3933 -0.2116
14762TIP3    H165777   4.109   2.509  12.346 -1.4779 -0.0165 -0.4590
14762TIP3    H265778   4.239   2.546  12.278 -0.6470 -1.4389  0.2956
14763TIP3   OH265779   4.186   3.758  16.717  0.0320 -0.1510 -0.4615
14763TIP3    H165780   4.130   3.835  16.723  1.5209  1.2832 -3.2905
14763TIP3    H265781   4.157   3.713  16.637  1.7759 -0.2708 -1.0680
14764TIP3   OH265782   4.903   2.547   5.297  0.8796 -0.1973  0.0993
14764TIP3    H165783   4.847   2.518   5.369  1.5888 -0.9559  0.3591
14764TIP3    H265784   4.916   2.468   5.244 -0.1883  0.4987 -1.2620
14765TIP3   OH265785   6.797   3.260   4.108 -0.0705  0.1104  0.0806
14765TIP3    H165786   6.827   3.231   4.022 -0.8667  0.3027 -0.2683
14765TIP3    H265787   6.733   3.329   4.090  1.3162  1.6924  0.8819
14766TIP3   OH265788   1.361   4.782  12.832 -0.3256 -0.5250  0.0518
14766TIP3    H165789   1.374   4.689  12.814  1.5704 -0.4766  0.9126
14766TIP3    H265790   1.327   4.785  12.921  0.1307 -0.3873  0.2254
14767TIP3   OH265791   5.054   0.459  13.702 -0.1391 -0.1410 -1.2776
14767TIP3    H165792   4.997   0.534  13.714  0.2886  0.1162 -0.8033
14767TIP3    H265793   5.000   0.383  13.724 -0.2744  0.1062 -0.7344
14768TIP3   OH265794   6.113   1.075   3.575 -0.0359  0.0679 -0.5594
14768TIP3    H165795   6.107   1.169   3.557  0.5215  0.0953 -0.6091
14768TIP3    H265796   6.051   1.035   3.515  0.7712  0.2806 -1.5499
14769TIP3   OH265797   1.088   6.793  11.418  0.0963  0.5844  0.3279
14769TIP3    H165798   1.121   6.729  11.482  0.3199 -0.3935 -0.7238
14769TIP3    H265799   1.017   6.747  11.373  2.0741 -0.0619 -2.4011
14770TIP3   OH265800   3.461   1.015  12.024 -0.4341  0.1211  0.5124
14770TIP3    H165801   3.533   1.034  11.965  1.4210 -3.0012  1.4873
14770TIP3    H265802   3.383   1.013  11.968  0.8243 -0.0781 -1.3112
14771TIP3   OH265803   5.051   4.748   1.799 -0.4671  0.2671  0.1779
14771TIP3    H165804   5.048   4.815   1.867 -1.0595  0.7046 -0.2751
14771TIP3    H265805   4.979   4.688   1.821 -0.8727  0.5932 -0.2468
14772TIP3   OH265806   5.075   5.855  11.505 -0.0612 -0.0580  0.0150
14772TIP3    H165807   5.167   5.840  11.483 -0.0291 -1.1130  0.7902
14772TIP3    H265808   5.033   5.871  11.421  0.4610 -1.6973 -0.6052
14773TIP3   OH265809   5.238   3.432   5.998 -0.2029  0.2057  0.0401
14773TIP3    H165810   5.291   3.369   6.047  0.5033  1.0037  0.3284
14773TIP3    H265811   5.171   3.378   5.955 -0.2123 -0.6213  1.0501
14774TIP3   OH265812   0.102   5.869   0.620 -0.2375  0.4156 -0.3273
14774TIP3    H165813   0.053   5.792   0.592 -0.8038  2.3602 -5.7559
14774TIP3    H265814   0.034   5.935   0.637  0.3626  0.7788  0.7758
14775TIP3   OH265815   1.141   3.790  16.632 -0.1003 -0.1624 -0.0835
14775TIP3    H165816   1.106   3.872  16.599 -1.4912 -0.3340  0.8333
14775TIP3    H265817   1.180   3.747  16.556 -0.6523  0.7076 -0.8691
14776TIP3   OH265818   1.437   5.925  14.522  0.3024 -0.4959  0.5398
14776TIP3    H165819   1.428   6.006  14.572  2.2641 -1.0988  1.9913
14776TIP3    H265820   1.350   5.886  14.522 -0.4725  1.1854  0.5519
14777TIP3   OH265821   4.652   3.321  11.769 -0.2230  0.2293  0.5066
14777TIP3    H165822   4.603   3.388  11.721 -0.3738  0.4732  0.9903
14777TIP3    H265823   4.743   3.335  11.745 -0.5581 -1.8922 -2.4824
14778TIP3   OH265824   0.183   4.589  14.457 -0.1049 -0.3741 -0.0734
14778TIP3    H165825   0.156   4.499  14.443  0.4693 -0.6200  0.3465
14778TIP3    H265826   0.174   4.603  14.551  2.9998 -1.1053  0.4591
14779TIP3   OH265827   2.534   0.882   4.954 -0.3495  0.0105 -0.2707
14779TIP3    H165828   2.536   0.953   4.890 -2.2651  0.4682  0.1136
14779TIP3    H265829   2.488   0.811   4.909 -0.4423 -0.1727  0.1097
14780TIP3   OH265830   4.132   0.016   0.965 -0.1399 -0.1802  0.2946
14780TIP3    H165831   4.091   0.102   0.974  0.6584  0.2685 -0.2495
14780TIP3    H265832   4.072  -0.044   1.010 -1.1924  0.5128 -0.1347
14781TIP3   OH265833   5.876   3.131  10.341 -0.5479  0.3494 -0.0218
14781TIP3    H165834   5.857   3.157  10.251 -3.0478 -0.3148  0.2472
14781TIP3    H265835   5.840   3.202  10.394 -0.7406 -0.1180  0.4827
14782TIP3   OH265836   1.813   1.108  15.477  0.2051 -0.2301  0.0022
14782TIP3    H165837   1.825   1.136  15.568  0.1147  1.4404 -0.4849
14782TIP3    H265838   1.888   1.052  15.460 -0.6758 -2.0375  1.6270
14783TIP3   OH265839   0.044   5.616  12.731  0.5566 -0.0139  0.7873
14783TIP3    H165840   0.123   5.619  12.785  1.6495  1.0625 -0.7869
14783TIP3    H265841   0.042   5.527  12.697  0.6686 -0.2634  1.4168
14784TIP3   OH265842   3.938   3.935   4.410 -0.3222  0.3048 -0.3120
14784TIP3    H165843   3.919   4.028   4.420  0.6291  0.4014  0.8192
14784TIP3    H265844   3.933   3.900   4.499  0.7555 -0.4225 -0.5213
14785TIP3   OH265845   4.123   6.046   2.031 -0.2225  0.3209  0.2507
14785TIP3    H165846   4.169   6.128   2.011  2.1508 -1.2987 -1.5296
14785TIP3    H265847   4.038   6.056   1.988  0.9557  0.9621 -2.0896
14786TIP3   OH265848   6.257   5.473  16.000 -0.7784  0.1336 -0.4900
14786TIP3    H165849   6.258   5.548  16.059 -0.1265 -0.1621 -0.1196
14786TIP3    H265850   6.242   5.511  15.913  4.1893  1.2978 -1.1228
14787TIP3   OH265851   4.352   4.471  14.267  0.4194 -0.8965 -0.4959
14787TIP3    H165852   4.287   4.502  14.330  1.1981  0.1916 -0.1911
14787TIP3    H265853   4.389   4.393  14.307  1.1907  0.0053  0.6189
14788TIP3   OH265854   1.467   2.098   3.519 -0.6911  0.7022  0.0087
14788TIP3    H165855   1.469   2.082   3.613  0.4512 -0.2118 -0.1483
14788TIP3    H265856   1.420   2.181   3.510 -3.5550 -0.6679  1.1584
14789TIP3   OH265857   3.586   1.581  14.410 -0.2023 -0.1614  0.4106
14789TIP3    H165858   3.538   1.523  14.470 -1.8264  1.1397  0.4251
14789TIP3    H265859   3.530   1.588  14.333  0.5804  0.3879 -0.1234
14790TIP3   OH265860   1.144   2.201  16.208  0.4643  0.6307 -0.3050
14790TIP3    H165861   1.085   2.211  16.134 -0.8449 -0.5346  0.5429
14790TIP3    H265862   1.180   2.289  16.222 -0.1206  1.0988 -1.6014
14791TIP3   OH265863   6.219   0.013  15.233  0.2726  0.0475 -0.1141
14791TIP3    H165864   6.162  -0.032  15.171  0.7112  0.2318 -0.6633
14791TIP3    H265865   6.260   0.083  15.181  1.2520 -0.2936  0.1763
14792TIP3   OH265866   4.718   0.745  11.641 -0.4868  0.2705 -0.2419
14792TIP3    H165867   4.809   0.731  11.666 -0.5990  0.9548  0.5832
14792TIP3    H265868   4.724   0.802  11.564 -0.1447 -1.8330 -1.8693
14793TIP3   OH265869   3.574   1.381  12.962  0.0280  0.0943  0.2302
14793TIP3    H165870   3.663   1.344  12.964  0.9342  2.1933  0.9111
14793TIP3    H265871   3.543   1.372  13.052 -1.3373 -2.4722 -0.3881
14794TIP3   OH265872   6.723   4.238   0.296  0.2478 -0.1632  0.1769
14794TIP3    H165873   6.644   4.282   0.328  0.5877  0.1885  0.5349
14794TIP3    H265874   6.796   4.287   0.335  0.6880  0.3967 -1.2902
14795TIP3   OH265875   2.127   4.947   2.290  0.3307  0.4016 -0.1923
14795TIP3    H165876   2.133   4.999   2.210  0.6640  0.1318 -0.3461
14795TIP3    H265877   2.055   4.987   2.339 -1.6115 -0.9804 -1.7718
14796TIP3   OH265878   4.540   0.195   1.392  0.6521  0.4048 -0.1274
14796TIP3    H165879   4.486   0.127   1.433 -1.9496  3.0116  1.1028
14796TIP3    H265880   4.557   0.258   1.462  3.0691  1.0859 -1.1959
14797TIP3   OH265881   2.470   1.804   4.547 -0.4459 -0.0268  0.5350
14797TIP3    H165882   2.548   1.843   4.507  0.8756 -1.4612  1.6170
14797TIP3    H265883   2.423   1.764   4.474  0.5636 -0.3508  0.0419
14798TIP3   OH265884   6.837   5.012  13.056  0.0343 -0.6651 -0.3091
14798TIP3    H165885   6.922   4.974  13.077  0.0783  0.3323  1.6131
14798TIP3    H265886   6.810   4.969  12.975  1.5787 -2.2534 -0.0376
14799TIP3   OH265887   2.148   1.265  14.010 -0.0809 -0.2186  0.3638
14799TIP3    H165888   2.074   1.323  14.026 -0.1535 -0.3317  0.4369
14799TIP3    H265889   2.204   1.314  13.950  0.0205  0.0621  0.6856
14800TIP3   OH265890   4.037   0.306  11.753  0.0189 -0.5717 -0.6470
14800TIP3    H165891   4.024   0.396  11.722  0.0230 -0.8737 -1.5684
14800TIP3    H265892   4.001   0.252  11.683  1.9904 -1.3401 -1.1198
14801TIP3   OH265893   2.848   2.447   1.364 -0.6682  0.0291  0.1542
14801TIP3    H165894   2.881   2.404   1.286  0.5744 -0.3289  0.8602
14801TIP3    H265895   2.847   2.379   1.431 -2.0126  0.2542  0.3940
14802TIP3   OH265896   3.127   0.592   1.821  0.1368  0.1293  0.1284
14802TIP3    H165897   3.058   0.555   1.876  0.0514  0.6498  0.3848
14802TIP3    H265898   3.184   0.638   1.883 -0.9483  2.2637 -0.3647
14803TIP3   OH265899   1.816   3.322   5.850  0.4628 -0.1850 -0.0307
14803TIP3    H165900   1.754   3.291   5.916  0.6203 -0.2797  0.0730
14803TIP3    H265901   1.762   3.340   5.773  0.8025 -5.1789 -1.8250
14804TIP3   OH265902   6.278   3.905   3.887 -0.0529  0.3882 -0.8768
14804TIP3    H165903   6.204   3.965   3.882  0.1297  0.9443  1.7036
14804TIP3    H265904   6.310   3.899   3.797 -1.9775  1.7003 -1.7206
14805TIP3   OH265905   1.685   2.817   3.715  0.1409 -0.1931 -0.0131
14805TIP3    H165906   1.656   2.874   3.786  0.7726 -0.3435  0.3742
14805TIP3    H265907   1.746   2.755   3.757 -0.1366 -0.8228 -0.5214
14806TIP3   OH265908   1.017   0.741   5.959  0.5541  0.1056 -0.1668
14806TIP3    H165909   1.033   0.659   6.004  0.9112  0.1437 -0.2201
14806TIP3    H265910   0.958   0.789   6.017  0.4841 -0.1143 -0.0537
14807TIP3   OH265911   2.081   1.505   5.825  0.0059 -0.2370  0.1327
14807TIP3    H165912   1.990   1.510   5.854  0.2837 -0.8943  1.1639
14807TIP3    H265913   2.132   1.530   5.901  0.8239 -3.3009  0.7418
14808TIP3   OH265914   1.367   3.454   0.849 -0.5048 -0.2520 -0.0262
14808TIP3    H165915   1.288   3.472   0.799  0.0595  1.1156 -0.4616
14808TIP3    H265916   1.439   3.467   0.787  0.1871  1.1562  1.0271
14809TIP3   OH265917   5.206   6.028  13.776  0.5204  0.1222  0.3133
14809TIP3    H165918   5.129   6.073  13.742  0.9487 -0.0240 -0.9056
14809TIP3    H265919   5.173   5.973  13.846 -0.3083  0.8889  0.5361
14810TIP3   OH265920   0.423   3.282   0.969  0.3231 -0.0367  0.4459
14810TIP3    H165921   0.331   3.297   0.989  0.7477  1.4639  1.4987
14810TIP3    H265922   0.470   3.342   1.027  1.9144  0.0591 -0.8624
14811TIP3   OH265923   0.712   0.957  15.113 -0.7293 -0.1065  0.3208
14811TIP3    H165924   0.736   0.879  15.063 -1.0438 -0.3486  0.5409
14811TIP3    H265925   0.787   0.973  15.171  0.0453  0.7307 -0.8686
14812TIP3   OH265926   3.781   0.771   1.323 -0.1957 -0.3669 -0.6755
14812TIP3    H165927   3.832   0.845   1.357  0.0246 -0.3393 -1.0605
14812TIP3    H265928   3.690   0.793   1.345 -0.2715  0.6277 -1.8756
14813TIP3   OH265929   4.580   1.901   3.063 -0.7753  0.1815 -0.6582
14813TIP3    H165930   4.544   1.815   3.087  2.3876 -1.2372 -0.5993
14813TIP3    H265931   4.633   1.884   2.985 -0.5701  2.2334 -1.0167
14814TIP3   OH265932   4.370   3.798  12.406  0.5658 -1.0703  0.4772
14814TIP3    H165933   4.379   3.806  12.501 -0.4615  1.4138  0.4662
14814TIP3    H265934   4.302   3.731  12.394 -0.0955 -0.6331  1.5685
14815TIP3   OH265935   0.129   4.475   3.898 -0.3002 -0.3208  0.1104
14815TIP3    H165936   0.035   4.462   3.881 -0.3526 -1.8708  1.4087
14815TIP3    H265937   0.133   4.499   3.991  0.5962 -0.3345  0.0787
14816TIP3   OH265938   2.587   2.684   4.242  0.6022  0.6162 -0.1757
14816TIP3    H165939   2.653   2.682   4.312  2.2477 -0.7281 -1.6351
14816TIP3    H265940   2.629   2.732   4.171 -0.8827  1.6273 -0.4084
14817TIP3   OH265941   4.572   6.830   2.669  0.1306 -0.1071  0.2254
14817TIP3    H165942   4.591   6.761   2.733 -0.6954  1.1055  1.8549
14817TIP3    H265943   4.599   6.910   2.713 -0.9093  0.8140 -0.7702
14818TIP3   OH265944   6.785   3.572   3.254  0.3174  0.3561  0.2881
14818TIP3    H165945   6.770   3.631   3.328  0.7957  0.2445  0.4794
14818TIP3    H265946   6.874   3.540   3.267 -0.2827 -1.2367  0.7739
14819TIP3   OH265947   0.005   1.687  10.970  0.0651 -0.4885  0.6909
14819TIP3    H165948  -0.010   1.691  10.876  0.5954  1.1939  0.6422
14819TIP3    H265949  -0.067   1.634  11.004  0.8426 -2.6482 -0.8318
14820TIP3   OH265950   2.343   5.106   4.353  0.6360 -0.5622  0.5439
14820TIP3    H165951   2.312   5.033   4.406 -1.4357 -0.1878 -0.0603
14820TIP3    H265952   2.297   5.096   4.269  1.8746  0.2990 -0.2735
14821TIP3   OH265953   3.792   2.740  15.038  0.6637  0.2093 -0.0962
14821TIP3    H165954   3.778   2.651  15.069  1.4186 -0.2222 -0.9331
14821TIP3    H265955   3.755   2.742  14.950  0.8075  0.6710 -0.1532
14822TIP3   OH265956   3.932   1.946   2.846 -0.1275 -0.6714 -0.0498
14822TIP3    H165957   3.981   2.008   2.900 -0.5391 -1.1567  0.9150
14822TIP3    H265958   3.998   1.906   2.790  0.0840  0.9428 -1.0157
14823TIP3   OH265959   0.960   1.615   0.205  0.3900 -1.0007  0.5834
14823TIP3    H165960   1.040   1.565   0.224  0.9750 -0.2564  0.1725
14823TIP3    H265961   0.889   1.555   0.225  1.0456 -1.5991  1.2165
14824TIP3   OH265962   5.820   1.919   2.900 -0.1935  0.5528 -0.2909
14824TIP3    H165963   5.841   1.893   2.990  1.8325  0.9470 -0.6170
14824TIP3    H265964   5.759   1.992   2.910  2.6764  2.9851  0.9445
14825TIP3   OH265965   3.134   1.739  14.734  0.2592  0.4964  0.0756
14825TIP3    H165966   3.195   1.712  14.802  1.0589 -4.0129 -2.0405
14825TIP3    H265967   3.048   1.718  14.770  0.6152 -1.0185  0.1175
14826TIP3   OH265968   4.629   4.466   3.633 -0.1783  0.2632  0.4247
14826TIP3    H165969   4.622   4.484   3.727 -1.5233  0.9245  0.2092
14826TIP3    H265970   4.546   4.496   3.596  0.3228 -0.0199 -0.9813
14827TIP3   OH265971   1.750   5.454   0.369  0.2098  0.0036  0.0878
14827TIP3    H165972   1.662   5.484   0.390  0.0857  0.3893 -0.9143
14827TIP3    H265973   1.741   5.410   0.284  1.2648  1.6501 -0.9359
14828TIP3   OH265974   4.565   3.182  12.928  0.2538 -0.2523 -0.1589
14828TIP3    H165975   4.534   3.266  12.960 -2.0499 -0.6029 -1.2526
14828TIP3    H265976   4.501   3.118  12.960  1.5642 -1.5133  0.0602
14829TIP3   OH265977   4.414   4.880   0.570 -0.9718 -0.0236 -0.5304
14829TIP3    H165978   4.476   4.915   0.634 -0.4201  0.2014 -1.1869
14829TIP3    H265979   4.467   4.856   0.494 -1.1832 -2.9880  0.1161
14830TIP3   OH265980   2.743   5.796   4.820 -0.0524 -0.8712 -0.6301
14830TIP3    H165981   2.838   5.794   4.818  0.0253 -1.1591  1.4841
14830TIP3    H265982   2.721   5.888   4.833 -0.2191 -0.4314 -3.3024
14831TIP3   OH265983   6.237   0.262  13.293 -0.1732  0.2252  0.0599
14831TIP3    H165984   6.328   0.288  13.278 -1.1276  3.4559 -0.9508
14831TIP3    H265985   6.220   0.196  13.225  1.0016  0.6169 -0.6560
14832TIP3   OH265986   3.739   6.531  11.223 -0.4473 -0.7250 -0.3354
14832TIP3    H165987   3.776   6.544  11.310 -0.7418  1.9032 -0.5272
14832TIP3    H265988   3.645   6.522  11.237 -0.5267 -0.0026 -0.4058
14833TIP3   OH265989   4.662   0.430   3.651  0.0686 -0.0857 -0.5265
14833TIP3    H165990   4.747   0.388   3.637  0.1216 -0.0932 -0.1875
14833TIP3    H265991   4.681   0.524   3.644 -0.3124 -0.1340 -2.7600
14834TIP3   OH265992   2.364   5.325   3.007 -0.1284 -0.1950 -0.2274
14834TIP3    H165993   2.426   5.322   3.080  0.1179 -0.5982 -0.4537
14834TIP3    H265994   2.329   5.236   3.002 -0.5889 -0.0208 -0.2236
14835TIP3   OH265995   3.107   5.455  13.987  0.1380 -0.4249 -0.4095
14835TIP3    H165996   3.157   5.535  13.967 -0.4267 -0.0164 -0.2337
14835TIP3    H265997   3.142   5.425  14.070  1.8807 -1.6275 -1.5298
14836TIP3   OH265998   5.728   0.306   4.839 -0.2343  0.1762  0.2750
14836TIP3    H165999   5.636   0.283   4.850 -0.7687  2.3313  0.8443
14836TIP3    H266000   5.757   0.337   4.925  0.8037  0.2337 -0.0688
14837TIP3   OH266001   4.541   4.681  13.350  0.5474 -0.4571 -0.7552
14837TIP3    H166002   4.454   4.642  13.348 -0.1978  1.0683  0.1025
14837TIP3    H266003   4.533   4.759  13.295  0.3417  1.5922  1.9738
14838TIP3   OH266004   6.014   6.247   5.022  0.2210 -0.1201  0.0459
14838TIP3    H166005   6.028   6.342   5.021 -0.1428 -0.0646  0.0007
14838TIP3    H266006   6.100   6.210   5.038  0.1144  0.2889  1.8405
14839TIP3   OH266007   1.628   2.528   0.176 -0.1838  0.1725  0.4146
14839TIP3    H166008   1.611   2.481   0.095 -0.3760 -0.0176  0.5651
14839TIP3    H266009   1.580   2.611   0.167  0.6354  0.6040 -0.0996
14840TIP3   OH266010   5.713   1.348   0.375 -0.2952 -0.2131 -0.1386
14840TIP3    H166011   5.633   1.295   0.381 -1.2135  1.1794  0.6102
14840TIP3    H266012   5.697   1.406   0.301 -0.2300  0.4501  0.3598
14841TIP3   OH266013   0.436   6.285  10.586 -0.9308  0.1964 -0.0713
14841TIP3    H166014   0.519   6.299  10.630 -1.0150  2.1146 -0.4390
14841TIP3    H266015   0.371   6.328  10.641 -1.7475 -1.4753  0.3311
14842TIP3   OH266016   6.283   4.259   2.733 -0.3729  0.2784 -1.0314
14842TIP3    H166017   6.366   4.304   2.749  0.0831 -0.9340  0.2230
14842TIP3    H266018   6.224   4.294   2.800 -0.3548 -0.0954 -0.8140
14843TIP3   OH266019   1.972   5.553   0.805  0.3029  0.2787 -0.0279
14843TIP3    H166020   1.988   5.468   0.763  0.3558  0.5268 -0.5151
14843TIP3    H266021   2.014   5.546   0.891  0.8777  0.0437 -0.3271
14844TIP3   OH266022   6.371   4.883  12.125 -0.4004 -0.4507  0.5525
14844TIP3    H166023   6.325   4.966  12.134  0.8673  0.4035 -0.5392
14844TIP3    H266024   6.460   4.901  12.157 -0.1178 -1.4012  0.3368
14845TIP3   OH266025   3.665   4.724   1.942 -0.4745 -0.0577  0.4861
14845TIP3    H166026   3.754   4.744   1.913 -0.9102  0.4508 -0.5533
14845TIP3    H266027   3.643   4.794   2.003 -1.2228  1.6007 -1.5474
14846TIP3   OH266028   5.771   2.203  13.940 -0.7966 -0.6468 -0.0572
14846TIP3    H166029   5.849   2.176  13.989 -0.8887 -0.8912 -0.0454
14846TIP3    H266030   5.698   2.176  13.995 -0.8943  1.2905  0.8601
14847TIP3   OH266031   5.681   5.638   5.940 -0.1224  0.9532 -0.2161
14847TIP3    H166032   5.633   5.656   5.858 -1.1713  2.5943  0.7028
14847TIP3    H266033   5.655   5.709   5.998  1.6279  0.5324  1.1316
14848TIP3   OH266034   3.647   2.728  14.536 -0.0008 -0.0413 -0.3327
14848TIP3    H166035   3.574   2.667  14.548  1.1805 -1.2082  1.3135
14848TIP3    H266036   3.689   2.700  14.455 -0.7065 -0.0563 -0.7014
14849TIP3   OH266037   2.612   4.942  11.263  0.9668  0.5610  0.7599
14849TIP3    H166038   2.604   4.918  11.355  0.9531 -1.6462  0.2282
14849TIP3    H266039   2.690   4.997  11.259  1.4218  0.0358  1.9617
14850TIP3   OH266040   4.017   0.599  14.742  0.3773  0.4953  0.0240
14850TIP3    H166041   4.111   0.614  14.737  0.5631 -0.8371 -1.3417
14850TIP3    H266042   3.995   0.557  14.659 -1.8587  2.8685 -0.7362
14851TIP3   OH266043   4.674   2.244   5.397  0.1765 -0.1939 -0.1408
14851TIP3    H166044   4.713   2.223   5.313 -0.8119  1.5122 -1.0689
14851TIP3    H266045   4.642   2.160   5.430  1.5495 -1.0585 -0.9217
14852TIP3   OH266046   2.213   4.645   2.587 -0.0130 -0.7157  0.1734
14852TIP3    H166047   2.162   4.575   2.627  0.3130 -1.1789 -0.1940
14852TIP3    H266048   2.281   4.665   2.651 -2.6502  2.4011  2.2798
14853TIP3   OH266049   0.402   3.193  11.363 -0.6262 -0.0961  0.0319
14853TIP3    H166050   0.496   3.201  11.344 -0.4680 -1.0923  0.3376
14853TIP3    H266051   0.394   3.108  11.406 -1.6917 -0.0662 -0.0982
14854TIP3   OH266052   4.334   0.113  13.868  0.0828 -0.4695 -0.4903
14854TIP3    H166053   4.426   0.088  13.878  0.0233 -0.7974 -0.7699
14854TIP3    H266054   4.291   0.073  13.943  0.3544  0.6395  0.2801
14855TIP3   OH266055   0.984   6.113   2.207  0.3693  0.4460 -0.1315
14855TIP3    H166056   0.935   6.055   2.149  1.5797 -0.9385  0.1504
14855TIP3    H266057   0.991   6.195   2.159 -1.8346  0.5608 -0.3368
14856TIP3   OH266058   3.036   1.082  16.993  0.3395 -1.0807  1.2735
14856TIP3    H166059   3.129   1.102  16.992  0.4871 -1.7259  0.1709
14856TIP3    H266060   2.995   1.152  16.943  0.2208 -0.7650  1.8075
14857TIP3   OH266061   2.257   4.334   4.808 -0.5271 -0.3996  0.2216
14857TIP3    H166062   2.214   4.413   4.840  0.5716  0.8556 -1.2355
14857TIP3    H266063   2.349   4.345   4.832 -0.1075 -0.5233 -1.2331
14858TIP3   OH266064   3.916   0.077  11.195 -0.3927 -0.0496 -0.2407
14858TIP3    H166065   3.872   0.068  11.110 -0.9553  1.2828 -0.1070
14858TIP3    H266066   3.854   0.127  11.248  0.5045  0.2263  0.5554
14859TIP3   OH266067   6.491   6.443   1.377  0.2905  0.1383 -0.1592
14859TIP3    H166068   6.497   6.394   1.295  0.7248 -0.5178  0.2557
14859TIP3    H266069   6.550   6.398   1.437  2.0197  2.1391 -0.2350
14860TIP3   OH266070   6.234   4.229   4.304 -0.2509  0.5999 -0.1483
14860TIP3    H166071   6.310   4.216   4.247 -0.4823 -0.2799 -0.2782
14860TIP3    H266072   6.257   4.184   4.385 -1.4210 -1.5818 -0.9128
14861TIP3   OH266073   2.124   1.391   2.447 -0.1832  0.0275 -0.1931
14861TIP3    H166074   2.065   1.351   2.383  0.0458  1.1555 -1.1283
14861TIP3    H266075   2.079   1.470   2.475  1.1418  1.2524 -1.4055
14862TIP3   OH266076   6.455   3.905   5.450  0.6118  0.2997  0.1233
14862TIP3    H166077   6.433   3.987   5.495 -0.3348  0.9962 -1.5310
14862TIP3    H266078   6.528   3.928   5.393  0.5216 -0.0892 -0.1473
14863TIP3   OH266079   1.256   1.890   3.675 -0.6027  0.3820  0.0485
14863TIP3    H166080   1.259   1.901   3.770  1.0183 -1.4403  0.2801
14863TIP3    H266081   1.221   1.973   3.643  0.9721  1.9931  2.0921
14864TIP3   OH266082   0.369   6.206   1.102  0.1120  0.3572  0.7436
14864TIP3    H166083   0.309   6.240   1.035  1.4348 -0.1306 -0.7573
14864TIP3    H266084   0.450   6.188   1.054  1.6917  1.5695  2.8014
14865TIP3   OH266085   1.763   0.169  17.002  0.5313  0.0347 -0.4357
14865TIP3    H166086   1.769   0.202  17.091 -2.2663 -0.5299  0.0743
14865TIP3    H266087   1.724   0.242  16.952 -0.9779 -0.7097 -0.4094
14866TIP3   OH266088   1.146   3.089  11.588  0.2798  0.1727  0.7628
14866TIP3    H166089   1.212   3.032  11.546 -0.6046  0.2879 -0.8621
14866TIP3    H266090   1.184   3.176  11.584 -0.1193  0.3115 -0.5936
14867TIP3   OH266091   1.807   4.530  15.182 -0.2985  0.4655  0.3492
14867TIP3    H166092   1.817   4.551  15.089 -1.4685  2.2361  0.5792
14867TIP3    H266093   1.770   4.609  15.220 -2.2025 -1.0732  1.8721
14868TIP3   OH266094   1.033   1.648   3.072  0.3834  0.5279  0.4893
14868TIP3    H166095   1.108   1.707   3.069  0.8926 -0.0833  1.0717
14868TIP3    H266096   1.049   1.583   3.004  2.8354 -2.4574  3.5749
14869TIP3   OH266097   0.975   1.452   1.120 -0.5877 -0.0017 -0.4925
14869TIP3    H166098   0.942   1.373   1.163 -0.6125  0.9282  1.2735
14869TIP3    H266099   1.062   1.466   1.158 -1.4292  1.9865  0.8825
14870TIP3   OH266100   3.414   5.967  13.694  0.7501 -0.6977 -0.4539
14870TIP3    H166101   3.477   5.912  13.647 -0.5576 -1.9852 -0.7647
14870TIP3    H266102   3.467   6.037  13.731  2.1248 -0.8100 -2.0895
14871TIP3   OH266103   4.618   5.418  16.689 -0.3568  0.4575  0.1680
14871TIP3    H166104   4.674   5.474  16.636 -1.7350  1.4050 -0.3509
14871TIP3    H266105   4.630   5.451  16.778  0.0539  0.5166  0.0961
14872TIP3   OH266106   6.157   2.964  12.064  0.0201  0.2697 -0.4501
14872TIP3    H166107   6.080   3.021  12.071 -0.6859 -0.4281 -2.0676
14872TIP3    H266108   6.122   2.880  12.033  1.2248 -0.6111  0.4627
14873TIP3   OH266109   4.741   1.307   4.174  0.8611 -0.6342  0.6810
14873TIP3    H166110   4.740   1.371   4.245  0.8739 -0.8414  0.8702
14873TIP3    H266111   4.767   1.225   4.216 -0.6213 -1.1035  0.7375
14874TIP3   OH266112   4.213   1.594  14.552  0.1880  0.3373 -0.1946
14874TIP3    H166113   4.265   1.577  14.473  0.4335  1.5800 -0.3172
14874TIP3    H266114   4.185   1.507  14.581 -0.2529 -0.1288 -1.8846
14875TIP3   OH266115   5.722   4.088  13.618 -0.0035  0.3286  0.0424
14875TIP3    H166116   5.817   4.102  13.611  0.4864 -2.2756  0.3137
14875TIP3    H266117   5.683   4.169  13.587  2.3173  1.4747 -0.0824
14876TIP3   OH266118   0.718   2.825  16.370  0.0409  0.1412  0.4161
14876TIP3    H166119   0.705   2.773  16.449 -1.1087 -0.6496 -0.2650
14876TIP3    H266120   0.648   2.796  16.310  0.8774  0.7108 -0.8846
14877TIP3   OH266121   3.211   4.747  14.506 -0.0039 -0.8896  0.1539
14877TIP3    H166122   3.174   4.662  14.528  0.2082 -0.3126  3.0663
14877TIP3    H266123   3.304   4.729  14.491 -0.4718 -1.5872 -2.5003
14878TIP3   OH266124   1.291   1.174  15.895 -0.2701  0.8533  0.5519
14878TIP3    H166125   1.266   1.142  15.809 -0.2737  0.0700  0.8410
14878TIP3    H266126   1.372   1.223  15.880  0.7065 -0.7768  0.3739
14879TIP3   OH266127   1.485   5.793   2.776 -0.6538  0.0284 -0.2986
14879TIP3    H166128   1.441   5.876   2.756 -2.2926 -1.3292 -2.9883
14879TIP3    H266129   1.420   5.741   2.823 -0.2861 -0.3616 -0.2068
14880TIP3   OH266130   2.011   6.012   1.194 -0.2791  0.6776  0.2474
14880TIP3    H166131   1.925   6.010   1.151  0.7051  1.2821 -1.8922
14880TIP3    H266132   2.048   5.926   1.177 -0.3081  0.5336  0.8816
14881TIP3   OH266133   1.332   3.941  13.409  0.3389  0.3246  0.2350
14881TIP3    H166134   1.421   3.919  13.437  0.1380 -2.0778 -0.7688
14881TIP3    H266135   1.291   3.856  13.390 -1.6559  1.4495 -0.8273
14882TIP3   OH266136   4.783   4.198  11.202 -0.5405 -0.5753  0.0247
14882TIP3    H166137   4.795   4.109  11.236  0.4022  0.1591  1.7522
14882TIP3    H266138   4.794   4.254  11.278  0.1027  1.1109 -1.2493
14883TIP3   OH266139   3.972   3.889   0.278 -0.0702 -0.0703 -0.2928
14883TIP3    H166140   4.065   3.895   0.258 -0.0228  1.0607  0.2051
14883TIP3    H266141   3.929   3.889   0.192  0.3920 -1.0320 -0.5398
14884TIP3   OH266142   2.931   3.136  15.310 -0.1122 -0.0891  0.3693
14884TIP3    H166143   2.974   3.214  15.276 -0.1030  0.7201  2.1238
14884TIP3    H266144   2.837   3.154  15.300 -0.1589  0.8450  2.1174
14885TIP3   OH266145   3.266   0.247   3.267 -0.3092  0.2483 -0.4684
14885TIP3    H166146   3.259   0.317   3.332  1.5844  0.4098 -0.3778
14885TIP3    H266147   3.339   0.193   3.297 -0.1134 -0.3201 -1.8740
14886TIP3   OH266148   6.255   1.734   3.723 -0.0443  0.2219  0.6401
14886TIP3    H166149   6.160   1.719   3.730  0.0280  0.0137  1.3129
14886TIP3    H266150   6.263   1.824   3.692 -0.4658  0.4012  1.0326
14887TIP3   OH266151   0.485   6.752   5.057  0.4408 -0.1742 -0.2608
14887TIP3    H166152   0.450   6.797   5.134  1.7390  3.1205 -1.4352
14887TIP3    H266153   0.580   6.756   5.067  0.6201 -1.2337 -1.2570
14888TIP3   OH266154   5.479   3.668   2.658  0.0314 -0.5591 -0.2290
14888TIP3    H166155   5.450   3.757   2.640  2.1340 -0.0704 -1.5938
14888TIP3    H266156   5.462   3.620   2.577  1.1131 -0.7642 -0.3448
14889TIP3   OH266157   0.716   0.001   1.340  0.4575 -0.2688  0.1941
14889TIP3    H166158   0.753  -0.027   1.423 -1.4585 -2.7952  0.2864
14889TIP3    H266159   0.679   0.088   1.358 -1.3066 -1.4097  2.4667
14890TIP3   OH266160   1.491   6.446   1.109  0.3830  0.5724  0.0211
14890TIP3    H166161   1.564   6.433   1.170 -1.2975 -2.4059  1.6118
14890TIP3    H266162   1.509   6.386   1.036 -0.4313 -0.1811  0.4233
14891TIP3   OH266163   1.707   2.807  12.952 -0.5315  0.1033 -0.6592
14891TIP3    H166164   1.686   2.826  13.044 -0.2447  2.1043 -0.9700
14891TIP3    H266165   1.797   2.774  12.955  0.0391  1.6078 -0.3302
14892TIP3   OH266166   6.001   1.435   1.649 -0.5211 -0.1814  0.1053
14892TIP3    H166167   6.039   1.490   1.581  0.6277 -1.1068 -0.0307
14892TIP3    H266168   5.937   1.380   1.604  0.3476 -0.9008 -0.2747
14893TIP3   OH266169   4.279   3.452  15.911  0.2574 -0.8496 -0.0666
14893TIP3    H166170   4.281   3.543  15.942 -0.1328 -1.6118  2.3879
14893TIP3    H266171   4.354   3.446  15.851  0.9133  0.8192  0.5098
14894TIP3   OH266172   6.086   2.489  11.193  0.1741  0.3634  0.7474
14894TIP3    H166173   6.073   2.492  11.288  0.3513  1.0809  0.7577
14894TIP3    H266174   6.135   2.569  11.174 -0.3431  0.5007 -0.0237
14895TIP3   OH266175   6.125   1.643   2.756  0.1755 -0.2169 -0.5232
14895TIP3    H166176   6.121   1.610   2.666  1.5710 -2.6842  0.2055
14895TIP3    H266177   6.034   1.659   2.780 -0.3603 -1.0049 -1.8988
14896TIP3   OH266178   4.648   4.101   1.991 -0.2810 -0.3554 -0.4303
14896TIP3    H166179   4.680   4.189   1.973 -0.8491 -0.0648 -0.0872
14896TIP3    H266180   4.565   4.116   2.038 -0.3198 -1.0704 -0.2649
14897TIP3   OH266181   2.614   1.283   3.101 -0.0583  0.3263 -0.1007
14897TIP3    H166182   2.530   1.239   3.084 -0.0322  0.6794 -1.1956
14897TIP3    H266183   2.594   1.347   3.169 -0.6205  0.2523 -0.1906
14898TIP3   OH266184   2.250   0.509   3.321 -0.5638  0.0488  0.1924
14898TIP3    H166185   2.325   0.565   3.300  0.4025 -0.9282  0.9314
14898TIP3    H266186   2.227   0.531   3.411 -0.2161 -0.6840  0.4683
14899TIP3   OH266187   2.279   3.437   5.410  0.5559 -0.6299 -0.7194
14899TIP3    H166188   2.320   3.475   5.333  2.0913  0.1050  0.4255
14899TIP3    H266189   2.201   3.491   5.424  1.5528  0.7712 -0.3756
14900TIP3   OH266190   3.268   1.950  15.558 -0.3790 -0.2595 -0.5025
14900TIP3    H166191   3.295   2.018  15.496 -1.9752  0.3529 -0.5886
14900TIP3    H266192   3.215   1.890  15.505 -1.3204 -0.0125  0.1284
14901TIP3   OH266193   3.672   1.791  13.247  0.0938  0.2195 -0.1056
14901TIP3    H166194   3.613   1.743  13.306 -0.6177  0.9321 -0.2194
14901TIP3    H266195   3.720   1.722  13.201 -0.9869 -0.4045 -0.3374
14902TIP3   OH266196   0.411   3.525  13.933 -0.2808  0.0693 -0.1047
14902TIP3    H166197   0.367   3.598  13.890 -1.2619 -0.3565  0.1475
14902TIP3    H266198   0.345   3.489  13.993  0.4830 -0.4514  0.4402
14903TIP3   OH266199   2.484   2.777  16.747 -0.6206  0.5354  0.1294
14903TIP3    H166200   2.466   2.811  16.835 -0.8501 -0.1082  0.3315
14903TIP3    H266201   2.400   2.744  16.716 -0.2439 -0.5772  0.2531
14904TIP3   OH266202   3.507   2.079   2.951 -0.2578  0.0035 -0.3512
14904TIP3    H166203   3.581   2.119   2.904 -0.9182  1.5170 -0.1778
14904TIP3    H266204   3.470   2.152   3.001 -1.8274 -0.7485 -0.3905
14905TIP3   OH266205   3.150   3.136   5.361  0.5946  0.4031 -0.5390
14905TIP3    H166206   3.171   3.097   5.277  0.5342 -0.3106 -0.2276
14905TIP3    H266207   3.116   3.064   5.414  0.3347  0.9034 -0.0036
14906TIP3   OH266208   3.933   5.395   0.202  0.0091 -0.6038 -0.3221
14906TIP3    H166209   3.907   5.391   0.110 -0.2784 -0.3831 -0.2517
14906TIP3    H266210   3.886   5.324   0.244 -0.3029 -0.3535 -0.2407
14907TIP3   OH266211   0.666   0.396   2.627  0.1032  0.3877 -0.1294
14907TIP3    H166212   0.701   0.425   2.711 -0.4252  1.2305 -0.1855
14907TIP3    H266213   0.740   0.402   2.566  0.1728  0.9830  0.0091
14908TIP3   OH266214   1.447   0.078   5.430 -0.8232 -0.0801  0.1255
14908TIP3    H166215   1.510   0.110   5.366 -0.2651 -1.1407  0.1181
14908TIP3    H266216   1.374   0.140   5.426 -0.8097 -0.1319 -1.5425
14909TIP3   OH266217   2.381   0.652  12.624 -0.2599 -0.1482  0.1588
14909TIP3    H166218   2.419   0.618  12.705 -2.0632 -1.3737  0.5427
14909TIP3    H266219   2.299   0.693  12.650 -1.1886 -1.1273 -1.0850
14910TIP3   OH266220   4.341   1.492   6.027  0.0759  0.3542 -0.2555
14910TIP3    H166221   4.324   1.583   6.049  0.9253 -0.0652  2.4985
14910TIP3    H266222   4.259   1.446   6.048  0.0239  0.3221 -0.5278
14911TIP3   OH266223   4.634   1.630   0.745 -0.2907  0.5672  0.5981
14911TIP3    H166224   4.710   1.666   0.700 -1.5986  0.9260 -1.4463
14911TIP3    H266225   4.618   1.545   0.703 -0.4326  0.0179  1.7058
14912TIP3   OH266226   5.594   3.959  13.863  0.0287  0.1070  0.0969
14912TIP3    H166227   5.556   4.038  13.901 -1.4794  0.0852 -1.2658
14912TIP3    H266228   5.680   3.987  13.831 -0.0578  0.9236  0.5543
14913TIP3   OH266229   1.453   6.088   1.301 -0.2359 -0.3855 -0.4713
14913TIP3    H166230   1.527   6.027   1.295 -0.0332 -0.0939 -1.1271
14913TIP3    H266231   1.441   6.103   1.395  1.8163  1.0584 -0.3682
14914TIP3   OH266232   3.070   5.621  13.140 -0.0923  0.3168  0.1990
14914TIP3    H166233   3.099   5.539  13.100  0.2155 -0.3453  1.6836
14914TIP3    H266234   2.976   5.623  13.125  0.1759  0.7907 -1.7008
14915TIP3   OH266235   1.907   4.350   3.375 -0.3090 -0.2302  0.4389
14915TIP3    H166236   1.960   4.367   3.453 -1.4135  0.4409  1.0702
14915TIP3    H266237   1.909   4.433   3.327 -1.1819 -0.0515  0.7114
14916TIP3   OH266238   5.729   5.664   5.025 -0.2396  0.5897  0.5532
14916TIP3    H166239   5.716   5.586   5.078 -2.5365 -0.2462 -1.1076
14916TIP3    H266240   5.641   5.695   5.004  0.6069  2.6175 -0.3030
14917TIP3   OH266241   0.462   5.280  16.767 -0.1798 -0.4135  0.1275
14917TIP3    H166242   0.398   5.306  16.701  0.8035  0.1388 -0.6375
14917TIP3    H266243   0.414   5.284  16.850 -1.2884 -0.5960 -0.4889
14918TIP3   OH266244   1.198   2.489  15.042  0.2583 -0.3062 -0.7851
14918TIP3    H166245   1.114   2.512  15.002 -0.2127 -0.5677  0.0286
14918TIP3    H266246   1.212   2.398  15.016  1.1143  0.2232 -2.2907
14919TIP3   OH266247   1.774   4.920  12.028  0.0766  0.0018 -0.0432
14919TIP3    H166248   1.791   4.970  12.107 -1.2165  2.1179 -1.0204
14919TIP3    H266249   1.849   4.936  11.971 -0.0573  0.3673 -0.1198
14920TIP3   OH266250   1.123   6.630  13.696 -0.3545 -0.5013 -0.0964
14920TIP3    H166251   1.083   6.554  13.654 -2.7829 -0.4432  1.8438
14920TIP3    H266252   1.094   6.705  13.644  1.7539 -0.7844 -1.8050
14921TIP3   OH266253   1.375   4.074   4.261  0.1156 -0.0543  0.0357
14921TIP3    H166254   1.387   4.130   4.338  0.4690 -1.0609  0.7354
14921TIP3    H266255   1.454   4.090   4.208 -0.0066  0.4480 -0.0061
14922TIP3   OH266256   2.060   5.221  12.709 -0.3544 -0.2729  0.5275
14922TIP3    H166257   2.092   5.259  12.791  1.7259 -2.4871  0.8315
14922TIP3    H266258   1.965   5.214  12.722 -0.2796  0.8427  2.0820
14923TIP3   OH266259   5.048   0.139   1.224  0.1877  0.2633 -0.6419
14923TIP3    H166260   5.099   0.061   1.202  0.6036  0.3694 -0.0908
14923TIP3    H266261   5.114   0.206   1.241 -0.1621  0.6745 -0.8796
14924TIP3   OH266262   3.328   3.321   4.968  0.0583 -0.2590  0.9003
14924TIP3    H166263   3.265   3.383   4.932  0.7370  0.1010  0.3232
14924TIP3    H266264   3.322   3.333   5.063  0.1753  0.6790  0.7953
14925TIP3   OH266265   0.386   6.334   2.968  0.1864  0.2908  0.1307
14925TIP3    H166266   0.297   6.347   2.936 -0.2554 -0.3934  1.0432
14925TIP3    H266267   0.406   6.414   3.017 -0.0535  0.3176  0.1871
14926TIP3   OH266268   5.116   0.190   3.211  0.2731  0.0566 -0.2701
14926TIP3    H166269   5.210   0.171   3.222 -0.0920 -1.5304  0.4217
14926TIP3    H266270   5.077   0.167   3.295 -0.9549 -0.8507 -1.0519
14927TIP3   OH266271   2.993   3.315  13.592 -0.2065  0.3504  0.2226
14927TIP3    H166272   2.899   3.315  13.608 -0.0534  0.2863  1.2330
14927TIP3    H266273   3.030   3.276  13.672  0.6081 -0.5537 -0.5763
14928TIP3   OH266274   3.827   0.929  11.144 -0.3384  0.6242  0.0789
14928TIP3    H166275   3.801   0.889  11.227 -0.0765 -0.1405 -0.2010
14928TIP3    H266276   3.745   0.938  11.096 -0.3095 -0.3530 -0.1812
14929TIP3   OH266277   1.223   4.729   6.422 -0.1518 -0.4937  0.0303
14929TIP3    H166278   1.199   4.755   6.511  0.8479 -2.4368  0.9277
14929TIP3    H266279   1.311   4.693   6.430 -0.3309 -1.3903 -1.6055
14930TIP3   OH266280   3.847   4.498  13.140  0.1316  0.4496 -0.4390
14930TIP3    H166281   3.849   4.533  13.051 -3.3177 -0.8653 -1.1949
14930TIP3    H266282   3.776   4.545  13.183 -0.4519 -1.2037  0.5058
14931TIP3   OH266283   2.172   5.493   1.987  0.1565  0.2114 -0.5025
14931TIP3    H166284   2.213   5.438   1.920  1.5425 -1.4601  1.5723
14931TIP3    H266285   2.240   5.555   2.013  0.1218 -0.0754  0.3074
14932TIP3   OH266286   0.708   2.619  14.470 -0.0437  0.1650  0.0015
14932TIP3    H166287   0.680   2.702  14.431 -0.4606  0.7477  1.4776
14932TIP3    H266288   0.725   2.562  14.395 -0.8232  1.2292 -1.0228
14933TIP3   OH266289   2.528   3.416   5.001  0.2208 -0.3058 -0.1322
14933TIP3    H166290   2.588   3.465   5.057 -1.1412 -0.3086  1.4191
14933TIP3    H266291   2.449   3.471   4.998 -1.1085 -2.0395  1.1340
14934TIP3   OH266292   0.816   6.381  14.359  0.2997 -0.4402 -0.2951
14934TIP3    H166293   0.822   6.421  14.273 -3.5009 -1.6196 -1.3165
14934TIP3    H266294   0.797   6.453  14.418 -0.7357 -0.0263 -1.1128
14935TIP3   OH266295   0.757   1.794  15.050 -0.6989  0.1256  1.0850
14935TIP3    H166296   0.733   1.716  15.000  0.4231  1.5797 -1.9300
14935TIP3    H266297   0.732   1.868  14.994  1.4523  1.8659  2.2390
14936TIP3   OH266298   5.141   3.490   0.298 -0.5914 -0.0917 -0.3488
14936TIP3    H166299   5.117   3.531   0.381 -0.0154 -0.0827 -0.1812
14936TIP3    H266300   5.135   3.396   0.315  0.5390 -0.1127  0.0264
14937TIP3   OH266301   3.417   0.905  13.585  0.0959  0.3224 -0.3045
14937TIP3    H166302   3.394   0.817  13.614  0.9002 -0.3434 -1.6091
14937TIP3    H266303   3.338   0.938  13.543 -0.4469  0.5426  0.8384
14938TIP3   OH266304   4.247   3.372  11.346 -0.5299 -0.3145  0.0481
14938TIP3    H166305   4.176   3.400  11.404 -0.0718  3.0119 -0.8122
14938TIP3    H266306   4.325   3.419  11.378 -0.0520  0.8592 -2.5443
14939TIP3   OH266307   0.681   2.907   4.760  0.0347  0.4319 -0.6373
14939TIP3    H166308   0.587   2.925   4.751  0.0875  0.7736 -0.5145
14939TIP3    H266309   0.709   2.963   4.832  0.1223 -0.4489  0.0372
14940TIP3   OH266310   2.826   6.219  13.149  0.0149  0.2347  0.9235
14940TIP3    H166311   2.808   6.273  13.072  1.1491  1.4182  1.4413
14940TIP3    H266312   2.896   6.265  13.195  0.0120 -0.9314  2.1812
14941TIP3   OH266313   1.720   4.446  17.030 -0.6933 -0.2772  0.3576
14941TIP3    H166314   1.657   4.493  16.974  0.0974 -0.0875 -0.3942
14941TIP3    H266315   1.669   4.374  17.068 -1.2550 -0.4215 -0.6267
14942TIP3   OH266316   2.972   3.409   1.928  0.3335  1.0640 -0.3722
14942TIP3    H166317   2.964   3.504   1.916  0.7656  0.9760 -1.4757
14942TIP3    H266318   2.884   3.375   1.911  0.3502  1.1976 -0.7326
14943TIP3   OH266319   3.983   4.786   3.812  0.3355 -0.1079  0.1157
14943TIP3    H166320   3.939   4.837   3.880  0.4758  1.7399 -1.1143
14943TIP3    H266321   4.053   4.739   3.859 -0.5747 -0.1472  1.4794
14944TIP3   OH266322   6.301   5.121   4.390  0.1241 -0.1100  0.2008
14944TIP3    H166323   6.216   5.131   4.434 -0.3814  0.4911 -0.8778
14944TIP3    H266324   6.331   5.210   4.376  0.2947 -0.2931 -0.6202
14945TIP3   OH266325   2.313   5.480   1.371  0.2120  0.2569  0.1056
14945TIP3    H166326   2.314   5.395   1.327 -0.1528  0.3072 -0.0047
14945TIP3    H266327   2.405   5.497   1.392  0.6134  0.8694 -1.9123
14946TIP3   OH266328   0.190   0.155   5.736 -0.0886 -0.1315 -0.0489
14946TIP3    H166329   0.243   0.091   5.783 -0.6565 -0.4132  0.2165
14946TIP3    H266330   0.240   0.236   5.742  1.3745 -0.8521 -1.6706
14947TIP3   OH266331   4.285   0.853  16.118 -0.3637 -0.0991 -0.1408
14947TIP3    H166332   4.301   0.762  16.142  0.0300 -0.2837 -1.0826
14947TIP3    H266333   4.334   0.904  16.183 -0.3230 -0.5545  0.1929
14948TIP3   OH266334   6.422   3.082  16.261  0.5260  0.1654  0.5682
14948TIP3    H166335   6.513   3.111  16.258 -0.2148  2.6871  0.7184
14948TIP3    H266336   6.381   3.135  16.329 -1.1168 -0.8245  0.4174
14949TIP3   OH266337   3.359   0.641   2.982  0.1629  0.2266  0.5126
14949TIP3    H166338   3.434   0.668   3.035  0.9871 -0.7712 -0.1020
14949TIP3    H266339   3.338   0.717   2.928  0.8599  0.4486  0.5559
14950TIP3   OH266340   5.026   1.981  12.804  0.1478  0.2781 -0.1078
14950TIP3    H166341   5.001   1.976  12.896  1.3857  1.8195  0.3531
14950TIP3    H266342   5.112   1.941  12.800  0.1781  0.3809 -0.5593
14951TIP3   OH266343   0.029   3.968   3.484  0.5524  0.0502 -0.1246
14951TIP3    H166344  -0.049   3.996   3.437  0.2570  1.3267  1.0683
14951TIP3    H266345   0.007   3.980   3.576  2.1943  0.5682  0.2291
14952TIP3   OH266346   0.731   6.251   2.527  0.1991  0.1644 -0.4357
14952TIP3    H166347   0.814   6.233   2.572  0.1480  0.7482 -0.1036
14952TIP3    H266348   0.705   6.166   2.490  0.3317 -0.2916  0.4834
14953TIP3   OH266349   2.152   3.339   6.471  0.1894  0.6980  0.1692
14953TIP3    H166350   2.233   3.354   6.519  1.2370 -1.3394 -0.8460
14953TIP3    H266351   2.130   3.248   6.490 -1.4899  1.0048 -0.1496
14954TIP3   OH266352   4.076   2.643   5.038 -0.0142  0.0597  0.3406
14954TIP3    H166353   4.087   2.714   5.101  0.9878 -1.3693  1.8457
14954TIP3    H266354   4.166   2.618   5.014 -0.3537  0.6453 -1.8194
14955TIP3   OH266355   1.848   6.711  14.096  0.1342 -0.1055 -0.4041
14955TIP3    H166356   1.907   6.778  14.062 -1.6857  1.8985  0.1265
14955TIP3    H266357   1.760   6.743  14.073 -0.8621 -1.7825  0.8339
14956TIP3   OH266358   2.843   2.732   5.831 -0.6167  0.1472 -0.4753
14956TIP3    H166359   2.935   2.751   5.815 -1.1161  1.1459 -2.5688
14956TIP3    H266360   2.797   2.813   5.808 -2.0941 -0.6928 -0.6542
14957TIP3   OH266361   4.146   5.289   6.787 -0.3906 -0.0228  0.3775
14957TIP3    H166362   4.072   5.240   6.821 -0.4936  0.5744  1.0362
14957TIP3    H266363   4.178   5.237   6.713 -1.6485 -0.1353 -0.1065
14958TIP3   OH266364   2.533   4.845   5.729  0.2996  0.8878 -0.1451
14958TIP3    H166365   2.584   4.898   5.790 -0.3553  2.5185 -0.9679
14958TIP3    H266366   2.454   4.821   5.778 -0.4372  2.5729 -0.4606
14959TIP3   OH266367   0.247   6.255   3.633  0.1334  0.5374 -0.0185
14959TIP3    H166368   0.322   6.312   3.653  0.1769  1.2895 -2.0172
14959TIP3    H266369   0.176   6.316   3.611 -0.4380 -0.1731 -0.1889
14960TIP3   OH266370   5.692   5.041   3.340 -0.0160 -0.0764  0.3574
14960TIP3    H166371   5.717   5.133   3.345  0.3432 -0.0940 -0.9183
14960TIP3    H266372   5.771   4.995   3.313 -0.3957 -0.6483  0.1817
14961TIP3   OH266373   1.151   6.543   2.932 -0.5378 -1.1134  0.3492
14961TIP3    H166374   1.062   6.576   2.936 -0.4325 -0.2035 -2.5096
14961TIP3    H266375   1.142   6.454   2.899 -0.3826 -0.9128 -0.2397
14962TIP3   OH266376   2.070   5.768  13.055  0.2671 -0.3899 -0.5095
14962TIP3    H166377   2.020   5.771  12.973  0.2888  0.3977 -0.4973
14962TIP3    H266378   2.140   5.705  13.038  1.4482  1.2137 -1.7707
14963TIP3   OH266379   2.767   4.449  12.525  0.0163  0.3114  0.3510
14963TIP3    H166380   2.854   4.410  12.513 -0.4905 -0.8840  0.4607
14963TIP3    H266381   2.759   4.461  12.620 -0.9803 -2.1080  0.6172
14964TIP3   OH266382   3.952   5.745  12.539  0.3122 -0.2478  0.1853
14964TIP3    H166383   3.932   5.656  12.512 -1.7762  0.0201  0.6821
14964TIP3    H266384   3.883   5.799  12.500  1.7610  1.2477 -0.4634
14965TIP3   OH266385   0.847   5.199  17.101 -0.5590 -0.2141  0.3739
14965TIP3    H166386   0.911   5.266  17.076  2.2974 -2.2026  1.7658
14965TIP3    H266387   0.852   5.195  17.197  0.3259 -3.1429  0.3144
14966TIP3   OH266388   6.518   4.218  11.697 -0.1348  0.3510  0.4355
14966TIP3    H166389   6.539   4.312  11.699 -0.7336  0.5836 -1.6667
14966TIP3    H266390   6.557   4.183  11.776  1.3253  2.1396  0.5696
14967TIP3   OH266391   1.231   0.782  13.817  0.2245  0.0558 -0.2341
14967TIP3    H166392   1.226   0.695  13.779  0.9650 -0.1117  0.0484
14967TIP3    H266393   1.311   0.782  13.869  0.4393  1.0262 -0.5415
14968TIP3   OH266394   4.638   2.471  14.173  0.0331  0.2849 -0.3780
14968TIP3    H166395   4.654   2.495  14.082 -1.3577 -1.5042 -1.1595
14968TIP3    H266396   4.686   2.389  14.185 -1.1472 -0.3811 -0.0387
14969TIP3   OH266397   3.230   4.378  10.877 -0.1227  0.6149  0.2430
14969TIP3    H166398   3.137   4.393  10.896 -0.9877  0.0984 -2.9790
14969TIP3    H266399   3.231   4.301  10.820  2.3433  0.4476  0.4024
14970TIP3   OH266400   0.884   3.777  13.266 -0.2380 -0.0835  0.4486
14970TIP3    H166401   0.858   3.718  13.195  0.8957 -1.8921  1.4604
14970TIP3    H266402   0.960   3.824  13.231 -0.1240 -0.4394  0.2094
14971TIP3   OH266403   0.284   3.739  15.879 -0.3571 -0.0064  0.4422
14971TIP3    H166404   0.324   3.659  15.913  2.9051  1.7477  1.1526
14971TIP3    H266405   0.251   3.714  15.792  0.9892 -2.0390  0.4519
14972TIP3   OH266406   3.550   0.779  16.264 -0.4395  0.0021  0.2613
14972TIP3    H166407   3.536   0.802  16.172  0.1626  0.4693  0.2806
14972TIP3    H266408   3.485   0.710  16.282 -0.0466 -0.6347 -0.7137
14973TIP3   OH266409   5.282   5.313  11.324  0.0193 -0.0923  0.0662
14973TIP3    H166410   5.335   5.256  11.269  0.1200  0.0255  0.0428
14973TIP3    H266411   5.198   5.319  11.278  0.7217  1.5918 -1.1123
14974TIP3   OH266412   1.861   3.148   3.256 -0.0565 -0.1313  0.1435
14974TIP3    H166413   1.842   3.089   3.329 -1.9088  0.2001 -0.0198
14974TIP3    H266414   1.934   3.202   3.287 -0.5910 -0.2143  1.6424
14975TIP3   OH266415   5.667   2.703  15.074 -0.3778 -0.2949 -0.4679
14975TIP3    H166416   5.759   2.718  15.052  0.1358 -2.6566 -0.1224
14975TIP3    H266417   5.664   2.615  15.110 -2.6525  0.0736  0.4303
14976TIP3   OH266418   3.505   1.113  11.548  0.5413 -0.4966  0.5105
14976TIP3    H166419   3.470   1.029  11.577 -1.3232 -1.0315 -2.7497
14976TIP3    H266420   3.428   1.169  11.537  1.3364  0.3709 -0.9625
14977TIP3   OH266421   6.005   4.561   1.110 -0.7255 -0.2842  0.5357
14977TIP3    H166422   5.926   4.600   1.074 -0.5776 -0.7773 -0.3393
14977TIP3    H266423   6.072   4.629   1.099 -0.8655 -0.1243  0.6574
14978TIP3   OH266424   0.489   1.742   4.940 -0.3309  0.6966 -0.1895
14978TIP3    H166425   0.535   1.795   5.005  1.7168  1.3488 -2.0133
14978TIP3    H266426   0.413   1.795   4.914  1.9674  3.2590 -2.3937
14979TIP3   OH266427   1.471   4.149   1.274  0.0658 -0.0414  0.1123
14979TIP3    H166428   1.499   4.226   1.225  2.3705 -0.6971  0.2664
14979TIP3    H266429   1.524   4.151   1.354  0.0569 -1.6822  0.1864
14980TIP3   OH266430   0.738   1.196  14.046  0.3522 -0.1780 -0.1713
14980TIP3    H166431   0.811   1.138  14.027  0.1428 -0.8741  1.0650
14980TIP3    H266432   0.773   1.259  14.109  0.0715 -0.0778 -0.1134
14981TIP3   OH266433   2.348   0.850   3.004 -0.0478  0.2037 -0.4435
14981TIP3    H166434   2.336   0.831   3.097  1.0386  0.7101 -0.1821
14981TIP3    H266435   2.327   0.769   2.959  0.6104 -0.4188  0.3471
14982TIP3   OH266436   5.611   0.788  11.032  0.0714  0.4958 -0.2743
14982TIP3    H166437   5.596   0.840  10.953 -0.8480  0.9535  0.1841
14982TIP3    H266438   5.663   0.844  11.089 -0.3852  0.6817 -0.0335
14983TIP3   OH266439   1.708   1.112   2.191 -0.5565  0.3223 -0.9151
14983TIP3    H166440   1.709   1.081   2.281 -1.8617  1.4512 -0.4571
14983TIP3    H266441   1.618   1.097   2.162 -0.5495  1.3282 -1.5059
14984TIP3   OH266442   6.808   5.617  14.513  0.5523 -0.3194  0.3395
14984TIP3    H166443   6.781   5.586  14.600  0.9838 -0.7046  0.3377
14984TIP3    H266444   6.752   5.568  14.453  1.3757 -1.2710  0.3264
14985TIP3   OH266445   0.247   3.337   2.579 -0.4809 -0.3195 -0.4881
14985TIP3    H166446   0.226   3.430   2.575 -1.5556 -0.5350 -0.0972
14985TIP3    H266447   0.227   3.311   2.669 -1.2567 -1.1631 -0.8846
14986TIP3   OH266448   5.193   3.013  16.289  0.2169  0.3944 -0.4379
14986TIP3    H166449   5.214   3.062  16.369  0.0626 -0.5818  0.2145
14986TIP3    H266450   5.272   2.961  16.272 -0.3926 -0.7390  0.1081
14987TIP3   OH266451   5.994   4.981  11.324 -0.1917  0.0091  0.0581
14987TIP3    H166452   6.006   4.889  11.299 -1.4547 -0.7768  2.0791
14987TIP3    H266453   6.062   5.028  11.276  0.7977 -2.0401 -0.6669
14988TIP3   OH266454   5.522   2.486   2.823 -0.4992 -0.0992  0.3992
14988TIP3    H166455   5.588   2.416   2.817 -1.0129 -0.4653 -1.7175
14988TIP3    H266456   5.440   2.440   2.839 -0.8758 -0.0630 -1.2260
14989TIP3   OH266457   3.817   1.233  12.865 -0.6602 -0.2456 -0.2632
14989TIP3    H166458   3.804   1.143  12.837 -1.4265 -0.1800 -0.1331
14989TIP3    H266459   3.870   1.226  12.944 -1.5298 -0.6451  0.2983
14990TIP3   OH266460   5.802   1.637  11.261  0.0728  0.2324  0.3271
14990TIP3    H166461   5.783   1.607  11.172 -0.7954 -2.0741  1.2157
14990TIP3    H266462   5.715   1.656  11.298  0.4203  1.0759  0.7318
14991TIP3   OH266463   2.026   2.722   4.596 -0.0710  0.6068 -0.2262
14991TIP3    H166464   1.946   2.699   4.549  0.8900 -2.1707 -0.6740
14991TIP3    H266465   2.085   2.753   4.527 -0.7260  2.8349  0.1271
14992TIP3   OH266466   3.220   2.729   6.144  0.2043  0.0229  0.1051
14992TIP3    H166467   3.272   2.649   6.135 -0.1844 -0.0807 -1.4109
14992TIP3    H266468   3.257   2.772   6.222 -0.0143 -1.9289  1.3637
14993TIP3   OH266469   5.123   5.806  17.017  0.3246 -0.3299  0.1432
14993TIP3    H166470   5.183   5.872  17.052  2.4947 -1.2799 -1.5441
14993TIP3    H266471   5.174   5.725  17.015 -0.9239 -1.1411 -1.5414
14994TIP3   OH266472   0.111   3.887  10.275  0.0191 -0.0547  0.6355
14994TIP3    H166473   0.044   3.935  10.325  1.4057  1.3292  1.2288
14994TIP3    H266474   0.088   3.795  10.287 -2.0026  0.3795  0.4891
14995TIP3   OH266475   5.503   2.754  13.577  0.6018  0.3072 -0.1271
14995TIP3    H166476   5.411   2.770  13.595  0.9395  2.2308  0.0545
14995TIP3    H266477   5.506   2.727  13.485 -0.0514  1.0159 -0.3611
14996TIP3   OH266478   4.125   5.606   1.376  0.2596 -0.2690  0.2777
14996TIP3    H166479   4.217   5.589   1.395  0.9872  2.2315 -0.5791
14996TIP3    H266480   4.082   5.521   1.388  2.6536 -1.5284  0.6421
14997TIP3   OH266481   4.399   2.908  14.776  0.2178  0.4049 -0.0693
14997TIP3    H166482   4.351   2.903  14.694 -0.2586  2.2097  0.0689
14997TIP3    H266483   4.474   2.964  14.757  0.1844  0.7182  0.6958
14998TIP3   OH266484   0.097   2.409   4.846 -0.3151  0.2313 -0.4838
14998TIP3    H166485   0.002   2.399   4.856 -0.0963 -0.2808  1.5995
14998TIP3    H266486   0.108   2.452   4.762 -2.5834  3.4951  0.6984
14999TIP3   OH266487   0.922   2.094   2.680  0.3583 -0.5930  0.2263
14999TIP3    H166488   0.921   2.108   2.775 -0.2166 -2.8653  0.6274
14999TIP3    H266489   0.838   2.127   2.650 -0.3730 -1.8053  0.8781
15000TIP3   OH266490   6.337   4.756   3.900  0.2194  0.5042  0.0939
15000TIP3    H166491   6.244   4.749   3.918  0.2946  0.9620  0.6967
15000TIP3    H266492   6.345   4.743   3.805 -0.3562 -0.4121  0.1691
15001TIP3   OH266493   3.052   4.914   3.976  0.3577  0.4566 -0.9311
15001TIP3    H166494   2.970   4.890   3.933  0.4032  0.5634 -1.0787
15001TIP3    H266495   3.111   4.841   3.957  0.9003  1.2562 -2.4900
15002TIP3   OH266496   6.529   4.949  13.245 -0.1277  0.1725 -0.3374
15002TIP3    H166497   6.526   4.873  13.187 -1.0824  1.0124 -1.4517
15002TIP3    H266498   6.598   5.004  13.208  0.8694 -0.3346  0.7303
15003TIP3   OH266499   5.477   5.218  14.532  0.3268 -1.2898  0.0310
15003TIP3    H166500   5.426   5.149  14.490  2.2320 -2.4025 -0.6028
15003TIP3    H266501   5.496   5.280  14.461 -0.4853 -0.6359  0.3652
15004TIP3   OH266502   3.395   2.874  15.319 -0.1114  0.0819  0.6059
15004TIP3    H166503   3.462   2.866  15.387  0.9561 -1.3620 -0.5430
15004TIP3    H266504   3.443   2.900  15.241 -0.9615 -0.5081 -0.1328
15005TIP3   OH266505   1.937   3.270  15.647 -0.4169 -0.2396  0.1671
15005TIP3    H166506   1.854   3.242  15.684 -0.7166 -1.1259 -1.1228
15005TIP3    H266507   1.943   3.225  15.563  0.6051  1.0925 -0.5129
15006TIP3   OH266508   3.301   6.361  16.587 -0.3977  0.4635  0.0123
15006TIP3    H166509   3.332   6.346  16.676  1.9829  1.0140 -0.6556
15006TIP3    H266510   3.314   6.278  16.542 -0.6984  0.4617 -0.0756
15007TIP3   OH266511   3.695   1.280  14.031 -0.3624 -0.3209 -0.4389
15007TIP3    H166512   3.782   1.246  14.010  0.8354  1.0840  1.8567
15007TIP3    H266513   3.649   1.206  14.070  0.2092 -0.7804 -0.6251
15008TIP3   OH266514   5.242   5.889  16.118 -0.1539  0.0835  0.2629
15008TIP3    H166515   5.322   5.873  16.169  0.6491 -0.4422 -1.0956
15008TIP3    H266516   5.171   5.865  16.177  0.8074 -3.5569  0.1502
15009TIP3   OH266517   1.512   1.365  11.558  0.2619  0.2826 -0.0567
15009TIP3    H166518   1.542   1.311  11.484  0.6571 -0.2508  0.4830
15009TIP3    H266519   1.422   1.335  11.574  0.5756 -0.4505  0.4281
15010TIP3   OH266520   5.543   2.507  13.703 -0.0187 -0.4720 -0.1833
15010TIP3    H166521   5.632   2.488  13.730  0.0808  1.1765  0.7835
15010TIP3    H266522   5.550   2.588  13.653 -0.9919 -0.2020  0.0923
15011TIP3   OH266523   4.716   2.509  16.095 -0.3313 -0.2625  0.5736
15011TIP3    H166524   4.696   2.547  16.010  0.3415 -0.6143  0.2485
15011TIP3    H266525   4.770   2.432  16.075 -0.7429 -0.7473  1.2746
15012TIP3   OH266526   0.684   4.697  12.667  0.3321 -0.1310 -0.7549
15012TIP3    H166527   0.635   4.774  12.636  1.8164  0.5238 -1.5401
15012TIP3    H266528   0.733   4.729  12.742  0.7808 -0.3657 -0.9466
15013TIP3   OH266529   5.251   0.906  14.706  0.3090 -0.1498  0.5518
15013TIP3    H166530   5.344   0.899  14.727  0.2048 -3.1556  0.3693
15013TIP3    H266531   5.248   0.918  14.611  0.5392 -1.5528  0.3448
15014TIP3   OH266532   1.823   3.872  13.593  0.6251 -0.2773  0.8742
15014TIP3    H166533   1.801   3.779  13.598 -0.3457 -0.1483 -0.6389
15014TIP3    H266534   1.763   3.914  13.654  0.1807 -0.5015  0.5953
15015TIP3   OH266535   3.931   0.254  11.991 -0.4058 -0.1965 -0.3772
15015TIP3    H166536   3.982   0.263  11.910  1.1951  1.0369  0.6976
15015TIP3    H266537   3.913   0.345  12.017  0.0508 -0.5194  1.1845
15016TIP3   OH266538   2.002   2.246   4.441 -0.8541 -0.0055 -0.0069
15016TIP3    H166539   2.034   2.293   4.364 -2.1143 -0.6568 -0.9824
15016TIP3    H266540   2.078   2.199   4.475 -0.1593  0.7238 -0.5185
15017TIP3   OH266541   2.813   4.144   5.902  0.3130 -0.0114  0.2255
15017TIP3    H166542   2.905   4.145   5.876  0.1605 -3.4147 -0.9743
15017TIP3    H266543   2.813   4.099   5.987 -0.2444 -0.4678 -0.0079
15018TIP3   OH266544   3.303   6.713  14.067  0.0944  0.1228  0.2196
15018TIP3    H166545   3.213   6.746  14.070  0.0458  0.0051  0.0885
15018TIP3    H266546   3.293   6.618  14.057  0.2313  0.0502  0.7195
15019TIP3   OH266547   3.132   6.193  11.270 -0.4106  0.6033  0.3547
15019TIP3    H166548   3.218   6.228  11.293 -1.2646  2.1783  1.3984
15019TIP3    H266549   3.150   6.109  11.228  1.6054  0.7324  0.8569
15020TIP3   OH266550   6.020   2.489  11.470  0.3506 -0.0948  0.6293
15020TIP3    H166551   5.957   2.433  11.514  0.4115 -0.9032 -0.2922
15020TIP3    H266552   5.991   2.578  11.491 -0.8623 -0.4557  0.5331
15021TIP3   OH266553   4.128   4.633   2.134  0.2941 -0.3048 -0.3359
15021TIP3    H166554   4.119   4.637   2.039  2.1821 -2.6638 -0.7229
15021TIP3    H266555   4.039   4.612   2.165 -0.3453  0.4797 -1.5406
15022TIP3   OH266556   3.207   1.648  15.005 -0.2743 -0.0243  0.5141
15022TIP3    H166557   3.243   1.729  15.041  0.1414  0.3874 -0.7920
15022TIP3    H266558   3.140   1.621  15.068  0.5425  0.5754  1.6741
15023TIP3   OH266559   4.494   4.850  16.048  0.3431  0.0159 -0.1597
15023TIP3    H166560   4.542   4.930  16.065 -0.0364 -0.1435  1.8671
15023TIP3    H266561   4.435   4.872  15.976  0.5617  1.4077  0.0667
15024TIP3   OH266562   2.395   4.172   3.373 -0.0392  0.1439  0.2011
15024TIP3    H166563   2.353   4.159   3.458 -0.0847 -0.5914  0.0673
15024TIP3    H266564   2.417   4.084   3.343  0.9400  0.4680 -0.0656
15025TIP3   OH266565   0.175   5.351   2.864  0.2786 -0.5173  0.3988
15025TIP3    H166566   0.116   5.285   2.828 -0.1477 -1.5897  2.8563
15025TIP3    H266567   0.133   5.435   2.843 -1.4631 -1.2075  0.9353
15026TIP3   OH266568   0.145   4.915   4.845  0.1406 -0.0216 -0.1531
15026TIP3    H166569   0.170   4.822   4.846  1.2454  0.2344  1.9252
15026TIP3    H266570   0.147   4.940   4.753 -0.9851 -2.2455 -0.8629
15027TIP3   OH266571   3.749   0.220   2.981 -0.0253 -0.0918  0.0634
15027TIP3    H166572   3.698   0.195   2.904 -0.5103  0.8802  0.0537
15027TIP3    H266573   3.725   0.311   2.997  0.9367  0.0654  0.6852
15028TIP3   OH266574   2.028   3.610  15.245  0.2325  0.0021 -0.1075
15028TIP3    H166575   1.946   3.610  15.196  0.7937  0.1595 -1.0630
15028TIP3    H266576   2.023   3.531  15.299 -1.1986  0.7922  1.0005
15029TIP3   OH266577   2.052   4.149   2.310 -0.0863  0.1765 -0.3814
15029TIP3    H166578   1.978   4.089   2.300 -0.2573 -0.0001  1.5444
15029TIP3    H266579   2.077   4.171   2.221 -3.2511  1.2359 -1.1401
15030TIP3   OH266580   3.749   0.912  12.440  0.1118 -1.1484  0.1496
15030TIP3    H166581   3.670   0.953  12.406 -0.7067 -1.7105  1.3272
15030TIP3    H266582   3.813   0.921  12.369 -0.6517  0.3098 -0.3941
15031TIP3   OH266583   6.378   0.631  14.670  0.1469  0.1610 -0.1086
15031TIP3    H166584   6.332   0.624  14.586 -0.4431 -0.1794  0.2440
15031TIP3    H266585   6.404   0.542  14.691 -1.7394 -0.1197  1.2068
15032TIP3   OH266586   1.846   0.807  11.677 -0.4583  0.0533  0.0011
15032TIP3    H166587   1.861   0.871  11.747 -1.1867 -0.6823  0.8639
15032TIP3    H266588   1.921   0.816  11.619  0.3841  0.3870  1.1181
15033TIP3   OH266589   6.092   6.803   0.471 -1.0025  0.3331  0.3269
15033TIP3    H166590   6.150   6.742   0.426 -1.0792 -0.5952  1.4264
15033TIP3    H266591   6.050   6.750   0.539 -2.3904  1.2062  0.2060
15034TIP3   OH266592   4.951   5.443  12.241 -0.1989 -0.3687 -0.2778
15034TIP3    H166593   4.946   5.385  12.316  2.0796  0.4152  0.5559
15034TIP3    H266594   4.986   5.388  12.170  1.7905 -0.1410  0.4619
15035TIP3   OH266595   1.849   4.448  13.197 -0.2386 -0.7088 -0.0543
15035TIP3    H166596   1.890   4.517  13.144 -2.3559  1.2207  0.6413
15035TIP3    H266597   1.883   4.462  13.285  0.4609 -1.5511 -0.1777
15036TIP3   OH266598   3.936   2.315   4.145 -0.2609 -0.0583 -0.2768
15036TIP3    H166599   3.892   2.237   4.181  0.7479 -1.0928 -1.2223
15036TIP3    H266600   3.864   2.368   4.111 -0.9117 -1.0429 -0.5065
15037TIP3   OH266601   2.611   5.857  16.434  0.4009  0.2281 -0.8905
15037TIP3    H166602   2.569   5.939  16.407 -2.7708 -0.4023  1.4585
15037TIP3    H266603   2.624   5.867  16.528  2.8879 -0.8593 -1.0423
15038TIP3   OH266604   0.418   1.704  15.989 -0.5507 -0.5507  0.2947
15038TIP3    H166605   0.433   1.653  16.068 -0.2110 -0.3816  0.3395
15038TIP3    H266606   0.505   1.734  15.963 -0.7923  0.3704  0.5170
15039TIP3   OH266607   1.378   3.438  12.661  0.0321  0.1734  0.1339
15039TIP3    H166608   1.327   3.493  12.601 -0.9892 -1.6893 -0.8175
15039TIP3    H266609   1.468   3.448  12.633 -0.2160  0.8298 -0.4541
15040TIP3   OH266610   2.228   3.998  16.867  0.1678  0.2703  0.1663
15040TIP3    H166611   2.133   3.994  16.881  0.4597  0.6147  2.7922
15040TIP3    H266612   2.262   3.919  16.909  1.0607  0.1699 -0.7050
15041TIP3   OH266613   3.171   1.406  17.076  0.3112 -0.3321  0.3763
15041TIP3    H166614   3.080   1.375  17.072 -0.7275  2.4851 -0.9980
15041TIP3    H266615   3.223   1.330  17.051 -1.7319 -1.7969  0.2721
15042TIP3   OH266616   3.149   3.896   0.926 -0.0261 -0.5801 -0.4839
15042TIP3    H166617   3.084   3.826   0.921 -0.0995 -0.5551  0.0685
15042TIP3    H266618   3.201   3.875   1.003  0.4254 -0.4263 -0.7401
15043TIP3   OH266619   5.939   5.232   1.083  0.6240  0.5159  0.1767
15043TIP3    H166620   5.871   5.173   1.115  1.2897  0.0545  0.7720
15043TIP3    H266621   5.895   5.316   1.072 -0.5437 -0.2688 -1.5132
15044TIP3   OH266622   1.639   5.396   1.745 -0.1690 -0.3907  0.2521
15044TIP3    H166623   1.730   5.421   1.763 -0.2049 -0.7294  0.9125
15044TIP3    H266624   1.640   5.300   1.746 -0.5910 -0.3916  0.5409
15045TIP3   OH266625   4.387   6.615  16.470  0.6647 -0.6470  0.1914
15045TIP3    H166626   4.341   6.626  16.387 -0.0218  0.9946  0.7377
15045TIP3    H266627   4.416   6.524  16.470 -1.1829 -1.2859 -0.8974
15046TIP3   OH266628   3.516   5.851   0.296  0.4562 -0.2471  0.2768
15046TIP3    H166629   3.517   5.946   0.290 -0.0490 -0.2730 -0.2360
15046TIP3    H266630   3.423   5.827   0.289  0.6731 -0.8462 -0.7773
15047TIP3   OH266631   6.463   1.732  15.253  0.1437  0.0396 -0.6655
15047TIP3    H166632   6.482   1.813  15.207 -1.1252  1.8341  1.7333
15047TIP3    H266633   6.452   1.667  15.184  1.3037  1.8623 -2.6762
15048TIP3   OH266634   1.029   4.003  11.229 -0.4273 -0.3157  0.2040
15048TIP3    H166635   1.062   4.082  11.187 -0.5499 -0.9645 -1.1365
15048TIP3    H266636   0.954   4.034  11.281 -0.3216  0.4934 -0.1128
15049TIP3   OH266637   0.938   2.111   0.965  0.3600 -0.4485 -0.2088
15049TIP3    H166638   0.949   2.111   1.060  0.4459 -0.7298 -0.2185
15049TIP3    H266639   0.985   2.189   0.935  0.7013 -0.5975 -0.0621
15050TIP3   OH266640   3.966   0.458   5.091  0.1935  0.2099 -0.2868
15050TIP3    H166641   4.005   0.457   5.004  0.8410 -1.8026 -0.0379
15050TIP3    H266642   3.873   0.443   5.077 -0.1862  2.6765 -0.7503
15051TIP3   OH266643   1.270   0.384   0.082 -0.0304  0.3490 -0.6910
15051TIP3    H166644   1.341   0.443   0.107  1.5879 -2.2345  1.3642
15051TIP3    H266645   1.192   0.424   0.118  0.8570  1.7229 -0.2264
15052TIP3   OH266646   2.239   0.658   2.569  0.3597 -0.0965  0.6570
15052TIP3    H166647   2.156   0.683   2.529 -0.0496  1.8328  2.5239
15052TIP3    H266648   2.306   0.688   2.507 -0.2695 -1.2271 -0.6284
15053TIP3   OH266649   6.118   2.315   5.904  0.1344 -0.1463  0.1685
15053TIP3    H166650   6.073   2.317   5.988  2.8395  0.2226  1.7005
15053TIP3    H266651   6.104   2.226   5.871 -0.1800 -0.5901  1.4626
15054TIP3   OH266652   2.052   3.803  12.373  0.5396  0.1462 -0.2943
15054TIP3    H166653   2.057   3.847  12.289 -0.9849  0.1101 -0.4196
15054TIP3    H266654   1.986   3.852  12.422 -0.4708 -1.3789 -0.0801
15055TIP3   OH266655   2.882   1.322   2.786 -0.5646  0.2582  0.3330
15055TIP3    H166656   2.834   1.245   2.816  1.9407 -1.1873  0.9005
15055TIP3    H266657   2.940   1.289   2.717  0.7992  1.5390  0.8197
15056TIP3   OH266658   1.765   1.580   3.168 -0.6103  0.1467  0.4530
15056TIP3    H166659   1.820   1.567   3.090 -1.6408 -1.2564 -0.0883
15056TIP3    H266660   1.819   1.549   3.241 -0.9009 -1.9538 -0.1575
15057TIP3   OH266661   0.571   4.532   4.159 -0.0420  0.5693  0.1647
15057TIP3    H166662   0.549   4.541   4.066  0.1669  1.6988  0.2207
15057TIP3    H266663   0.624   4.452   4.163 -0.3188  0.3337 -0.6330
15058TIP3   OH266664   4.098   2.224  11.048  0.4860 -0.1772 -0.5752
15058TIP3    H166665   4.065   2.273  10.973 -0.6609  1.0385  0.6617
15058TIP3    H266666   4.024   2.172  11.078  0.9825 -0.7864 -0.3778
15059TIP3   OH266667   4.583   1.007   6.218  0.1557 -0.7802 -0.4560
15059TIP3    H166668   4.667   1.033   6.180  0.5783 -1.1125  0.2351
15059TIP3    H266669   4.581   0.912   6.208 -0.4447 -0.7104 -1.0733
15060TIP3   OH266670   4.178   1.949   4.705  0.4378 -0.2281  0.1368
15060TIP3    H166671   4.174   1.947   4.609  0.0981 -3.2847  0.1134
15060TIP3    H266672   4.238   1.878   4.728 -2.5873 -2.3787  2.1930
15061TIP3   OH266673   2.096   1.602  12.593 -0.1455 -0.4050 -0.4558
15061TIP3    H166674   2.015   1.609  12.644  0.2399  0.4794  0.0636
15061TIP3    H266675   2.165   1.619  12.656  0.3341  0.9700 -1.2997
15062TIP3   OH266676   1.609   0.832   1.924  0.1873  0.0220 -0.1029
15062TIP3    H166677   1.631   0.759   1.866  1.3842 -0.9319  1.4782
15062TIP3    H266678   1.645   0.807   2.009 -2.8669  0.6279  1.5082
15063TIP3   OH266679   1.046   5.291   5.872 -0.3425  0.2820  0.1612
15063TIP3    H166680   0.978   5.326   5.814 -0.7374  1.2044  1.1364
15063TIP3    H266681   1.020   5.321   5.960  0.3672 -0.8706  0.7858
15064TIP3   OH266682   1.371   0.360  13.106  0.4548  0.2622  0.6890
15064TIP3    H166683   1.425   0.316  13.040  1.4916  0.2621  1.5011
15064TIP3    H266684   1.408   0.448  13.113 -1.7956  1.4421 -1.1318
15065TIP3   OH266685   4.043   5.725   5.767 -0.2869  0.4380 -0.2793
15065TIP3    H166686   3.988   5.773   5.829  1.1381  0.4604  1.0007
15065TIP3    H266687   4.078   5.652   5.817  1.0853  0.5943 -0.9697
15066TIP3   OH266688   1.133   2.465  14.188  0.4737 -0.5763 -0.3697
15066TIP3    H166689   1.139   2.442  14.281 -0.0011  0.3585 -0.0839
15066TIP3    H266690   1.210   2.425  14.148 -0.0290 -2.1535  0.1590
15067TIP3   OH266691   1.070   4.720   0.495  0.0483  0.1542 -0.1169
15067TIP3    H166692   1.026   4.693   0.576  0.5035 -1.1135 -0.2638
15067TIP3    H266693   0.999   4.728   0.431 -0.0345 -1.7608 -0.3226
15068TIP3   OH266694   5.900   3.126   4.569  0.9894  0.6742  0.4791
15068TIP3    H166695   5.882   3.152   4.659 -0.0108  1.8385 -0.0323
15068TIP3    H266696   5.932   3.036   4.576 -1.4928 -0.1921  1.7947
15069TIP3   OH266697   3.402   0.838   4.063 -0.4550 -0.3814 -0.4193
15069TIP3    H166698   3.467   0.908   4.069 -1.2211  0.5120 -2.0292
15069TIP3    H266699   3.454   0.758   4.059  0.4513  0.1043  1.0003
15070TIP3   OH266700   1.992   5.056  16.423 -0.1066 -0.1392  0.2897
15070TIP3    H166701   2.069   5.069  16.367  0.1616 -3.2753 -0.2933
15070TIP3    H266702   2.015   5.098  16.506  0.8462  1.7962 -0.8892
15071TIP3   OH266703   5.204   5.687   4.346 -0.4390  0.5934  0.3107
15071TIP3    H166704   5.192   5.594   4.364 -0.6017  0.8466  1.6566
15071TIP3    H266705   5.120   5.727   4.368 -0.4134  1.0541 -0.3862
15072TIP3   OH266706   0.416   1.045  14.748  0.4520 -0.4513 -0.0491
15072TIP3    H166707   0.391   0.996  14.827  4.4735 -1.3424  0.8814
15072TIP3    H266708   0.415   0.980  14.678 -0.8388 -0.1895 -0.3047
15073TIP3   OH266709   6.089   4.809  16.669  0.2332  0.4161  0.1682
15073TIP3    H166710   6.185   4.805  16.669  0.4200  1.3012 -3.7874
15073TIP3    H266711   6.062   4.733  16.618 -1.0435  1.3042 -0.5193
15074TIP3   OH266712   0.386   4.055  14.281  0.0553  0.0886 -0.1184
15074TIP3    H166713   0.362   4.123  14.344 -3.3703  0.1454 -1.3147
15074TIP3    H266714   0.379   3.974  14.330 -0.4464  0.2843  0.1423
15075TIP3   OH266715   2.596   5.689  16.225  0.3204 -0.8471 -0.2797
15075TIP3    H166716   2.591   5.734  16.141 -1.1252 -0.5799 -0.0812
15075TIP3    H266717   2.597   5.760  16.290  1.2667 -1.0544 -0.0523
15076TIP3   OH266718   0.391   4.484   3.152  0.3523 -0.0440 -0.1260
15076TIP3    H166719   0.386   4.409   3.092 -0.2379  0.1003 -0.2650
15076TIP3    H266720   0.484   4.507   3.154  0.3843 -0.0384 -1.0021
15077TIP3   OH266721   0.260   2.814  12.543  0.6009 -0.3658  0.4099
15077TIP3    H166722   0.304   2.757  12.480  0.4288 -0.5718  0.4700
15077TIP3    H266723   0.246   2.896  12.497 -0.8650 -0.9960 -0.3512
15078TIP3   OH266724   3.716   2.545   1.633 -0.2986  0.2978  0.3505
15078TIP3    H166725   3.790   2.592   1.672 -0.0571 -0.7024  1.1430
15078TIP3    H266726   3.699   2.590   1.550  0.7336  0.9794  0.4987
15079TIP3   OH266727   3.746   2.720  11.792  0.1993  0.8337  0.6877
15079TIP3    H166728   3.663   2.681  11.764  0.8473  0.3588 -0.6473
15079TIP3    H266729   3.802   2.645  11.814  0.7645  1.0864  0.1357
15080TIP3   OH266730   3.237   2.453   3.599 -0.2938  0.2311  0.2109
15080TIP3    H166731   3.187   2.529   3.571 -0.6792 -0.1380 -0.1004
15080TIP3    H266732   3.284   2.483   3.677  0.7740  1.2678 -0.7806
15081TIP3   OH266733   5.092   2.848  13.206  0.5840  0.1868  0.1027
15081TIP3    H166734   5.015   2.826  13.153  1.2245 -0.7334 -0.4737
15081TIP3    H266735   5.059   2.909  13.272 -0.4002  0.7538 -0.8714
15082TIP3   OH266736   1.177   4.809   3.889 -0.6177  0.5781 -0.1420
15082TIP3    H166737   1.144   4.771   3.970 -2.6255 -0.5512 -1.4187
15082TIP3    H266738   1.208   4.735   3.838 -0.6954  1.1010 -0.9754
15083TIP3   OH266739   1.854   0.617   4.948 -0.0570 -0.9784 -0.0376
15083TIP3    H166740   1.789   0.634   5.016  0.6592  0.8883  0.2428
15083TIP3    H266741   1.866   0.701   4.904  1.4572 -1.5075 -0.7208
15084TIP3   OH266742   2.758   1.689  14.556 -0.4662 -0.0267 -0.5073
15084TIP3    H166743   2.742   1.766  14.611  1.1290 -0.0673  0.0710
15084TIP3    H266744   2.723   1.712  14.471 -0.1645  1.2922 -0.2941
15085TIP3   OH266745   0.918   4.981   4.374 -0.5314  0.3108 -0.1270
15085TIP3    H166746   0.855   4.963   4.443  0.1529 -2.3157 -0.0870
15085TIP3    H266747   0.941   5.074   4.385 -2.5407  0.6813  1.3305
15086TIP3   OH266748   0.649   2.674  16.588 -0.1230 -0.3327 -0.4366
15086TIP3    H166749   0.587   2.665  16.661  1.1344  0.5043  0.7725
15086TIP3    H266750   0.679   2.585  16.571  0.2840 -0.4361  0.7292
15087TIP3   OH266751   0.969   5.758   0.764  0.2661 -0.2921 -0.7847
15087TIP3    H166752   1.018   5.836   0.740 -0.2118  0.6592  1.2016
15087TIP3    H266753   0.975   5.753   0.859 -0.8469 -1.9224 -0.7544
15088TIP3   OH266754   0.598   5.213  13.767 -0.1637 -0.4488  0.1344
15088TIP3    H166755   0.551   5.166  13.697 -1.7135  1.5046 -0.2355
15088TIP3    H266756   0.667   5.153  13.793 -2.7836 -3.5654  0.6426
15089TIP3   OH266757   1.926   4.658  10.870 -0.7710  1.1580  0.4309
15089TIP3    H166758   1.844   4.626  10.831  0.2946 -0.1551 -0.8437
15089TIP3    H266759   1.950   4.591  10.933 -0.7249  1.6207  0.9175
15090TIP3   OH266760   6.451   5.610  15.649  0.0346 -0.1401  0.5189
15090TIP3    H166761   6.457   5.685  15.708 -0.6057  0.4779 -0.1827
15090TIP3    H266762   6.473   5.646  15.563  1.3764 -1.1124  0.4292
15091TIP3   OH266763   5.432   0.607  11.344 -0.7978 -0.3649 -0.0188
15091TIP3    H166764   5.500   0.577  11.285  1.0852 -2.8944  3.1179
15091TIP3    H266765   5.435   0.702  11.339  1.1551 -0.4698 -1.8721
15092TIP3   OH266766   5.922   1.212  12.744 -0.3644 -0.4150  0.1339
15092TIP3    H166767   5.976   1.159  12.686  1.3446  0.4829  0.8250
15092TIP3    H266768   5.853   1.247  12.687  0.8754 -0.0933 -1.2435
15093TIP3   OH266769   5.022   6.348  13.206 -0.3840 -0.3576  0.1415
15093TIP3    H166770   4.957   6.412  13.236 -0.7896  0.1090 -1.6432
15093TIP3    H266771   4.980   6.264  13.218 -1.9687 -0.0073 -2.2597
15094TIP3   OH266772   1.374   5.137  16.923 -0.2197 -0.5099  0.1357
15094TIP3    H166773   1.461   5.114  16.893 -0.9745 -1.8312 -1.1633
15094TIP3    H266774   1.358   5.081  16.999 -0.5357 -1.4970 -0.6300
15095TIP3   OH266775   5.798   3.213   2.001 -0.4170 -0.1251 -0.1473
15095TIP3    H166776   5.765   3.253   1.921 -0.8156 -0.4402 -0.1376
15095TIP3    H266777   5.747   3.254   2.071  0.5404  0.8215  0.0345
15096TIP3   OH266778   1.147   4.725   6.057  0.6280 -0.2691  0.0709
15096TIP3    H166779   1.181   4.790   6.119 -2.0059 -0.9896  2.4248
15096TIP3    H266780   1.188   4.643   6.084  0.0466 -0.4527  0.4117
15097TIP3   OH266781   5.061   0.345  11.393  0.1816 -0.0224 -0.1328
15097TIP3    H166782   4.995   0.291  11.351 -0.5368 -0.0322  0.9593
15097TIP3    H266783   5.076   0.417  11.332 -1.1271  0.1861 -0.2396
15098TIP3   OH266784   2.388   0.823  16.798 -0.1466  0.1614  0.2536
15098TIP3    H166785   2.385   0.752  16.734 -1.3613 -1.1494  1.7005
15098TIP3    H266786   2.404   0.780  16.882 -0.1660  1.6833  1.0750
15099TIP3   OH266787   5.180   4.966  14.727 -0.2309  0.6955  0.1623
15099TIP3    H166788   5.132   4.967  14.810 -1.0144 -0.8481 -0.2173
15099TIP3    H266789   5.116   4.933  14.663  0.2633  2.1108 -1.1306
15100TIP3   OH266790   6.489   0.689   5.254  0.0058  0.0784 -0.3873
15100TIP3    H166791   6.576   0.666   5.221  0.0212  0.2174 -0.4432
15100TIP3    H266792   6.506   0.753   5.323  0.1509 -1.8797  1.5292
15101TIP3   OH266793   5.473   5.479  12.841 -0.0536 -0.1045  0.5840
15101TIP3    H166794   5.388   5.504  12.876 -0.4692  0.2293 -0.6213
15101TIP3    H266795   5.520   5.562  12.830 -0.8521  0.1146 -1.9233
15102TIP3   OH266796   6.238   3.685  15.938 -0.1703  0.3455 -0.0300
15102TIP3    H166797   6.209   3.752  16.000  1.4600  1.8543 -0.8168
15102TIP3    H266798   6.157   3.640  15.912 -1.3961  2.2745  0.2404
15103TIP3   OH266799   5.135   6.246  16.497 -0.2511  0.1560 -0.3256
15103TIP3    H166800   5.124   6.252  16.402 -1.9798  0.6579 -0.1373
15103TIP3    H266801   5.060   6.294  16.533  0.1601 -0.3360  1.3035
15104TIP3   OH266802   3.122   4.419   2.880  0.0448  0.3900  0.1795
15104TIP3    H166803   3.206   4.387   2.914  0.0180  1.7941  1.6922
15104TIP3    H266804   3.134   4.419   2.785  1.9049  0.8411  0.3616
15105TIP3   OH266805   5.942   1.839   0.997 -0.2555  0.5263 -0.4266
15105TIP3    H166806   5.974   1.877   0.915  2.5733  0.9818  0.7666
15105TIP3    H266807   6.011   1.779   1.024 -1.0742  0.4209  1.6324
15106TIP3   OH266808   3.521   3.722   1.868  0.0152 -0.5662 -0.5148
15106TIP3    H166809   3.603   3.769   1.856 -0.6787  0.4739 -1.3198
15106TIP3    H266810   3.547   3.630   1.876  1.4265 -0.0741  1.3370
15107TIP3   OH266811   3.740   1.946   1.246  0.6684  0.3342 -0.4086
15107TIP3    H166812   3.800   1.879   1.215  1.1652  0.2773  0.6177
15107TIP3    H266813   3.674   1.898   1.296  1.2146  0.6066  0.6204
15108TIP3   OH266814   5.688   0.898   5.409  0.2249  0.0050  0.7164
15108TIP3    H166815   5.750   0.919   5.478 -0.4184  1.6837  0.8402
15108TIP3    H266816   5.603   0.924   5.444 -0.6266 -2.3313  0.6013
15109TIP3   OH266817   4.713   2.423   4.172 -0.2440 -0.2320 -0.0801
15109TIP3    H166818   4.651   2.376   4.228  0.1222 -0.2195  0.3366
15109TIP3    H266819   4.657   2.468   4.107 -0.6184 -0.9299 -0.2538
15110TIP3   OH266820   2.281   3.481   1.774 -0.4616 -0.4914  0.3130
15110TIP3    H166821   2.343   3.439   1.715 -0.8682 -0.9306  0.1913
15110TIP3    H266822   2.209   3.419   1.781 -0.1782 -0.6917  1.7079
15111TIP3   OH266823   6.422   6.775  10.915  0.3049  0.4058 -0.1284
15111TIP3    H166824   6.432   6.680  10.905  0.4916  0.1528  2.0784
15111TIP3    H266825   6.332   6.787  10.944  0.8263  0.6999  1.4501
15112TIP3   OH266826   5.012   5.367  12.851 -0.3947  0.3120 -0.2120
15112TIP3    H166827   5.011   5.272  12.846 -1.1030  0.3010  0.0443
15112TIP3    H266828   4.933   5.395  12.805 -2.1463  0.5920  2.7011
15113TIP3   OH266829   1.817   2.854  16.353  0.5746 -0.2214  0.7766
15113TIP3    H166830   1.723   2.873  16.364  0.1554 -2.4149  1.3581
15113TIP3    H266831   1.851   2.851  16.442  1.0363 -0.2366  0.6013
15114TIP3   OH266832   4.266   5.137   6.574  0.2389  0.2232  0.1899
15114TIP3    H166833   4.220   5.110   6.495 -0.8702  1.9251  0.2140
15114TIP3    H266834   4.355   5.158   6.544  0.0929 -0.0421 -0.4312
15115TIP3   OH266835   4.939   3.402   1.784 -0.4174 -0.0512  0.0049
15115TIP3    H166836   4.973   3.397   1.695 -0.4789  0.3522 -0.0443
15115TIP3    H266837   4.867   3.466   1.779 -0.3400  0.0669  0.3644
15116TIP3   OH266838   0.143   5.774   2.939  0.0036  0.4353  0.2437
15116TIP3    H166839   0.193   5.817   2.869  1.1838 -0.2063  0.6553
15116TIP3    H266840   0.177   5.812   3.020 -1.8440  1.6812  0.4843
15117TIP3   OH266841   2.901   0.697   3.793  1.2731  0.2027  0.1007
15117TIP3    H166842   2.891   0.628   3.728 -0.2683  1.2988 -0.9175
15117TIP3    H266843   2.816   0.701   3.837  1.4855  1.1302  0.4560
15118TIP3   OH266844   1.627   1.751  16.588 -0.1547 -0.0449 -0.0711
15118TIP3    H166845   1.722   1.734  16.588 -0.4759 -2.3063  1.6690
15118TIP3    H266846   1.596   1.712  16.506  0.3150  0.0426 -0.2963
15119TIP3   OH266847   0.872   3.326  14.892 -1.1637 -0.2598  0.1619
15119TIP3    H166848   0.900   3.416  14.908 -0.7898 -0.3851  0.2243
15119TIP3    H266849   0.953   3.276  14.884 -1.3669 -0.5344 -0.2152
15120TIP3   OH266850   3.861   0.702  14.950 -0.6073 -0.3498  0.2082
15120TIP3    H166851   3.934   0.673  14.895  0.1332 -0.7301  1.3611
15120TIP3    H266852   3.836   0.787  14.913  0.5692 -0.1110 -0.0884
15121TIP3   OH266853   4.056   3.915   5.270  0.2583  0.9060 -0.7547
15121TIP3    H166854   4.127   3.933   5.209  0.7791  0.4348 -0.2916
15121TIP3    H266855   4.081   3.960   5.350  1.2514 -1.2199  0.2068
15122TIP3   OH266856   1.173   5.098   3.869  0.2843 -0.4846 -0.0052
15122TIP3    H166857   1.198   5.169   3.927 -0.4601 -0.5664  0.4350
15122TIP3    H266858   1.176   5.020   3.923 -0.0670 -0.6132 -0.1627
15123TIP3   OH266859   4.468   0.376  12.737 -0.0549  0.2698  0.1454
15123TIP3    H166860   4.378   0.403  12.716  0.4341  0.7092 -1.5468
15123TIP3    H266861   4.523   0.441  12.692  1.1197 -1.6879 -1.4135
15124TIP3   OH266862   0.079   6.717  11.423 -0.1695 -0.5076 -0.1200
15124TIP3    H166863  -0.013   6.700  11.443 -1.0512  0.3871 -2.8771
15124TIP3    H266864   0.095   6.805  11.457  0.2914 -1.3639  2.0132
15125TIP3   OH266865   4.758   1.028  13.047  0.4588 -0.0444 -0.0894
15125TIP3    H166866   4.841   1.044  13.091  1.3803 -0.8157 -1.4395
15125TIP3    H266867   4.780   1.028  12.953 -0.8454 -1.3410 -0.4439
15126TIP3   OH266868   1.639   6.531   4.842  0.2113 -0.2140  0.3438
15126TIP3    H166869   1.680   6.472   4.779 -0.2562 -0.4286  0.2420
15126TIP3    H266870   1.689   6.613   4.833  0.2459 -0.2910 -0.1951
15127TIP3   OH266871   0.826   2.142   4.847 -0.3018  0.4469 -0.2262
15127TIP3    H166872   0.918   2.131   4.873 -0.7108  0.5387  1.4284
15127TIP3    H266873   0.808   2.235   4.865 -0.8095  0.3432 -0.2029
15128TIP3   OH266874   1.180   5.345   0.115  0.0074 -0.1406 -0.0145
15128TIP3    H166875   1.086   5.362   0.112  0.0834  1.0296  1.9044
15128TIP3    H266876   1.188   5.263   0.163 -0.0424  0.1985  0.5940
15129TIP3   OH266877   1.337   3.530   3.228  0.2193 -0.3793  0.3080
15129TIP3    H166878   1.266   3.593   3.241  1.3915  0.6965  2.1151
15129TIP3    H266879   1.404   3.579   3.180 -0.0929 -1.2755 -1.0852
15130TIP3   OH266880   6.038   1.649   4.197 -0.3033 -0.1511 -0.1463
15130TIP3    H166881   6.071   1.709   4.130  1.5045  0.1755  0.9747
15130TIP3    H266882   6.063   1.562   4.165  2.4889  0.1308  1.0317
15131TIP3   OH266883   0.857   2.423   3.362 -0.2743 -0.5303 -0.1706
15131TIP3    H166884   0.784   2.412   3.300  0.0760 -0.7572 -0.5478
15131TIP3    H266885   0.868   2.336   3.402  1.4440 -1.2235 -1.9797
15132TIP3   OH266886   1.508   0.640   3.869 -0.2335  0.2295  0.5170
15132TIP3    H166887   1.455   0.718   3.885 -0.7336  0.2913 -1.3181
15132TIP3    H266888   1.593   0.674   3.841  0.0263  0.1094  1.1401
15133TIP3   OH266889   0.827   1.669   3.340 -0.3465 -0.2850  0.3550
15133TIP3    H166890   0.906   1.722   3.354 -1.1322  0.5854  1.7340
15133TIP3    H266891   0.833   1.600   3.405 -0.2855 -0.7665 -0.1535
15134TIP3   OH266892   1.950   2.099   3.227  0.3595  0.2934 -0.0611
15134TIP3    H166893   1.954   2.115   3.133 -1.1212  0.1872 -0.1679
15134TIP3    H266894   2.020   2.152   3.264  0.0272  1.4842 -1.0928
15135TIP3   OH266895   0.636   0.475   1.629 -0.0779  0.1588  0.0001
15135TIP3    H166896   0.687   0.554   1.643  2.3808 -1.3183 -0.1374
15135TIP3    H266897   0.646   0.425   1.711  1.9474 -1.8329 -1.3475
15136TIP3   OH266898   2.357   0.008   4.965  0.1970 -0.3320 -0.1529
15136TIP3    H166899   2.382  -0.084   4.958  2.0075  0.1765 -1.4904
15136TIP3    H266900   2.406   0.050   4.894 -1.4603  1.4942 -0.2882
15137TIP3   OH266901   2.802   5.526   4.851  0.2490  0.0914  0.0710
15137TIP3    H166902   2.727   5.490   4.898 -0.1699 -0.1085 -0.7213
15137TIP3    H266903   2.775   5.614   4.825 -1.0556 -1.0883 -3.0393
15138TIP3   OH266904   1.986   1.468  13.395  0.1788 -0.0844  0.5013
15138TIP3    H166905   2.082   1.476  13.391  0.0494  2.3426  0.5801
15138TIP3    H266906   1.964   1.495  13.484 -0.5261 -1.8368  0.8820
15139TIP3   OH266907   2.051   1.901   6.365  0.0311 -0.0626 -0.0557
15139TIP3    H166908   1.970   1.902   6.416 -0.2846 -0.1228 -0.5456
15139TIP3    H266909   2.121   1.906   6.431 -0.3551 -0.5555  0.4027
15140TIP3   OH266910   2.813   0.604   4.577 -0.1938 -0.6297  0.5612
15140TIP3    H166911   2.720   0.584   4.562  0.0721 -2.5137  1.1434
15140TIP3    H266912   2.860   0.536   4.528  0.8732 -0.0743  0.7835
15141TIP3   OH266913   4.637   6.830   0.966  0.1004 -0.1725  0.3761
15141TIP3    H166914   4.690   6.894   0.919 -0.8693 -1.7227 -3.2144
15141TIP3    H266915   4.559   6.878   0.992  0.2584  0.5786 -0.4736
15142TIP3   OH266916   4.432   6.006  10.765 -0.3034  0.1848 -0.1734
15142TIP3    H166917   4.445   5.955  10.685 -2.6270 -0.5712 -0.1645
15142TIP3    H266918   4.520   6.017  10.802  0.5469 -1.7441 -1.4489
15143TIP3   OH266919   5.334   6.492   3.192  0.6974 -0.3359 -0.5338
15143TIP3    H166920   5.300   6.552   3.126  0.2173 -1.4053 -1.2850
15143TIP3    H266921   5.328   6.542   3.274  0.1429  0.5728 -1.1009
15144TIP3   OH266922   6.757   4.999  13.889 -0.3205  0.2159 -0.6512
15144TIP3    H166923   6.700   4.952  13.829 -1.4311 -0.2806  0.7434
15144TIP3    H266924   6.809   4.931  13.931  1.6378  0.6861 -2.1616
15145TIP3   OH266925   6.243   3.328  16.735 -0.4275  0.0537  0.4263
15145TIP3    H166926   6.213   3.419  16.745  0.4665  0.3551  0.4885
15145TIP3    H266927   6.293   3.311  16.815  1.5067  0.3618 -0.6548
15146TIP3   OH266928   1.600   2.987  14.589  0.4110 -0.6018  0.5938
15146TIP3    H166929   1.539   2.966  14.661  0.4759 -1.3497  0.4387
15146TIP3    H266930   1.543   3.006  14.515  0.3579 -1.0744  0.5103
15147TIP3   OH266931   2.682   0.469   0.637 -0.0437 -0.5223  0.2890
15147TIP3    H166932   2.588   0.469   0.619  0.1880 -0.1552 -1.0928
15147TIP3    H266933   2.717   0.401   0.579  0.8488  1.1520 -1.2367
15148TIP3   OH266934   2.534   4.001   6.133 -0.2695 -0.2447 -0.3808
15148TIP3    H166935   2.608   4.028   6.188 -0.7483  2.0788 -0.7441
15148TIP3    H266936   2.510   3.914   6.165  1.8565 -0.5684  0.5197
15149TIP3   OH266937   4.358   5.431  17.057 -0.1576  0.4575 -0.5586
15149TIP3    H166938   4.283   5.390  17.016 -0.3252 -0.9298  1.0417
15149TIP3    H266939   4.366   5.389  17.143  2.2620  0.7530 -0.5442
15150TIP3   OH266940   3.915   1.250  16.697  0.3824 -0.0212 -0.3833
15150TIP3    H166941   3.954   1.213  16.619 -0.6483  0.7875 -1.3260
15150TIP3    H266942   3.822   1.260  16.675  0.2262  1.0305  0.6148
15151TIP3   OH266943   0.268   5.261  16.569 -0.0524  0.1234  0.5028
15151TIP3    H166944   0.200   5.225  16.511  1.3006  0.4700 -1.3824
15151TIP3    H266945   0.349   5.220  16.539  0.5791 -0.6166  3.0034
15152TIP3   OH266946   3.462   3.253  11.340 -0.0321 -0.1285  0.4401
15152TIP3    H166947   3.412   3.332  11.322  0.1615 -0.5100 -2.0275
15152TIP3    H266948   3.546   3.265  11.296  0.6094 -1.0711  1.3432
15153TIP3   OH266949   1.951   4.108  13.454 -0.0552 -0.0478  0.4119
15153TIP3    H166950   1.884   4.039  13.454 -0.1432 -0.0075  2.0251
15153TIP3    H266951   1.971   4.123  13.362 -1.3832 -0.9293 -0.0412
15154TIP3   OH266952   3.029   2.112  15.720 -0.4432 -0.0471 -0.8037
15154TIP3    H166953   3.094   2.055  15.680 -1.6245 -0.7363 -1.7994
15154TIP3    H266954   3.021   2.186  15.660 -1.7990 -0.7996 -1.5811
15155TIP3   OH266955   2.628   5.097  13.945  0.1312 -0.0293  0.1075
15155TIP3    H166956   2.655   5.186  13.922 -0.8889  0.0246 -1.0289
15155TIP3    H266957   2.533   5.097  13.928 -0.2364 -0.7686  1.9774
15156TIP3   OH266958   3.255   1.593   2.188 -0.3398  0.1065 -0.0825
15156TIP3    H166959   3.288   1.679   2.215 -0.4908  0.5051 -1.1199
15156TIP3    H266960   3.160   1.600   2.199 -0.5316  0.6909 -1.7558
15157TIP3   OH266961   3.844   4.628  17.021  0.8386 -0.2464  0.5838
15157TIP3    H166962   3.825   4.589  16.935  0.6600  1.1435 -0.0387
15157TIP3    H266963   3.918   4.686  17.005 -0.6180  1.7819  0.8100
15158TIP3   OH266964   0.093   6.087   5.503 -0.1266  0.1340 -0.7200
15158TIP3    H166965   0.036   6.010   5.497  0.3887 -0.3049 -0.1011
15158TIP3    H266966   0.157   6.075   5.432 -0.9016  0.7284 -1.5452
15159TIP3   OH266967   5.960   6.663   2.390 -0.3016  0.5206  0.4150
15159TIP3    H166968   6.012   6.670   2.470 -1.0195 -0.4499  0.9843
15159TIP3    H266969   5.931   6.572   2.388 -2.0333  1.0451  0.1428
15160TIP3   OH266970   0.743   1.389  12.197 -0.8318 -0.8230 -0.4678
15160TIP3    H166971   0.707   1.362  12.281 -0.4645 -3.6396 -1.1128
15160TIP3    H266972   0.800   1.464  12.218  0.5064 -2.4124  2.0726
15161TIP3   OH266973   5.092   1.447  15.438  0.7972  0.9723 -0.1637
15161TIP3    H166974   5.004   1.459  15.404  0.2993  1.2331  1.2048
15161TIP3    H266975   5.145   1.512  15.391  0.9001 -1.0369 -3.1248
15162TIP3   OH266976   2.298   0.326   1.063  0.2027 -0.4251  0.0914
15162TIP3    H166977   2.285   0.281   1.147 -1.4901 -0.3206 -0.0795
15162TIP3    H266978   2.312   0.256   1.000 -1.3696 -0.6911  0.0054
15163TIP3   OH266979   5.114   0.389   6.242 -0.7526 -0.1255  0.0791
15163TIP3    H166980   5.161   0.308   6.220  1.2118  1.4507 -2.0190
15163TIP3    H266981   5.041   0.392   6.179 -0.1123  0.2681 -0.6693
15164TIP3   OH266982   4.599   5.024   5.076  0.1169 -0.0491 -0.1792
15164TIP3    H166983   4.529   4.980   5.125  0.8222  2.2721  3.2394
15164TIP3    H266984   4.680   4.999   5.122  0.9477  1.4074 -0.7782
15165TIP3   OH266985   2.512   0.592   3.323  0.0867 -0.2673  0.0567
15165TIP3    H166986   2.539   0.607   3.413  0.9158 -0.8082 -0.0963
15165TIP3    H266987   2.586   0.547   3.282 -0.7392 -1.1052 -0.5736
15166TIP3   OH266988   5.135   6.274  16.215  0.8508 -1.0724 -0.4767
15166TIP3    H166989   5.226   6.256  16.194  1.2335  0.6245 -0.4147
15166TIP3    H266990   5.113   6.352  16.163  0.1773 -0.0534  1.2411
15167TIP3   OH266991   3.903   5.868  14.099 -0.5059 -1.4266 -0.4356
15167TIP3    H166992   3.927   5.958  14.077 -0.0677 -1.2936  0.5406
15167TIP3    H266993   3.945   5.815  14.032 -0.3168 -0.9462 -0.7049
15168TIP3   OH266994   3.555   1.333   4.086  0.1667 -0.1815 -0.3280
15168TIP3    H166995   3.622   1.379   4.035  0.0522 -0.5642 -0.8397
15168TIP3    H266996   3.474   1.381   4.068  0.2306  0.0396 -0.0303
15169TIP3   OH266997   4.371   1.035  10.710  0.5449  0.0493 -0.0241
15169TIP3    H166998   4.340   0.977  10.779 -0.0686  1.7781  1.2221
15169TIP3    H266999   4.302   1.032  10.644  0.3899 -0.4153  0.1517
15170TIP3   OH267000   5.878   4.699  15.021  0.2407 -0.3134  0.0150
15170TIP3    H167001   5.931   4.774  14.995 -0.0256 -0.1647 -0.1070
15170TIP3    H267002   5.933   4.623  15.003  0.0572 -0.2146 -1.0019
15171TIP3   OH267003   6.072   3.535  12.446  0.0687  0.1670 -0.4031
15171TIP3    H167004   6.108   3.591  12.377  0.7233  0.9251  0.5226
15171TIP3    H267005   6.048   3.454  12.401 -2.1754  1.6124 -2.0604
15172TIP3   OH267006   1.224   0.418  12.358 -0.2571 -0.6058  0.4841
15172TIP3    H167007   1.209   0.481  12.287 -1.8328 -1.3940  0.0473
15172TIP3    H267008   1.177   0.454  12.433  1.1320  0.0617  1.0676
15173TIP3   OH267009   6.538   6.840  10.392 -0.3256  0.5885 -0.1175
15173TIP3    H167010   6.556   6.926  10.354 -0.1702 -0.3172 -2.2535
15173TIP3    H267011   6.450   6.818  10.361  0.7439 -1.2263 -2.1795
15174TIP3   OH267012   2.485   5.731   0.362 -0.1555 -0.1583 -0.5333
15174TIP3    H167013   2.457   5.730   0.270 -2.2110  0.1868  0.0518
15174TIP3    H267014   2.428   5.669   0.406 -0.5196  1.1052  0.8555
15175TIP3   OH267015   0.218   3.700   3.289 -0.7266 -0.4264  0.1956
15175TIP3    H167016   0.232   3.647   3.368 -0.4229  0.4538  0.7514
15175TIP3    H267017   0.283   3.770   3.296  0.5620 -1.3429 -1.7630
15176TIP3   OH267018   6.626   5.182  12.079  0.1042 -0.3395  0.3637
15176TIP3    H167019   6.547   5.145  12.041 -0.2810  0.5610  0.2670
15176TIP3    H267020   6.688   5.109  12.082  0.0639 -0.5060 -1.7257
15177TIP3   OH267021   4.596   2.603   6.414  0.0594  0.3391 -0.0462
15177TIP3    H167022   4.549   2.545   6.353  0.8417 -1.1742  0.7311
15177TIP3    H267023   4.541   2.681   6.419 -1.7436 -0.8476 -0.1160
15178TIP3   OH267024   6.358   0.371  14.221  0.9080  0.3669 -0.6373
15178TIP3    H167025   6.379   0.442  14.282  2.0137  0.8364 -1.5297
15178TIP3    H267026   6.393   0.293  14.263 -0.2937  0.3279  0.3411
15179TIP3   OH267027   6.741   4.889   6.144  0.3614 -0.7248  0.1446
15179TIP3    H167028   6.825   4.875   6.188  0.0947 -0.5914  0.6974
15179TIP3    H267029   6.761   4.954   6.076  0.3662  0.5470  1.3350
15180TIP3   OH267030   4.023   1.038  16.353  0.2964 -0.0983  0.2231
15180TIP3    H167031   4.003   0.950  16.383  0.4818 -0.6931 -1.3277
15180TIP3    H267032   4.111   1.055  16.386  1.3823 -1.5886 -1.7104
15181TIP3   OH267033   1.734   6.198  11.739 -0.8526  0.6225  0.2724
15181TIP3    H167034   1.705   6.167  11.653  1.1730  1.3796 -0.7625
15181TIP3    H267035   1.748   6.118  11.790 -0.5844  0.0773 -0.6358
15182TIP3   OH267036   6.361   1.356  16.416  0.0896  0.1155  0.4579
15182TIP3    H167037   6.321   1.442  16.403 -0.5531 -0.1617  0.5851
15182TIP3    H267038   6.440   1.374  16.467 -0.0858  0.6194  0.5556
15183TIP3   OH267039   1.648   3.088  16.679 -0.0562 -0.3197 -0.0061
15183TIP3    H167040   1.679   3.150  16.613 -1.3038 -1.3313 -1.6348
15183TIP3    H267041   1.581   3.136  16.728  1.0884  0.5369  0.7569
15184TIP3   OH267042   1.428   2.193   4.168 -0.5140  0.3651  0.4680
15184TIP3    H167043   1.336   2.173   4.185 -1.5201  3.2519 -0.8781
15184TIP3    H267044   1.427   2.282   4.133  2.6337 -0.2235 -1.5114
15185TIP3   OH267045   0.564   0.727   4.474 -0.4002 -0.4795 -0.1183
15185TIP3    H167046   0.496   0.661   4.459 -0.6026  0.0003 -1.4549
15185TIP3    H267047   0.518   0.797   4.521 -0.2406 -1.1556  1.0945
15186TIP3   OH267048   6.575   3.259  15.754  0.1150 -0.2341  0.4537
15186TIP3    H167049   6.514   3.295  15.819 -0.4773  0.3733 -0.4239
15186TIP3    H267050   6.595   3.171  15.787 -3.0956 -1.4252 -0.3943
15187TIP3   OH267051   3.729   5.096   1.033  0.0799 -0.3599  0.1760
15187TIP3    H167052   3.701   5.149   1.108  0.8883 -0.4280  0.5388
15187TIP3    H267053   3.745   5.009   1.070  0.3043 -0.4386 -0.1031
15188TIP3   OH267054   0.095   4.841  17.103  0.5697 -0.0010  0.5890
15188TIP3    H167055   0.176   4.890  17.090  0.9437 -0.7937 -0.2558
15188TIP3    H267056   0.047   4.854  17.021  1.4234 -2.3404 -0.3747
15189TIP3   OH267057   6.770   3.846   3.074 -0.7062 -0.1699 -0.6797
15189TIP3    H167058   6.789   3.771   3.130 -1.0365 -1.3308 -2.0554
15189TIP3    H267059   6.840   3.909   3.094 -1.4436 -0.0350  1.8015
15190TIP3   OH267060   5.520   2.212  14.998  0.0379 -0.5761  0.1366
15190TIP3    H167061   5.450   2.275  15.013  1.3273  1.1861 -0.8200
15190TIP3    H267062   5.512   2.188  14.906  0.4084 -0.7083  0.1346
15191TIP3   OH267063   3.778   5.109  12.956  0.3506 -0.0100 -0.2229
15191TIP3    H167064   3.837   5.082  13.027  0.2912 -0.2444 -0.2617
15191TIP3    H267065   3.829   5.171  12.905  1.0311 -1.1834 -1.0093
15192TIP3   OH267066   1.045   3.494  14.283 -0.1019  0.3589 -0.1018
15192TIP3    H167067   1.117   3.520  14.341 -1.9257  1.4484  1.7923
15192TIP3    H267068   1.046   3.559  14.213  0.8867  0.2122 -0.2365
15193TIP3   OH267069   4.381   2.241   0.475  0.1360 -0.7662 -0.3436
15193TIP3    H167070   4.307   2.204   0.523  0.2700 -0.0439  0.4521
15193TIP3    H267071   4.436   2.167   0.453 -0.0788 -1.1460  0.3772
15194TIP3   OH267072   5.270   6.165   4.297 -0.3443  0.0851 -0.1068
15194TIP3    H167073   5.259   6.147   4.390  1.0218  1.1239  0.2952
15194TIP3    H267074   5.182   6.158   4.260 -1.1263  0.9989  1.5093
15195TIP3   OH267075   0.912   5.802   4.674 -0.1912 -0.1962 -0.0918
15195TIP3    H167076   0.860   5.807   4.594 -1.7339 -0.8996  0.7991
15195TIP3    H267077   0.908   5.710   4.699 -0.3493  0.1210  1.1428
15196TIP3   OH267078   1.005   3.016  13.757 -0.0464 -0.2831 -0.9508
15196TIP3    H167079   0.938   2.949  13.774 -1.0394  0.7688 -0.6009
15196TIP3    H267080   1.086   2.977  13.790 -0.6845 -1.1286 -0.3276
15197TIP3   OH267081   5.236   0.222   1.747  0.7147 -0.0714  0.0176
15197TIP3    H167082   5.307   0.250   1.804  0.4764 -0.0108  0.2868
15197TIP3    H267083   5.188   0.302   1.727  0.8422 -0.0815 -0.3276
15198TIP3   OH267084   4.494   0.053  11.602 -0.2135  0.2541 -0.3056
15198TIP3    H167085   4.575   0.017  11.564 -1.5503 -1.0172 -2.1261
15198TIP3    H267086   4.463   0.116  11.538 -0.5886  0.8849  0.4742
15199TIP3   OH267087   0.377   4.496   0.432  0.8799  0.2935 -0.0935
15199TIP3    H167088   0.312   4.529   0.494  1.4247 -0.9426  1.1891
15199TIP3    H267089   0.452   4.473   0.486  1.1627 -1.3861 -1.1318
15200TIP3   OH267090   1.728   5.217  14.823 -0.3410  0.3969 -0.0026
15200TIP3    H167091   1.813   5.262  14.827  0.0540 -0.3636  0.3897
15200TIP3    H267092   1.665   5.280  14.858 -0.1067  1.3395 -1.2283
15201TIP3   OH267093   1.038   1.217   6.068  0.5034 -0.0928  0.2912
15201TIP3    H167094   1.042   1.293   6.126  0.0728 -0.8744  1.3632
15201TIP3    H267095   0.954   1.226   6.022  0.6340  0.2803  0.1211
15202TIP3   OH267096   4.327   3.011   6.113  0.1317  0.2075  0.2330
15202TIP3    H167097   4.356   3.036   6.200  1.7057 -0.2065 -0.1266
15202TIP3    H267098   4.271   2.934   6.127  0.4340  0.1006  0.8803
15203TIP3   OH267099   1.690   6.802  13.433 -0.0462  0.4821  0.3323
15203TIP3    H167100   1.638   6.866  13.481 -2.3708 -2.0811  1.4723
15203TIP3    H267101   1.666   6.816  13.341 -0.7194  1.0494  0.5840
15204TIP3   OH267102   3.378   4.411  15.628 -0.3960  0.3501 -0.3752
15204TIP3    H167103   3.431   4.407  15.548  0.5724 -0.4657  0.2937
15204TIP3    H267104   3.370   4.320  15.656 -2.0909  0.4562 -0.3988
15205TIP3   OH267105   1.486   2.147  10.890 -0.3319 -0.5308 -0.4892
15205TIP3    H167106   1.432   2.200  10.831  0.1876  0.9049  0.2693
15205TIP3    H267107   1.570   2.193  10.892 -0.5465 -0.1399  1.8844
15206TIP3   OH267108   4.238   3.243  13.072  0.0201  0.4241 -0.3342
15206TIP3    H167109   4.211   3.194  12.994  2.0767 -1.4601  0.0245
15206TIP3    H267110   4.203   3.192  13.145  0.5076  0.5869  0.0194
15207TIP3   OH267111   5.447   4.949  14.688 -0.4415  0.2429 -0.2804
15207TIP3    H167112   5.352   4.952  14.702 -0.4832  1.5505 -0.7900
15207TIP3    H267113   5.484   4.957  14.776 -0.7970  0.2483 -0.1284
15208TIP3   OH267114   4.852   2.818  14.081 -0.3991  0.2638 -0.1478
15208TIP3    H167115   4.811   2.771  14.154 -0.8247 -0.6286 -0.9495
15208TIP3    H267116   4.932   2.770  14.062 -0.4612  0.2937 -0.4952
15209TIP3   OH267117   0.790   1.448   0.756  0.2459  0.2857  0.2580
15209TIP3    H167118   0.799   1.515   0.825 -0.5289  2.2188 -1.3956
15209TIP3    H267119   0.809   1.495   0.675 -0.6644 -1.4505 -1.0245
15210TIP3   OH267120   3.226   3.384  15.949  0.4138 -0.1884 -0.2888
15210TIP3    H167121   3.190   3.325  16.015  0.8665  0.8604  0.9345
15210TIP3    H267122   3.169   3.461  15.953  1.8667  0.9099  0.6770
15211TIP3   OH267123   6.754   1.791  15.433 -0.1189  0.1621  0.0587
15211TIP3    H167124   6.727   1.876  15.467  0.7402 -0.4162  2.3447
15211TIP3    H267125   6.840   1.807  15.393  0.4650  0.2264  1.3038
15212TIP3   OH267126   6.011   4.924  12.455 -0.1525 -0.2037 -0.4380
15212TIP3    H167127   5.978   4.861  12.519 -1.0510  2.2784  1.7621
15212TIP3    H267128   6.081   4.971  12.502  0.3490  0.5809 -1.9034
15213TIP3   OH267129   6.681   2.587  14.606 -0.2439 -0.2760  0.4720
15213TIP3    H167130   6.733   2.528  14.661  0.4231  0.6903  0.9047
15213TIP3    H267131   6.590   2.568  14.628 -0.2487 -3.2901 -1.5794
15214TIP3   OH267132   6.221   6.170  13.041 -0.3823  0.2057  0.0862
15214TIP3    H167133   6.315   6.162  13.023  0.1182 -0.6819  2.6881
15214TIP3    H267134   6.183   6.092  13.002  0.6181 -1.5481  2.3734
15215TIP3   OH267135   6.319   2.654  12.264  0.1419  0.0378  0.1289
15215TIP3    H167136   6.276   2.612  12.339  0.4471  1.1708  0.9645
15215TIP3    H267137   6.306   2.748  12.279  1.1146  0.3113 -0.6908
15216TIP3   OH267138   6.565   6.384  15.431 -1.2547  0.1417  0.1130
15216TIP3    H167139   6.510   6.319  15.386 -1.8618  0.3007  0.6064
15216TIP3    H267140   6.633   6.406  15.367 -0.6360 -1.4743  0.1630
15217TIP3   OH267141   6.128   4.162   1.419 -0.2838  0.3726  0.1674
15217TIP3    H167142   6.096   4.161   1.509 -1.4330  0.7822 -0.2140
15217TIP3    H267143   6.060   4.209   1.370  0.7107  0.8860 -0.7667
15218TIP3   OH267144   2.855   6.050   1.402 -0.3340 -0.0209  0.3674
15218TIP3    H167145   2.823   6.123   1.455  0.1535 -0.8702  1.8965
15218TIP3    H267146   2.936   6.023   1.445 -0.4930 -1.4442 -0.1759
15219TIP3   OH267147   5.849   2.515   5.541 -0.0114  0.1620  0.3514
15219TIP3    H167148   5.848   2.479   5.629 -2.4354 -1.7408 -0.3259
15219TIP3    H267149   5.901   2.453   5.490  0.2664  0.5386  0.1658
15220TIP3   OH267150   1.653   6.743  12.797 -0.1369  0.3183  0.9624
15220TIP3    H167151   1.616   6.688  12.867  0.8481 -0.1893  1.0997
15220TIP3    H267152   1.599   6.722  12.720  0.5718 -1.3009  0.8644
15221TIP3   OH267153   1.469   2.525  13.584 -0.0505  0.4446  0.1384
15221TIP3    H167154   1.406   2.598  13.590 -0.7995  0.3934 -3.9809
15221TIP3    H267155   1.539   2.559  13.529  1.3719 -0.9256  1.0363
15222TIP3   OH267156   5.068   0.340  11.662  0.1130  0.1234 -0.0800
15222TIP3    H167157   5.140   0.289  11.698 -0.7136 -0.2006  1.1747
15222TIP3    H267158   5.075   0.327  11.567  0.4485 -1.6561  0.1419
15223TIP3   OH267159   2.313   6.529   5.380 -0.3581 -0.4689  0.2980
15223TIP3    H167160   2.267   6.501   5.459 -2.5965  1.6229 -0.1220
15223TIP3    H267161   2.375   6.596   5.410 -2.4157  1.5945  0.2146
15224TIP3   OH267162   6.294   0.504   1.670  0.1578 -0.3363  0.7192
15224TIP3    H167163   6.298   0.434   1.735  2.0466 -0.5916  0.3905
15224TIP3    H267164   6.351   0.572   1.704  0.1644  0.0689 -0.0736
15225TIP3   OH267165   0.975   3.137   0.520  0.0959 -0.7468  0.1245
15225TIP3    H167166   1.031   3.083   0.465  1.8956 -1.8868  2.9022
15225TIP3    H267167   0.932   3.075   0.579  0.5819  0.6362  2.0000
15226TIP3   OH267168   5.189   2.635   7.124 -0.0727  0.1507 -0.1273
15226TIP3    H167169   5.204   2.613   7.032  0.7646  1.6643 -0.3766
15226TIP3    H267170   5.276   2.655   7.159 -0.4782  0.3706  0.7854
15227TIP3   OH267171   3.057   4.030  15.677 -0.4171 -0.5389 -0.4011
15227TIP3    H167172   3.141   4.022  15.632 -0.2772  2.9780 -1.0058
15227TIP3    H267173   2.993   4.040  15.606 -0.9872 -0.5265  0.1067
15228TIP3   OH267174   0.089   0.865  16.688  0.2818  0.3352  0.8255
15228TIP3    H167175   0.144   0.836  16.761  0.4759 -2.2211 -0.2362
15228TIP3    H267176   0.091   0.792  16.625 -2.3121  1.1664 -0.3861
15229TIP3   OH267177   4.120   4.251   1.725  0.5329 -0.6413  0.4747
15229TIP3    H167178   4.033   4.219   1.700 -0.9079  1.7273  2.0583
15229TIP3    H267179   4.130   4.223   1.816  0.8016  0.2675  0.7296
15230TIP3   OH267180   4.836   0.208   0.018  0.1655 -0.3159 -0.4382
15230TIP3    H167181   4.912   0.218   0.076 -1.4299 -1.6383  2.0679
15230TIP3    H267182   4.761   0.231   0.073 -1.4054 -0.5565 -2.3615
15231TIP3   OH267183   0.443   1.130   4.600 -0.3427  0.2078  0.1977
15231TIP3    H167184   0.392   1.050   4.601 -0.1229 -0.0360 -2.1263
15231TIP3    H267185   0.467   1.142   4.508  3.0994  0.7174  1.0035
15232TIP3   OH267186   2.685   6.072  16.976  0.1008  0.3242  0.0788
15232TIP3    H167187   2.780   6.063  16.988  0.0361  1.5878  2.0427
15232TIP3    H267188   2.664   6.011  16.905  2.3840  0.0770 -0.4706
15233TIP3   OH267189   4.263   1.650   2.565  0.8949  0.2464  0.7406
15233TIP3    H167190   4.317   1.686   2.636  0.8429  1.4667  0.1890
15233TIP3    H267191   4.303   1.684   2.485  0.3479 -0.2822  0.2328
15234TIP3   OH267192   5.390   2.566  13.156 -0.1830 -0.0130  0.3198
15234TIP3    H167193   5.391   2.471  13.159 -1.6697 -0.1300 -1.1540
15234TIP3    H267194   5.297   2.589  13.159  0.0368  1.2695 -1.0458
15235TIP3   OH267195   1.452   6.502   4.182  0.4495  0.4395  0.0319
15235TIP3    H167196   1.508   6.510   4.259  1.2990  2.4834 -0.7306
15235TIP3    H267197   1.492   6.430   4.132 -0.0418 -0.8277  1.3839
15236TIP3   OH267198   1.462   3.687   5.999  0.4128 -0.2173  0.3769
15236TIP3    H167199   1.496   3.755   6.057  1.9442  0.1077 -0.8259
15236TIP3    H267200   1.489   3.715   5.911  0.6913 -2.1439 -0.1963
15237TIP3   OH267201   2.844   5.974  16.719 -0.5124  0.7453 -0.0120
15237TIP3    H167202   2.932   5.992  16.750  0.5265 -2.1508 -0.9599
15237TIP3    H267203   2.830   6.037  16.648  0.0859  2.3374  1.2398
15238TIP3   OH267204   3.777   3.614  11.449 -0.2739 -0.4301  0.2656
15238TIP3    H167205   3.737   3.531  11.478 -2.2676 -0.2645 -1.8019
15238TIP3    H267206   3.867   3.589  11.425  0.0617 -1.3956  2.2074
15239TIP3   OH267207   4.605   0.768  11.905 -0.2502 -0.1314 -0.1857
15239TIP3    H167208   4.623   0.861  11.887  2.9257 -0.8917 -1.7973
15239TIP3    H267209   4.604   0.727  11.819  0.0894 -1.8272  0.5827
15240TIP3   OH267210   5.118   3.945   3.980  0.1125  0.3281  0.0420
15240TIP3    H167211   5.076   3.903   4.056  0.1064 -0.5923 -0.4610
15240TIP3    H267212   5.159   3.873   3.932 -0.5669  0.7825 -1.2649
15241TIP3   OH267213   3.837   1.649   5.516 -0.2429  0.2013 -0.4211
15241TIP3    H167214   3.846   1.583   5.585 -0.0486  0.4542 -0.2020
15241TIP3    H267215   3.819   1.731   5.563  0.6923  0.5305 -0.6208
15242TIP3   OH267216   2.132   1.379  11.501 -0.3916 -0.2358 -0.5884
15242TIP3    H167217   2.038   1.401  11.501 -0.5424 -0.8504 -0.4193
15242TIP3    H267218   2.144   1.326  11.580  0.1147 -0.1110 -0.5783
15243TIP3   OH267219   1.613   1.642  16.306 -0.7800  0.3477 -0.1706
15243TIP3    H167220   1.702   1.624  16.338 -1.3808 -0.0420  1.3739
15243TIP3    H267221   1.619   1.729  16.266  0.4190  0.0781 -0.6024
15244TIP3   OH267222   2.480   1.357  12.975  0.1199 -0.1360  0.9760
15244TIP3    H167223   2.487   1.264  12.953 -2.4275 -0.4838  1.2941
15244TIP3    H267224   2.495   1.360  13.070  2.7248  0.1926  0.6159
15245TIP3   OH267225   1.842   3.652   4.557 -0.6423  0.1541  0.1691
15245TIP3    H167226   1.878   3.620   4.640  0.7984 -1.7915 -1.1107
15245TIP3    H267227   1.912   3.705   4.519 -0.9309  0.2647 -0.2153
15246TIP3   OH267228   3.767   4.941   3.401 -0.2601  0.2113  0.6516
15246TIP3    H167229   3.788   4.865   3.456 -1.6640  0.6840  1.8873
15246TIP3    H267230   3.712   4.905   3.331 -1.8636  0.2185  1.8604
15247TIP3   OH267231   5.245   2.655  11.264  0.3614  0.1508  0.1330
15247TIP3    H167232   5.233   2.721  11.332 -0.0422 -0.8162  1.0293
15247TIP3    H267233   5.317   2.600  11.297 -0.7094 -1.1134  0.4416
15248TIP3   OH267234   1.348   6.388  11.081  0.5780 -0.1350 -0.0783
15248TIP3    H167235   1.365   6.441  11.160  1.8109  0.9226 -1.0059
15248TIP3    H267236   1.309   6.307  11.114  1.1993  0.2233  1.6320
15249TIP3   OH267237   0.155   3.246  17.100  0.8059  0.2206 -0.3213
15249TIP3    H167238   0.102   3.325  17.093  1.0008  0.2839 -1.2161
15249TIP3    H267239   0.103   3.188  17.155 -0.1510  0.3290 -1.0705
15250TIP3   OH267240   2.678   3.849   1.947 -0.2875  0.3001  0.1913
15250TIP3    H167241   2.659   3.922   2.005 -0.6644  0.9375 -0.7101
15250TIP3    H267242   2.617   3.860   1.873 -1.5865 -1.8675  0.8290
15251TIP3   OH267243   1.248   1.438   3.174  0.1146  0.0109  0.0761
15251TIP3    H167244   1.230   1.532   3.185  1.2417  0.2652 -0.1340
15251TIP3    H267245   1.268   1.429   3.081  1.2248 -0.2175  0.3320
15252TIP3   OH267246   4.942   5.079  12.853  0.4269  0.0300  0.1026
15252TIP3    H167247   4.925   5.067  12.760  0.6820  0.5567 -0.0176
15252TIP3    H267248   4.980   4.995  12.881  1.2022  0.1697 -0.4753
15253TIP3   OH267249   2.057   0.747   0.606  0.0497 -0.0773 -0.0235
15253TIP3    H167250   2.094   0.727   0.692 -0.7986  0.9905  0.6336
15253TIP3    H267251   2.114   0.815   0.570  0.8983 -1.1180 -0.7070
15254TIP3   OH267252   2.193   1.279   0.564 -0.3091 -0.7913 -0.3655
15254TIP3    H167253   2.203   1.222   0.487  1.1930 -1.5787  0.3690
15254TIP3    H267254   2.111   1.251   0.604  0.4755 -2.6056  0.0746
15255TIP3   OH267255   5.712   2.945   2.090  0.2748  0.1736  0.1826
15255TIP3    H167256   5.794   2.992   2.101  0.7465 -1.1284  3.4148
15255TIP3    H267257   5.652   2.983   2.154 -0.7269 -0.7360 -0.1634
15256TIP3   OH267258   2.689   3.066   1.774  0.2590  0.2934  0.0259
15256TIP3    H167259   2.743   2.987   1.771 -0.9903 -0.6176  0.6733
15256TIP3    H267260   2.639   3.057   1.855 -1.9523  0.3628 -1.2555
15257TIP3   OH267261   4.822   2.827   0.324  0.5948 -0.4823 -0.4386
15257TIP3    H167262   4.782   2.833   0.411  1.7214 -2.3391  0.2722
15257TIP3    H267263   4.747   2.828   0.264 -0.1579  2.2804  0.3559
15258TIP3   OH267264   0.235   5.677  15.906  0.1600  0.4928 -0.0990
15258TIP3    H167265   0.272   5.703  15.990 -0.1184 -1.9406  0.8573
15258TIP3    H267266   0.269   5.589  15.891 -2.4014 -0.4506 -0.8704
15259TIP3   OH267267   2.781   4.119  16.911  0.0481  0.0934  0.3629
15259TIP3    H167268   2.711   4.181  16.930 -0.4472  0.0248 -1.1151
15259TIP3    H267269   2.739   4.034  16.909  0.2835 -0.0209  0.1093
15260TIP3   OH267270   2.861   0.351  13.442 -0.5055  0.3076  0.2377
15260TIP3    H167271   2.922   0.335  13.371  0.8247  1.1385  1.1513
15260TIP3    H267272   2.885   0.437  13.476 -2.5844  0.9410  0.2524
15261TIP3   OH267273   3.966   1.690   4.899  0.5224 -0.3668 -0.2136
15261TIP3    H167274   4.057   1.707   4.923  0.4607  0.0289 -0.2599
15261TIP3    H267275   3.949   1.602   4.932  0.6378 -0.0785  0.6360
15262TIP3   OH267276   6.297   2.651  13.195  0.2511  0.1554  0.4577
15262TIP3    H167277   6.329   2.564  13.220  0.4457  0.3287  0.8204
15262TIP3    H267278   6.314   2.706  13.272  3.2511  1.3174 -0.8564
15263TIP3   OH267279   2.629   0.967   3.291 -0.1856  0.2972 -0.1670
15263TIP3    H167280   2.559   0.919   3.247  0.3360  0.0864 -0.7813
15263TIP3    H267281   2.695   0.980   3.224 -1.0924  3.6026 -0.6036
15264TIP3   OH267282   1.556   1.207  11.347  0.2551 -0.0196 -0.1905
15264TIP3    H167283   1.543   1.122  11.389  1.5075  0.4292  1.1842
15264TIP3    H267284   1.491   1.209  11.277  1.1724 -2.7335 -1.2518
15265TIP3   OH267285   2.122   1.734   0.942 -1.0051 -0.4057  0.4428
15265TIP3    H167286   2.066   1.812   0.941 -0.3897  0.0360  0.1532
15265TIP3    H267287   2.072   1.669   0.892 -0.2886  0.6946 -1.8284
15266TIP3   OH267288   5.360   6.541   2.328  0.2602 -0.0327 -0.2894
15266TIP3    H167289   5.356   6.602   2.402  0.8236 -0.8956  0.4697
15266TIP3    H267290   5.307   6.466   2.356 -1.3113  0.5313 -1.6418
15267TIP3   OH267291   5.250   1.833  13.042  0.0913  0.4663  0.0142
15267TIP3    H167292   5.262   1.738  13.043 -1.2965  0.2509 -1.0778
15267TIP3    H267293   5.291   1.862  12.960  1.0301  0.9137  0.6187
15268TIP3   OH267294   2.772   1.153  15.118  0.0297  0.0905  0.2704
15268TIP3    H167295   2.713   1.209  15.068  1.4626  1.5096  0.0974
15268TIP3    H267296   2.732   1.066  15.114 -0.1527  0.2188 -2.9878
15269TIP3   OH267297   4.905   5.847  12.974 -0.1643 -0.4665  0.1319
15269TIP3    H167298   4.982   5.904  12.982 -0.4785 -0.2139  1.4538
15269TIP3    H267299   4.920   5.798  12.893  2.6769 -2.3654  1.6676
15270TIP3   OH267300   5.314   4.852  12.372 -0.0571 -0.4647  0.1026
15270TIP3    H167301   5.276   4.939  12.382  0.5973 -0.2419  0.6798
15270TIP3    H267302   5.263   4.812  12.301  0.8555  1.0889 -1.5368
15271TIP3   OH267303   4.923   6.061  12.384  0.5367  0.3296 -0.0907
15271TIP3    H167304   4.994   6.062  12.321 -0.1348  0.8416 -0.8605
15271TIP3    H267305   4.946   5.992  12.446  1.8120  0.6459 -0.1856
15272TIP3   OH267306   3.985   0.458   4.816  0.6382 -0.4266 -0.4578
15272TIP3    H167307   4.046   0.445   4.743  0.1410 -0.3140 -0.8994
15272TIP3    H267308   3.899   0.460   4.775  0.4729  1.7234 -0.1520
15273TIP3   OH267309   4.791   2.187   5.870 -0.9073  0.9006  0.2733
15273TIP3    H167310   4.754   2.264   5.828  0.3179  0.9261 -0.8684
15273TIP3    H267311   4.771   2.115   5.809  0.3114  0.8200 -0.0657
15274TIP3   OH267312   4.952   0.260   0.689 -0.8437 -0.4249 -0.7176
15274TIP3    H167313   5.027   0.203   0.708 -1.5751 -0.9373  0.8405
15274TIP3    H267314   4.964   0.335   0.747 -2.2426 -1.1995  0.6765
15275TIP3   OH267315   5.435   1.248   0.321  0.2485  0.1013 -0.0548
15275TIP3    H167316   5.380   1.200   0.383  0.9804  0.9129  1.2597
15275TIP3    H267317   5.382   1.323   0.295  0.1790  0.0990  0.0795
15276TIP3   OH267318   6.498   5.781   1.167  0.2738 -0.3307  0.0691
15276TIP3    H167319   6.471   5.863   1.125  1.3644  0.1193  0.2056
15276TIP3    H267320   6.419   5.746   1.207 -0.2372  0.5664 -0.1490
15277TIP3   OH267321   4.937   2.459  13.386 -0.5164 -0.4074  0.0195
15277TIP3    H167322   4.929   2.487  13.477  0.8011 -0.5912  0.2141
15277TIP3    H267323   4.919   2.366  13.388  0.9549 -0.7126  0.3615
15278TIP3   OH267324   1.190   2.353  13.324 -0.3130 -0.0619  0.5399
15278TIP3    H167325   1.231   2.277  13.281  0.7107  0.3395  0.7636
15278TIP3    H267326   1.120   2.379  13.265 -1.3976 -1.8263  0.9689
15279TIP3   OH267327   0.913   2.790  11.154 -0.0404  0.0298  0.1320
15279TIP3    H167328   0.985   2.808  11.093  0.0750 -0.2613  0.1828
15279TIP3    H267329   0.956   2.776  11.238 -0.2511  1.3037  0.4807
15280TIP3   OH267330   5.280   1.104  10.910  0.0194  0.4205 -0.2520
15280TIP3    H167331   5.373   1.123  10.900  0.2127 -0.7261 -0.7510
15280TIP3    H267332   5.266   1.024  10.859 -0.3425 -1.8335  3.0615
15281TIP3   OH267333   4.703   2.673   1.587 -0.0715 -0.2272  0.0241
15281TIP3    H167334   4.735   2.622   1.661  0.0321 -2.4895 -1.4515
15281TIP3    H267335   4.781   2.719   1.554  0.1249 -0.1243  0.6203
15282TIP3   OH267336   2.924   1.600  14.230  0.0643 -0.1342 -0.0566
15282TIP3    H167337   2.980   1.603  14.308  1.4098  0.3023 -1.0015
15282TIP3    H267338   2.976   1.641  14.162 -0.8107 -1.1523 -1.3794
15283TIP3   OH267339   0.419   4.232  13.213  0.4987 -0.0815  0.1953
15283TIP3    H167340   0.504   4.276  13.213  1.0480 -1.0857 -1.2642
15283TIP3    H267341   0.380   4.253  13.128  0.4088 -1.6689 -0.1938
15284TIP3   OH267342   0.386   5.089  11.429  0.2038  0.1152  0.4553
15284TIP3    H167343   0.306   5.130  11.462  0.9604  2.2134 -0.1261
15284TIP3    H267344   0.398   5.128  11.342  0.1155 -2.6589 -0.9030
15285TIP3   OH267345   3.557   2.258   5.079  0.1605  0.1788 -0.1558
15285TIP3    H167346   3.500   2.255   5.002 -0.8337 -0.7075  0.5844
15285TIP3    H267347   3.596   2.171   5.083 -1.4506 -0.5338  1.5175
15286TIP3   OH267348   1.161   2.443   5.629  0.1064 -0.4914 -0.6437
15286TIP3    H167349   1.167   2.538   5.623 -0.3274 -0.3016  1.2597
15286TIP3    H267350   1.251   2.413   5.617  0.5910  0.3234  0.7720
15287TIP3   OH267351   3.432   3.679  13.037  0.7235 -0.4268 -0.9656
15287TIP3    H167352   3.350   3.718  13.007  0.7580  1.3279  1.0264
15287TIP3    H267353   3.500   3.732  12.997  0.8507 -0.7025 -1.1162
15288TIP3   OH267354   2.567   0.561  14.536 -0.4269  0.0045  0.0412
15288TIP3    H167355   2.591   0.468  14.539 -0.2296  0.0789  1.1450
15288TIP3    H267356   2.606   0.599  14.615  0.4530  1.2699 -0.9594
15289TIP3   OH267357   0.736   5.228   2.179 -0.4053  0.0244  0.1031
15289TIP3    H167358   0.696   5.172   2.113  0.7491 -0.5596 -0.1321
15289TIP3    H267359   0.806   5.274   2.132  0.2477 -0.1939  0.8390
15290TIP3   OH267360   0.467   2.668  16.799  0.1553  0.7614  0.7849
15290TIP3    H167361   0.444   2.761  16.801  1.7602  1.1840  2.2139
15290TIP3    H267362   0.453   2.638  16.888  0.4041 -0.1852  0.5163
15291TIP3   OH267363   3.500   3.474  15.180  0.1758 -0.7107  0.3573
15291TIP3    H167364   3.483   3.477  15.274  1.3321 -2.6373  0.6882
15291TIP3    H267365   3.586   3.516  15.170 -0.3795  0.3820 -0.0077
15292TIP3   OH267366   6.030   3.591  15.784  0.3716 -0.0704  0.4910
15292TIP3    H167367   5.952   3.617  15.736 -2.0931 -2.0990  3.0474
15292TIP3    H267368   6.074   3.529  15.725 -1.0016 -0.3343 -0.3100
15293TIP3   OH267369   6.365   3.508   5.115  0.8360 -0.1020  0.0637
15293TIP3    H167370   6.316   3.501   5.034  1.4159 -0.5381 -0.2598
15293TIP3    H267371   6.394   3.599   5.118 -0.5940  0.3641  0.6314
15294TIP3   OH267372   3.372   3.849   2.087  0.1412 -0.1780  0.2862
15294TIP3    H167373   3.440   3.799   2.043  1.2199  0.5890  1.0144
15294TIP3    H267374   3.359   3.926   2.031  0.2055 -0.0986  0.3797
15295TIP3   OH267375   2.203   6.621  13.851 -0.1308  0.7694 -0.2575
15295TIP3    H167376   2.197   6.611  13.946  0.2907  0.5226 -0.2524
15295TIP3    H267377   2.166   6.540  13.816  1.3900  0.0347 -0.2590
15296TIP3   OH267378   3.635   0.822   3.409  0.2997 -0.1094  0.3465
15296TIP3    H167379   3.635   0.734   3.448 -0.2498  0.1080  0.8678
15296TIP3    H267380   3.546   0.833   3.376  0.2907  0.3500  0.5212
15297TIP3   OH267381   3.441   6.696   0.742  0.3441  0.0643 -0.9823
15297TIP3    H167382   3.528   6.736   0.746 -1.4384  4.3745 -0.3149
15297TIP3    H267383   3.405   6.708   0.830 -1.0694 -1.4015 -1.3012
15298TIP3   OH267384   4.642   0.150   2.093 -0.1811  0.2450 -0.3340
15298TIP3    H167385   4.624   0.057   2.078 -0.6622  0.0660  1.2091
15298TIP3    H267386   4.700   0.174   2.021  1.1560 -1.6335  0.0272
15299TIP3   OH267387   5.115   2.556  13.210 -0.4612 -0.0934  0.2344
15299TIP3    H167388   5.038   2.528  13.260 -0.3631  1.1179  1.1344
15299TIP3    H267389   5.085   2.634  13.163 -0.1444 -0.3884 -0.4677
15300TIP3   OH267390   5.195   0.644   4.882  0.2910  0.1813 -0.6004
15300TIP3    H167391   5.101   0.664   4.885  0.3127  0.2556 -0.3431
15300TIP3    H267392   5.228   0.677   4.965 -0.3184 -4.2710  1.6818
15301TIP3   OH267393   5.413   2.018  16.852 -0.3032  0.5518  0.4185
15301TIP3    H167394   5.465   2.090  16.817 -1.9814  1.2687 -0.7661
15301TIP3    H267395   5.328   2.027  16.808 -0.9376 -1.4498  1.1399
15302TIP3   OH267396   3.653   4.118   6.623 -0.0830  0.0263  0.6486
15302TIP3    H167397   3.598   4.138   6.699  0.4204  0.0827  1.0081
15302TIP3    H267398   3.715   4.052   6.656  1.9919  2.0805  1.1438
15303TIP3   OH267399   2.387   0.296   3.513  0.8577  0.4732 -0.0996
15303TIP3    H167400   2.384   0.389   3.491  0.2817  0.6875  0.8285
15303TIP3    H267401   2.295   0.270   3.521  1.0173 -0.1505 -0.2655
15304TIP3   OH267402   6.024   3.188  16.592  0.4987 -0.4793 -0.6491
15304TIP3    H167403   5.952   3.195  16.653  0.1309 -1.3557 -0.9589
15304TIP3    H267404   6.102   3.211  16.643 -0.0759  1.3564 -0.5432
15305TIP3   OH267405   6.159   0.545   2.549  0.4087  0.3071 -0.1470
15305TIP3    H167406   6.126   0.615   2.605  1.6669  0.0185  0.9857
15305TIP3    H267407   6.158   0.467   2.604  4.2770  0.5287  0.5151
15306TIP3   OH267408   2.431   2.821   3.637  0.4368  0.2676 -0.3712
15306TIP3    H167409   2.470   2.860   3.559 -0.7701  1.8669 -0.2384
15306TIP3    H267410   2.490   2.847   3.709  0.6349  0.2495 -0.5260
15307TIP3   OH267411   1.963   4.708   6.583 -0.3524 -0.8083 -0.3709
15307TIP3    H167412   2.025   4.707   6.510 -0.1111  1.5614 -0.2729
15307TIP3    H267413   2.003   4.767   6.647 -2.8191  1.1035 -0.4519
15308TIP3   OH267414   4.501   0.208   4.672 -0.3454  0.0675  0.2354
15308TIP3    H167415   4.558   0.274   4.712 -1.4586  1.5768 -0.5251
15308TIP3    H267416   4.418   0.254   4.658 -0.2906 -0.5862 -2.9926
15309TIP3   OH267417   4.483   1.871   0.729 -0.0515  0.0269 -0.3675
15309TIP3    H167418   4.464   1.861   0.822 -1.5828 -1.1500 -0.7592
15309TIP3    H267419   4.533   1.794   0.705 -0.1839  0.0210 -0.6395
15310TIP3   OH267420   2.769   1.079   3.989  0.2969 -0.2932 -0.5989
15310TIP3    H167421   2.719   1.146   3.941  0.1982  0.0489 -0.0198
15310TIP3    H267422   2.855   1.119   4.002  1.8680 -1.9897 -4.2669
15311TIP3   OH267423   2.872   2.821  15.397 -0.1085  0.0638 -0.2007
15311TIP3    H167424   2.819   2.876  15.339 -0.7834  0.7085  0.9798
15311TIP3    H267425   2.903   2.750  15.341 -0.6149  0.7356 -1.3760
15312TIP3   OH267426   3.414   6.582   2.760  0.4874  0.0152  0.0485
15312TIP3    H167427   3.359   6.641   2.811 -0.9962 -0.6321 -0.7242
15312TIP3    H267428   3.353   6.534   2.704  1.8479 -0.7505 -0.8653
15313TIP3   OH267429   6.655   0.448  14.441 -0.9446  0.0384 -0.1765
15313TIP3    H167430   6.730   0.397  14.410  0.6463  4.0392 -3.9226
15313TIP3    H267431   6.692   0.509  14.505 -2.1168 -1.0705  1.6451
15314TIP3   OH267432   1.701   0.129  15.629 -0.4122 -0.1105  0.0397
15314TIP3    H167433   1.763   0.059  15.611 -0.7949 -0.1804 -1.1139
15314TIP3    H267434   1.615   0.090  15.612 -0.7197  0.2365  0.7602
15315TIP3   OH267435   5.344   0.812   3.373 -0.0996  0.4064 -0.5398
15315TIP3    H167436   5.439   0.822   3.373 -0.0941  0.4474  0.7043
15315TIP3    H267437   5.326   0.757   3.297  0.7633  1.6985 -1.7243
15316TIP3   OH267438   4.998   0.620  11.658  0.3119  0.4793  0.0855
15316TIP3    H167439   5.021   0.537  11.700  0.5927  0.8665  0.7173
15316TIP3    H267440   5.036   0.687  11.715  1.0462  1.0208 -1.0029
15317TIP3   OH267441   6.784   4.718   2.487  0.6374  0.1703 -0.1086
15317TIP3    H167442   6.808   4.675   2.405  1.8593  0.5385  0.0406
15317TIP3    H267443   6.814   4.659   2.556  1.6248  0.8717  0.0847
15318TIP3   OH267444   3.915   4.177   3.328  0.4924  0.4224  0.0580
15318TIP3    H167445   3.965   4.192   3.409  0.2982  0.2686  0.2062
15318TIP3    H267446   3.914   4.262   3.285 -2.4167  1.4489  1.9044
15319TIP3   OH267447   4.446   3.051   1.429 -0.4894  0.3471  0.2058
15319TIP3    H167448   4.412   2.968   1.395 -0.8017  0.6234 -0.1618
15319TIP3    H267449   4.487   3.093   1.354  1.2523 -0.2567  0.7609
15320TIP3   OH267450   4.122   3.434  14.746 -0.3797 -0.1463  0.0433
15320TIP3    H167451   4.099   3.520  14.712  2.2858  0.1239 -1.3417
15320TIP3    H267452   4.209   3.445  14.783 -0.1851 -2.1308  0.3008
15321TIP3   OH267453   0.698   4.549   3.124  0.2562 -0.3346 -0.0907
15321TIP3    H167454   0.755   4.558   3.200 -0.8104 -1.8363  0.9464
15321TIP3    H267455   0.638   4.623   3.130 -1.1983 -1.5614  1.8371
15322TIP3   OH267456   3.524   5.736   1.570 -0.3516 -0.0858  0.0922
15322TIP3    H167457   3.540   5.657   1.518  0.7133 -0.4781  0.9636
15322TIP3    H267458   3.456   5.784   1.522  1.1008 -0.0487 -2.0480
15323TIP3   OH267459   0.272   3.162  12.978 -0.5314  0.1510 -0.3501
15323TIP3    H167460   0.357   3.118  12.979 -0.9285 -0.6329  0.2109
15323TIP3    H267461   0.277   3.222  12.904  0.8774  0.8557  0.2732
15324TIP3   OH267462   3.390   2.798  13.871 -0.1864 -0.3412  0.0455
15324TIP3    H167463   3.341   2.718  13.853 -1.6529  0.6397 -0.5651
15324TIP3    H267464   3.482   2.772  13.868 -0.6072 -1.8275 -1.0185
15325TIP3   OH267465   0.844   3.083  12.179  0.0956  0.2382  0.4382
15325TIP3    H167466   0.856   2.994  12.148  0.6297  1.3180 -2.8472
15325TIP3    H267467   0.928   3.107  12.218  0.2453 -0.3977  0.5053
15326TIP3   OH267468   2.524   2.774  16.341  0.0914 -0.2762 -0.2120
15326TIP3    H167469   2.443   2.780  16.290 -0.1014 -1.7173 -0.1194
15326TIP3    H267470   2.540   2.863  16.372 -0.1724  0.5163 -2.1863
15327TIP3   OH267471   5.913   3.410  14.392  0.0412 -0.4857  0.7821
15327TIP3    H167472   5.880   3.462  14.465  1.3428  0.9265  0.3976
15327TIP3    H267473   5.872   3.449  14.314 -2.2510 -2.6829  0.7267
15328TIP3   OH267474   3.387   1.948   1.313  0.5458  0.5553 -0.2139
15328TIP3    H167475   3.295   1.961   1.290  0.6251  1.6905  0.0553
15328TIP3    H267476   3.390   1.963   1.408  0.9081 -0.0576 -0.1255
15329TIP3   OH267477   3.417   3.182  12.831 -0.6927  0.3036 -0.5179
15329TIP3    H167478   3.395   3.089  12.833  0.7102 -0.0472 -0.0613
15329TIP3    H267479   3.399   3.213  12.920  1.9802 -0.3688  0.3603
15330TIP3   OH267480   3.774   6.730   3.405 -0.5541 -0.5312  0.7076
15330TIP3    H167481   3.810   6.661   3.350 -0.3947 -0.4318  0.6877
15330TIP3    H267482   3.701   6.766   3.355  1.2439  1.4202 -0.6804
15331TIP3   OH267483   0.780   6.458   2.317 -0.0621  0.4118 -0.3636
15331TIP3    H167484   0.862   6.495   2.283  1.2272 -2.0064 -0.1308
15331TIP3    H267485   0.807   6.406   2.392 -2.2892  2.0001  1.6627
15332TIP3   OH267486   0.569   3.551   4.525  0.1289 -0.3422 -0.2543
15332TIP3    H167487   0.522   3.499   4.590 -1.2990  1.7715  0.5118
15332TIP3    H267488   0.658   3.515   4.525 -0.5168 -2.0641  0.9642
15333TIP3   OH267489   0.067   4.007   6.261 -0.3600  0.2115 -0.5499
15333TIP3    H167490   0.126   3.987   6.334 -0.8242  0.6886 -0.0322
15333TIP3    H267491   0.122   3.999   6.183  0.1604 -0.2512 -0.1486
15334TIP3   OH267492   2.132   5.959   2.741  0.3677  0.7438  0.3122
15334TIP3    H167493   2.112   5.867   2.756 -1.0301  0.3388 -3.2380
15334TIP3    H267494   2.228   5.962   2.734  0.3687 -0.6659 -0.6070
15335TIP3   OH267495   5.916   1.593   2.945  0.4557  0.0665  0.2508
15335TIP3    H167496   5.922   1.525   2.878  0.7228  0.0861  0.2514
15335TIP3    H267497   5.991   1.576   3.002 -0.3554 -0.5854  1.1474
15336TIP3   OH267498   5.758   0.299  16.742 -0.0796 -0.1423 -0.3550
15336TIP3    H167499   5.834   0.253  16.776 -0.3033 -2.7064 -2.8460
15336TIP3    H267500   5.686   0.272  16.799  0.2942 -0.6411 -0.1114
15337TIP3   OH267501   4.116   6.040   1.047 -0.1642 -0.0981 -1.0088
15337TIP3    H167502   4.191   6.089   1.012  1.3170 -0.3734  1.5212
15337TIP3    H267503   4.146   5.949   1.051 -0.4339 -0.1539  0.3669
15338TIP3   OH267504   2.669   1.867  13.455  0.4324 -0.5494 -0.0866
15338TIP3    H167505   2.708   1.820  13.381  0.7226  0.5033 -0.6223
15338TIP3    H267506   2.688   1.959  13.438  3.3349 -0.3832  2.8746
15339TIP3   OH267507   6.652   1.109   4.131 -0.0444 -0.3920  0.2019
15339TIP3    H167508   6.668   1.195   4.170 -1.9267 -1.2539  3.1524
15339TIP3    H267509   6.647   1.127   4.037  0.5523  2.5652  0.6214
15340TIP3   OH267510   0.306   1.341   0.292 -0.2750  0.2131 -0.1094
15340TIP3    H167511   0.401   1.334   0.307 -0.3736  0.6109  0.8362
15340TIP3    H267512   0.294   1.320   0.200  0.4700 -2.2127  0.2866
15341TIP3   OH267513   4.043   4.717   3.416  0.1746 -0.0864  0.9997
15341TIP3    H167514   4.039   4.754   3.328 -0.0396  1.0318  1.4745
15341TIP3    H267515   3.957   4.735   3.454  0.5148  0.0943  1.7014
15342TIP3   OH267516   1.986   4.377   6.036  0.1599  0.0714  0.3610
15342TIP3    H167517   1.936   4.452   6.066  2.1501  1.6185  0.0104
15342TIP3    H267518   2.055   4.366   6.102 -0.2670 -1.6864  0.5833
15343TIP3   OH267519   0.095   3.234   3.400 -0.0219 -0.9324  0.6214
15343TIP3    H167520   0.151   3.231   3.323 -1.3329 -0.2937 -0.4034
15343TIP3    H267521   0.014   3.191   3.372 -0.3392 -1.1400  1.8049
15344TIP3   OH267522   6.335   4.870  12.670 -0.3275  0.4191 -0.3397
15344TIP3    H167523   6.376   4.818  12.601  1.2982  2.0719 -0.6930
15344TIP3    H267524   6.402   4.934  12.695 -2.3749  2.6931 -0.3063
15345TIP3   OH267525   0.477   2.249  15.226  0.7376 -0.3242 -0.0706
15345TIP3    H167526   0.512   2.315  15.287  0.0557  0.5763 -0.6247
15345TIP3    H267527   0.552   2.192  15.207  1.4680  0.5407  0.0988
15346TIP3   OH267528   6.135   5.412   4.715 -0.4868  0.4233  0.3543
15346TIP3    H167529   6.104   5.455   4.794 -0.5844  0.8734  0.0792
15346TIP3    H267530   6.199   5.473   4.678 -1.1054  0.6543 -0.3865
15347TIP3   OH267531   4.491   1.803   5.116 -0.0941 -0.6269 -0.1516
15347TIP3    H167532   4.562   1.808   5.180 -0.5135  1.1957  0.2363
15347TIP3    H267533   4.509   1.723   5.066  2.6033  0.0666 -0.4623
15348TIP3   OH267534   6.004   0.095  15.428  0.2413  0.1205  0.3670
15348TIP3    H167535   5.924   0.112  15.379 -1.4683 -0.7850  2.6386
15348TIP3    H267536   6.067   0.065  15.363 -1.5605 -0.0399 -1.3813
15349TIP3   OH267537   0.560   2.858  15.216 -0.0933  0.3099 -0.6935
15349TIP3    H167538   0.650   2.825  15.220 -0.6968 -1.7947 -2.6580
15349TIP3    H267539   0.506   2.779  15.206 -2.2516  1.4681  0.9108
15350TIP3   OH267540   4.137   1.882   0.025 -0.9977  0.7173 -0.4751
15350TIP3    H167541   4.139   1.788   0.041 -2.0578  0.3652 -2.1670
15350TIP3    H267542   4.057   1.912   0.068 -0.4070  0.9578  0.4874
15351TIP3   OH267543   5.637   1.537  16.551 -0.1529 -0.2668  0.1588
15351TIP3    H167544   5.695   1.582  16.613  1.4718 -0.6888 -0.9923
15351TIP3    H267545   5.680   1.549  16.466  0.2004 -3.6435 -0.2839
15352TIP3   OH267546   3.486   1.413   0.608 -0.1106  0.2530  0.1323
15352TIP3    H167547   3.545   1.375   0.673 -0.8822  0.8986  1.2375
15352TIP3    H267548   3.486   1.507   0.628 -0.8390  0.3744 -0.4086
15353TIP3   OH267549   2.975   4.117   3.362 -0.6766 -0.0921 -0.1052
15353TIP3    H167550   2.896   4.155   3.400 -0.0937 -0.7712  1.9724
15353TIP3    H267551   3.025   4.085   3.438  2.0555  1.1497 -1.2282
15354TIP3   OH267552   4.666   1.985  12.694  0.1066  0.3259 -0.4042
15354TIP3    H167553   4.719   1.908  12.713  0.2586  0.4224 -0.4371
15354TIP3    H267554   4.603   1.955  12.628  1.1259  0.6094 -1.5393
15355TIP3   OH267555   3.808   1.084   5.828  0.4123 -0.1852  0.0993
15355TIP3    H167556   3.823   1.174   5.854 -1.5553  0.3453 -0.3903
15355TIP3    H267557   3.730   1.057   5.878 -0.3569 -0.8247 -1.3691
15356TIP3   OH267558   4.120   5.690  16.995 -0.6478  0.6004  0.0816
15356TIP3    H167559   4.211   5.697  16.964 -0.2317 -0.3524  1.0232
15356TIP3    H267560   4.080   5.773  16.969  0.1384  0.5475 -1.4392
15357TIP3   OH267561   4.700   2.937  16.237  0.4990 -0.9635  0.4817
15357TIP3    H167562   4.743   2.862  16.278 -0.4517 -1.8636 -0.1340
15357TIP3    H267563   4.616   2.944  16.283  1.5142  1.2766  2.2400
15358TIP3   OH267564   3.569   6.568  14.463  0.9687  0.1166 -0.1797
15358TIP3    H167565   3.477   6.592  14.474  1.1582  0.5860  0.4602
15358TIP3    H267566   3.596   6.538  14.550  0.8096 -2.2417 -0.8739
15359TIP3   OH267567   2.474   3.596   0.421 -0.0732  0.6153 -1.1030
15359TIP3    H167568   2.488   3.556   0.335 -4.6408  0.0800 -1.8564
15359TIP3    H267569   2.424   3.531   0.470 -0.8365  2.3582  0.5499
15360TIP3   OH267570   1.341   6.275  14.271 -0.4017 -0.0681 -0.0588
15360TIP3    H167571   1.388   6.237  14.345  0.6346  0.5309 -0.3885
15360TIP3    H267572   1.283   6.341  14.310 -0.7950 -0.6412  0.3300
15361TIP3   OH267573   4.913   5.304   0.224 -0.6730  0.5140 -0.0711
15361TIP3    H167574   4.844   5.322   0.161 -1.3035  0.7527  0.6738
15361TIP3    H267575   4.870   5.253   0.293 -0.0714  0.5238  0.3195
15362TIP3   OH267576   0.555   4.447  16.835 -0.4823 -0.0589  0.5626
15362TIP3    H167577   0.570   4.493  16.917 -2.0086 -0.3493  1.0402
15362TIP3    H267578   0.523   4.515  16.775 -1.3156 -0.2100  0.8264
15363TIP3   OH267579   6.494   2.758   2.616 -0.2262  0.6580  0.3372
15363TIP3    H167580   6.528   2.791   2.533 -3.3977 -1.8156 -2.2401
15363TIP3    H267581   6.572   2.732   2.666  1.8161  0.9740 -2.4557
15364TIP3   OH267582   5.445   2.981   5.468  0.4312  0.2083 -0.4840
15364TIP3    H167583   5.534   2.990   5.501  0.7086 -0.9883 -0.8461
15364TIP3    H267584   5.455   2.977   5.373  0.1392 -1.3008 -0.4684
15365TIP3   OH267585   5.535   1.245   5.049 -0.3119  0.0056 -0.7840
15365TIP3    H167586   5.469   1.220   4.983  0.1517 -1.2612 -0.7979
15365TIP3    H267587   5.576   1.162   5.074  1.2054  0.7585 -0.6881
15366TIP3   OH267588   0.384   1.726  14.957  0.2314  0.1328 -0.5524
15366TIP3    H167589   0.355   1.788  15.024 -1.4324  0.8820 -1.8933
15366TIP3    H267590   0.414   1.781  14.885 -2.5712 -0.4406 -2.3458
15367TIP3   OH267591   3.859   3.006   2.699 -0.1733  0.2329 -0.4388
15367TIP3    H167592   3.851   2.941   2.629 -0.5410  0.2815 -0.4475
15367TIP3    H267593   3.893   2.957   2.774  0.5930  0.2610 -0.7621
15368TIP3   OH267594   3.471   4.901  13.229  0.4768  0.1682 -0.3083
15368TIP3    H167595   3.387   4.925  13.268 -0.0592 -0.4163 -1.0657
15368TIP3    H267596   3.479   4.956  13.151  0.2493 -0.5720 -0.8655
15369TIP3   OH267597   0.867   0.995  15.359  0.5366  0.1714  0.2215
15369TIP3    H167598   0.897   1.085  15.373  1.9201 -0.3313  0.6977
15369TIP3    H267599   0.784   0.990  15.407  1.0198  0.8699  1.1764
15370TIP3   OH267600   3.847   3.012  10.636  0.0629  0.3746 -0.0423
15370TIP3    H167601   3.906   3.050  10.572  0.9888  0.7559  0.9983
15370TIP3    H267602   3.773   3.073  10.640  0.9514  1.4479  0.6947
15371TIP3   OH267603   6.150   4.676  15.385 -0.5196  0.1908  0.0307
15371TIP3    H167604   6.183   4.756  15.425 -0.7281  0.2714  0.0437
15371TIP3    H267605   6.062   4.666  15.419 -0.8770  0.5182 -0.7678
15372TIP3   OH267606   5.979   3.078   2.694  0.3783  0.6958  0.2949
15372TIP3    H167607   6.020   3.109   2.774 -2.0674 -0.6482  2.1918
15372TIP3    H267608   6.037   3.009   2.662  0.7952  0.4347  1.5796
15373TIP3   OH267609   0.317   4.043  16.915 -0.4785 -0.5490  0.2934
15373TIP3    H167610   0.320   4.137  16.937 -1.0163 -0.3374 -0.5096
15373TIP3    H267611   0.392   4.030  16.857 -0.2272 -0.6833  0.6466
15374TIP3   OH267612   1.752   2.240   0.623 -0.5021 -0.0205  0.2501
15374TIP3    H167613   1.712   2.304   0.564 -0.9489  0.9249  1.5353
15374TIP3    H267614   1.695   2.163   0.619  0.6864 -0.8581 -2.2256
15375TIP3   OH267615   2.120   5.491   4.232  0.0087 -0.5939 -0.1650
15375TIP3    H167616   2.093   5.573   4.272  1.6128  0.7417 -1.6641
15375TIP3    H267617   2.184   5.454   4.293  3.2464  1.9498 -1.6774
15376TIP3   OH267618   0.992   0.534   5.344  0.2896 -0.7597  0.3945
15376TIP3    H167619   0.992   0.624   5.309  1.8373 -0.2020  1.7182
15376TIP3    H267620   0.899   0.511   5.349 -0.0768 -0.1389 -2.1440
15377TIP3   OH267621   1.950   4.753  11.423 -0.4728 -0.0011  0.4799
15377TIP3    H167622   1.970   4.810  11.349  1.4207 -1.0687  0.1054
15377TIP3    H267623   1.960   4.664  11.389 -1.5232 -0.5640  1.5294
15378TIP3   OH267624   6.451   6.041  11.103  0.1317 -0.1267 -0.1676
15378TIP3    H167625   6.447   6.112  11.039  0.8410 -0.8762 -1.0859
15378TIP3    H267626   6.361   6.031  11.134  0.2527  2.1183  1.1021
15379TIP3   OH267627   4.350   4.460  15.474  0.2279  0.5323 -0.7685
15379TIP3    H167628   4.286   4.507  15.528  0.5658  2.3097 -1.8174
15379TIP3    H267629   4.432   4.509  15.486  1.4864 -1.7409  0.6067
15380TIP3   OH267630   3.978   4.495   5.608  0.1139  0.4974  0.0277
15380TIP3    H167631   3.911   4.501   5.676 -1.1653  1.3506 -1.2496
15380TIP3    H267632   4.050   4.550   5.639 -0.6140  1.1822  0.5071
15381TIP3   OH267633   3.553   3.666  14.507  0.1964  0.0008  0.0046
15381TIP3    H167634   3.529   3.742  14.561  0.1951 -0.2142  0.3094
15381TIP3    H267635   3.618   3.620  14.560 -0.1075 -0.4349  0.0022
15382TIP3   OH267636   6.368   2.966   5.505  0.1943  0.2855 -0.3336
15382TIP3    H167637   6.325   3.043   5.542 -0.7119 -0.9900  1.5066
15382TIP3    H267638   6.460   2.989   5.499 -0.2663  1.9908 -1.2502
15383TIP3   OH267639   5.660   4.853   2.587  0.1436 -0.5373 -0.0102
15383TIP3    H167640   5.659   4.937   2.541  0.5313 -1.4354 -1.7412
15383TIP3    H267641   5.733   4.805   2.548 -0.2640 -1.7956  0.7246
15384TIP3   OH267642   1.694   2.177  13.454 -0.1824 -0.0685  0.7647
15384TIP3    H167643   1.776   2.207  13.414 -0.6001  0.2331  0.1350
15384TIP3    H267644   1.711   2.085  13.475 -0.3706 -0.6219 -1.2733
15385TIP3   OH267645   1.153   3.670  11.887  0.4601 -0.1677 -0.3788
15385TIP3    H167646   1.224   3.719  11.847 -0.3794  1.6625  0.2442
15385TIP3    H267647   1.195   3.616  11.954  1.1930  1.5413  0.5876
15386TIP3   OH267648   3.216   4.477  12.704 -0.5720  0.5690 -0.6888
15386TIP3    H167649   3.295   4.474  12.758 -0.6144  0.7894 -0.6135
15386TIP3    H267650   3.182   4.565  12.716 -1.7923 -0.0384  0.6890
15387TIP3   OH267651   0.987   5.954  11.985 -0.1624 -0.7254  0.3025
15387TIP3    H167652   0.956   5.875  12.030 -0.5367 -1.6599 -1.4906
15387TIP3    H267653   1.066   5.925  11.938  0.4899  0.3356  0.7197
15388TIP3   OH267654   4.665   1.618  13.701  0.2287  0.6300  0.0976
15388TIP3    H167655   4.691   1.552  13.766  0.4914  0.5977 -0.0397
15388TIP3    H267656   4.662   1.700  13.751  0.4862  0.6145  0.1384
15389TIP3   OH267657   5.054   2.388  15.428 -1.0680  0.0118 -0.3605
15389TIP3    H167658   5.055   2.484  15.424 -3.1212  0.0532 -3.0620
15389TIP3    H267659   5.107   2.361  15.353  0.7099 -1.0679  1.2167
15390TIP3   OH267660   4.306   6.702  15.969  0.1131 -0.1800  0.1637
15390TIP3    H167661   4.219   6.684  16.006  0.2900 -0.6763  0.3529
15390TIP3    H267662   4.326   6.791  15.997 -0.7260  0.2822 -0.6657
15391TIP3   OH267663   1.306   3.975  15.837 -0.8583 -0.2767 -0.4056
15391TIP3    H167664   1.396   4.002  15.856 -1.0566 -0.5268  0.9572
15391TIP3    H267665   1.252   4.025  15.898 -1.3172 -2.9099  1.4911
15392TIP3   OH267666   6.163   0.218   5.476  0.4329  0.0374 -0.3658
15392TIP3    H167667   6.094   0.280   5.499  1.0298  0.2079  1.0715
15392TIP3    H267668   6.135   0.135   5.514  0.5138 -0.1477 -0.7023
15393TIP3   OH267669   6.696   6.408  11.705  0.5906 -0.1120  0.0422
15393TIP3    H167670   6.621   6.464  11.727  1.6809  1.0793  0.8784
15393TIP3    H267671   6.671   6.366  11.623 -1.4113 -0.5505  0.8124
15394TIP3   OH267672   5.014   2.420  13.649 -0.6922 -0.1488  0.2674
15394TIP3    H167673   4.922   2.445  13.639 -1.1133 -1.1991  1.3098
15394TIP3    H267674   5.016   2.365  13.726  0.8658 -0.0004  0.3701
15395TIP3   OH267675   5.641   1.231   4.175 -0.0616 -0.7551 -0.1033
15395TIP3    H167676   5.587   1.171   4.227 -0.1686 -1.3946 -0.9266
15395TIP3    H267677   5.583   1.262   4.105  0.1753 -0.1704 -0.0465
15396TIP3   OH267678   6.469   5.888   5.214 -0.4808  0.7479 -0.1670
15396TIP3    H167679   6.494   5.966   5.264  0.9313  0.1716  0.0698
15396TIP3    H267680   6.548   5.833   5.215 -0.6645  0.3840 -2.3963
15397TIP3   OH267681   5.284   1.101   0.497 -0.0173 -0.0966  0.3112
15397TIP3    H167682   5.346   1.065   0.561  1.5059  0.2633 -0.8928
15397TIP3    H267683   5.220   1.149   0.550 -0.3403 -1.9644  1.7318
15398TIP3   OH267684   0.681   1.355  15.828  0.2011 -0.5888  0.1930
15398TIP3    H167685   0.703   1.447  15.840  0.2095 -0.6864  0.9624
15398TIP3    H267686   0.593   1.356  15.790  1.1615 -0.2187 -2.2290
15399TIP3   OH267687   6.102   0.972   5.042  0.1442 -0.2913 -0.0188
15399TIP3    H167688   6.108   1.009   5.130 -1.7876 -0.9297  0.4360
15399TIP3    H267689   6.148   0.888   5.048  0.2181 -0.2262  0.3294
15400TIP3   OH267690   4.745   4.445  15.215  0.7495 -0.2758  0.6807
15400TIP3    H167691   4.752   4.505  15.289  1.9064  0.4053  0.0284
15400TIP3    H267692   4.831   4.447  15.173  0.1863 -0.8466 -0.5483
15401TIP3   OH267693   6.682   5.796  15.723 -0.3242  0.0031  0.0032
15401TIP3    H167694   6.606   5.837  15.764  0.2894  0.7605  0.4013
15401TIP3    H267695   6.753   5.860  15.734  0.4241 -0.7816 -0.1718
15402TIP3   OH267696   4.850   1.294   0.712  0.1548  0.7478  0.0416
15402TIP3    H167697   4.852   1.328   0.802  1.0768  0.2728  0.2115
15402TIP3    H267698   4.779   1.343   0.670 -0.0536  1.2345  0.9237
15403TIP3   OH267699   0.551   4.686   3.415 -0.0471  0.0659 -0.2415
15403TIP3    H167700   0.493   4.736   3.357  1.2817 -0.0157 -1.7072
15403TIP3    H267701   0.492   4.649   3.481 -1.3787  1.6480 -0.4596
15404TIP3   OH267702   3.466   2.855   3.360 -0.4809  0.8549 -0.0484
15404TIP3    H167703   3.539   2.852   3.421 -0.8960  2.4100  0.5797
15404TIP3    H267704   3.402   2.794   3.396 -0.0490  0.5012  0.1287
15405TIP3   OH267705   6.764   5.048  13.555 -0.1099  0.2546 -0.0517
15405TIP3    H167706   6.686   5.097  13.526 -0.4295 -0.0497  0.2769
15405TIP3    H267707   6.752   4.961  13.518 -0.9244 -0.3826  1.6084
15406TIP3   OH267708   0.023   5.556  11.310  0.0629  0.2650  0.3914
15406TIP3    H167709   0.113   5.526  11.320 -0.0548 -0.4153 -0.4510
15406TIP3    H267710  -0.011   5.506  11.236 -0.4353  1.8207 -0.4838
15407TIP3   OH267711   4.145   1.583  16.184 -0.0071 -0.7145 -0.0428
15407TIP3    H167712   4.118   1.498  16.150 -1.7684  0.3031 -1.3713
15407TIP3    H267713   4.234   1.596  16.149  1.0955 -2.7393  1.7423
15408TIP3   OH267714   3.673   0.204   2.405  0.4468  0.0997 -0.5072
15408TIP3    H167715   3.635   0.153   2.334 -1.3086  0.5766  0.0433
15408TIP3    H267716   3.660   0.295   2.378 -2.7397  0.3908  1.5468
15409TIP3   OH267717   5.666   4.824   4.452 -0.3884  0.3877 -0.2691
15409TIP3    H167718   5.720   4.885   4.402 -0.5299  0.4227 -0.3802
15409TIP3    H267719   5.602   4.792   4.388 -0.9730  0.9103  0.0432
15410TIP3   OH267720   6.825   3.199  15.609  0.4135  0.1625 -0.3465
15410TIP3    H167721   6.851   3.136  15.677  2.2501  1.8370  0.5965
15410TIP3    H267722   6.870   3.168  15.530  0.3190 -0.3817 -0.1948
15411TIP3   OH267723   2.195   1.874  16.091 -0.5538 -0.5638  0.1910
15411TIP3    H167724   2.150   1.952  16.058  0.0906 -0.0090  0.5954
15411TIP3    H267725   2.127   1.806  16.093 -0.7750 -0.4695 -1.6856
15412TIP3   OH267726   3.099   4.083   3.076  0.2220  1.0248  0.1838
15412TIP3    H167727   3.040   4.053   3.145  0.6025 -0.8100 -0.2585
15412TIP3    H267728   3.048   4.074   2.995  0.9760 -0.3372 -0.1733
15413TIP3   OH267729   3.490   2.423   6.456 -0.0781 -0.3194 -0.1416
15413TIP3    H167730   3.418   2.485   6.440  0.0731 -0.5421 -1.9195
15413TIP3    H267731   3.452   2.357   6.514 -0.7251  0.5613  0.4707
15414TIP3   OH267732   2.132   2.125  12.358  0.6739  0.0920  0.4833
15414TIP3    H167733   2.178   2.122  12.274  2.1872 -0.4260  1.3052
15414TIP3    H267734   2.080   2.045  12.359  1.5236 -0.4624  0.5226
15415TIP3   OH267735   5.218   1.458   2.970  0.1601 -0.1957  0.3540
15415TIP3    H167736   5.123   1.468   2.976 -0.0878 -1.3390 -1.0681
15415TIP3    H267737   5.237   1.466   2.877  1.6434  1.2808  0.7398
15416TIP3   OH267738   4.710   1.436   3.642 -0.0533 -0.2001 -0.3584
15416TIP3    H167739   4.745   1.369   3.701 -0.3131 -1.7286 -1.8754
15416TIP3    H267740   4.623   1.456   3.677  0.4871  0.2245  0.7737
15417TIP3   OH267741   6.368   1.122  13.974 -0.0879  0.0744 -0.2188
15417TIP3    H167742   6.434   1.178  14.013  0.4021 -0.9325  0.4359
15417TIP3    H267743   6.323   1.082  14.049 -0.6104 -0.1912 -0.6669
15418TIP3   OH267744   6.189   0.021  14.069 -0.5706 -0.9667  0.3220
15418TIP3    H167745   6.281   0.037  14.045 -0.7706 -0.8147 -0.3421
15418TIP3    H267746   6.173  -0.070  14.043 -0.4989 -1.1133  0.7850
15419TIP3   OH267747   2.543   3.769  11.296  0.5076  0.1238  0.1982
15419TIP3    H167748   2.607   3.779  11.225 -1.2195 -2.2366 -1.8964
15419TIP3    H267749   2.484   3.843  11.286  1.3737  0.8719  0.4704
15420TIP3   OH267750   4.484   1.295  14.090  0.1689  0.2061  0.2405
15420TIP3    H167751   4.526   1.326  14.170  0.6817 -0.5008  0.2519
15420TIP3    H267752   4.475   1.373  14.035 -0.1629  0.6872  0.9703
15421TIP3   OH267753   3.294   5.763  13.305  0.0854  0.3102 -0.1493
15421TIP3    H167754   3.212   5.726  13.273 -0.6774  1.1444  0.7793
15421TIP3    H267755   3.273   5.853  13.327  0.9704  0.2498  1.1021
15422TIP3   OH267756   5.801   4.608   3.940 -0.2971  0.1059 -0.0371
15422TIP3    H167757   5.854   4.656   3.876 -0.2040  0.2847  0.1716
15422TIP3    H267758   5.711   4.634   3.921 -0.3306 -0.3554 -0.5237
15423TIP3   OH267759   6.765   2.766   4.213  0.3851  0.4587  0.4383
15423TIP3    H167760   6.830   2.763   4.143  0.5928  1.7080  0.5551
15423TIP3    H267761   6.727   2.853   4.207 -3.5196 -1.1683 -1.5846
15424TIP3   OH267762   1.560   3.341  13.558  0.2343 -0.1826 -0.5961
15424TIP3    H167763   1.611   3.302  13.487  0.8320 -3.2635  1.3238
15424TIP3    H267764   1.486   3.281  13.570 -1.3487  1.7423 -0.3330
15425TIP3   OH267765   6.785   5.813  11.139  0.9836  0.3542 -0.2220
15425TIP3    H167766   6.870   5.842  11.106  1.5684  0.6602  1.4724
15425TIP3    H267767   6.804   5.733  11.187  0.7497  1.6170  2.1196
15426TIP3   OH267768   3.562   4.286  16.849 -0.6188 -0.7336  0.2724
15426TIP3    H167769   3.523   4.206  16.884 -2.6709  0.2732  0.3850
15426TIP3    H267770   3.591   4.335  16.926  0.3693 -1.1938  0.2153
15427TIP3   OH267771   2.466   1.682  14.620 -0.4585  0.6583 -0.3955
15427TIP3    H167772   2.512   1.649  14.698 -3.2554 -1.0616  0.6854
15427TIP3    H267773   2.508   1.766  14.601  1.7438  0.1239  1.6500
15428TIP3   OH267774   2.976   1.031  10.966 -1.0294 -0.0731  0.3204
15428TIP3    H167775   2.984   0.969  10.895 -0.1004 -0.5814  0.8576
15428TIP3    H267776   2.910   1.094  10.936 -2.7515 -1.8614  0.1661
15429TIP3   OH267777   5.049   6.621   4.922  0.3738 -0.7696 -0.4915
15429TIP3    H167778   4.994   6.700   4.926  0.6007 -0.5998 -0.6586
15429TIP3    H267779   5.004   6.564   4.860  0.7190 -0.3658 -1.1189
15430TIP3   OH267780   5.111   3.132  14.790  0.2840 -0.4326  0.2458
15430TIP3    H167781   5.074   3.070  14.853 -0.2468 -1.7758 -1.3235
15430TIP3    H267782   5.202   3.142  14.819 -0.7380  1.7774  3.2771
15431TIP3   OH267783   2.823   6.117   2.242 -0.5394  0.2772  0.1129
15431TIP3    H167784   2.806   6.132   2.149  0.1674 -0.2665 -0.1151
15431TIP3    H267785   2.911   6.153   2.256 -0.6631  0.4017  0.5860
15432TIP3   OH267786   3.525   2.188  11.961 -0.5709  0.5885 -0.6112
15432TIP3    H167787   3.554   2.101  11.933  2.2733  1.7174 -1.5078
15432TIP3    H267788   3.449   2.206  11.906 -0.9691 -1.1377 -0.6905
15433TIP3   OH267789   6.343   4.756   4.308  0.1809 -0.8433 -0.6492
15433TIP3    H167790   6.283   4.765   4.382 -0.4016  0.5925 -1.2578
15433TIP3    H267791   6.316   4.675   4.265  0.0238 -1.2829  0.2620
15434TIP3   OH267792   2.125   6.830  11.616  0.2524  0.6558  0.1684
15434TIP3    H167793   2.158   6.830  11.526 -1.0031  0.2571 -0.3237
15434TIP3    H267794   2.108   6.922  11.635  0.9909  0.7943  0.1925
15435TIP3   OH267795   1.313   2.296   0.690 -0.1359 -0.4962  0.1819
15435TIP3    H167796   1.390   2.352   0.700  0.2942 -0.6248 -1.9441
15435TIP3    H267797   1.266   2.304   0.773  1.7968  0.1351  1.2664
15436TIP3   OH267798   4.178   2.400   2.271  0.0187  0.3524 -0.3323
15436TIP3    H167799   4.184   2.481   2.221 -2.3997  0.0459 -1.2522
15436TIP3    H267800   4.084   2.386   2.283  0.3801 -2.0366  0.2635
15437TIP3   OH267801   6.783   5.301  13.708  0.4147 -0.3605  0.1150
15437TIP3    H167802   6.809   5.218  13.669  0.8199  0.5304 -1.6271
15437TIP3    H267803   6.866   5.346  13.725  0.2819 -0.8224  2.4004
15438TIP3   OH267804   4.357   0.693  16.589 -0.6419 -0.4821  0.1835
15438TIP3    H167805   4.344   0.599  16.576  0.3562 -0.9157  2.0694
15438TIP3    H267806   4.442   0.711  16.548 -1.2678 -0.1701 -1.0329
15439TIP3   OH267807   3.336   0.414  11.913 -0.1887  0.4699 -0.5022
15439TIP3    H167808   3.344   0.509  11.899 -0.6016  0.4435 -0.9183
15439TIP3    H267809   3.252   0.404  11.958  1.4111  0.6359  2.8244
15440TIP3   OH267810   6.050   2.057   5.788  0.5798  0.0286 -0.3005
15440TIP3    H167811   5.967   2.057   5.836 -0.2168  0.5046 -1.6053
15440TIP3    H267812   6.024   2.041   5.697  1.5595  3.2074 -1.2668
15441TIP3   OH267813   4.598   1.238  14.471 -0.1136 -0.0506 -0.5773
15441TIP3    H167814   4.566   1.327  14.482 -1.1061 -0.3216 -1.1555
15441TIP3    H267815   4.576   1.195  14.554 -0.3155  0.0475 -0.5784
15442TIP3   OH267816   3.494   3.494  12.372  0.0711 -0.3724  0.3033
15442TIP3    H167817   3.521   3.511  12.282 -0.7624  1.5111  0.3793
15442TIP3    H267818   3.436   3.418  12.365 -1.1297  0.6077 -0.9808
15443TIP3   OH267819   5.361   6.300  16.639 -0.4429  0.0280 -0.3662
15443TIP3    H167820   5.428   6.269  16.579 -0.5817  0.3842 -0.7087
15443TIP3    H267821   5.279   6.288  16.592 -0.5729  0.1053 -0.1625
15444TIP3   OH267822   4.440   4.761  12.664  0.5237 -1.0087 -0.2116
15444TIP3    H167823   4.382   4.830  12.632 -1.4451 -1.3402  2.3524
15444TIP3    H267824   4.527   4.802  12.664 -0.0555  0.3475 -1.7849
15445TIP3   OH267825   4.648   6.424   4.288 -0.1653 -0.6694 -0.3750
15445TIP3    H167826   4.637   6.468   4.204  0.2049  0.8088  0.3209
15445TIP3    H267827   4.662   6.495   4.350  1.1181 -1.8026  0.6909
15446TIP3   OH267828   4.814   4.987   3.745  0.0491 -0.3104  0.6409
15446TIP3    H167829   4.894   4.975   3.795  0.2014  1.3595  0.8623
15446TIP3    H267830   4.830   5.066   3.693 -0.1342 -1.8908 -2.0085
15447TIP3   OH267831   6.685   4.471  14.400 -0.2328 -0.2059 -0.0383
15447TIP3    H167832   6.628   4.394  14.393 -0.2879 -0.1304 -0.4726
15447TIP3    H267833   6.681   4.497  14.492  3.5780 -3.6271  1.4264
15448TIP3   OH267834   5.127   5.990  11.963 -0.7285  0.0915  0.3236
15448TIP3    H167835   5.050   6.046  11.954  0.1454  0.9232 -3.7770
15448TIP3    H267836   5.099   5.906  11.926  0.1989  0.3068 -0.9012
15449TIP3   OH267837   6.450   3.492   2.908  0.2711 -0.3076 -0.8417
15449TIP3    H167838   6.434   3.584   2.887 -1.1469 -0.1777  0.6080
15449TIP3    H267839   6.475   3.492   3.000 -0.9398 -1.4501 -0.4810
15450TIP3   OH267840   2.243   5.827   6.698 -0.4162 -0.5295 -0.2139
15450TIP3    H167841   2.192   5.893   6.652 -0.3444 -0.0779  0.3540
15450TIP3    H267842   2.178   5.763   6.729 -0.9049  0.9436  2.0531
15451TIP3   OH267843   1.792   1.410   5.065 -0.2981 -0.1406 -0.1126
15451TIP3    H167844   1.783   1.420   5.160  2.2391 -0.4646  0.2182
15451TIP3    H267845   1.708   1.374   5.037 -1.2911  0.4394  1.9111
15452TIP3   OH267846   2.987   4.992  13.387  0.2740 -0.1181 -0.2379
15452TIP3    H167847   2.946   5.078  13.396 -0.6001 -0.7361  2.5343
15452TIP3    H267848   2.914   4.932  13.374  0.4869 -0.8884  1.8695
15453TIP3   OH267849   6.838   6.241   6.135  0.7254 -0.3100  0.1442
15453TIP3    H167850   6.757   6.288   6.114  0.1306 -1.4875 -0.2966
15453TIP3    H267851   6.887   6.302   6.190  0.0182  0.8510 -0.4546
15454TIP3   OH267852   5.584   5.282  16.716  0.0039 -0.2362  0.0890
15454TIP3    H167853   5.525   5.210  16.694  0.4357 -0.1568 -1.4071
15454TIP3    H267854   5.634   5.298  16.636 -0.0906  1.7348  0.3791
15455TIP3   OH267855   3.553   4.655   3.645  0.0573  0.0035  0.7430
15455TIP3    H167856   3.495   4.729   3.628  0.5547  0.0468 -0.8951
15455TIP3    H267857   3.537   4.633   3.737  1.1981  3.3038  1.8796
15456TIP3   OH267858   0.650   4.086   3.446 -0.1225 -0.0648 -1.2218
15456TIP3    H167859   0.705   4.072   3.524  0.3709 -0.0025 -1.5512
15456TIP3    H267860   0.710   4.075   3.373 -0.1350  1.7650 -1.5576
15457TIP3   OH267861   6.799   4.600  12.990 -0.0298  0.3884 -0.0397
15457TIP3    H167862   6.830   4.561  13.071  0.9252 -0.0843 -0.6242
15457TIP3    H267863   6.808   4.531  12.925 -3.2041 -0.1284 -0.1095
15458TIP3   OH267864   4.090   1.951  15.542 -0.0212 -0.3408 -0.2711
15458TIP3    H167865   4.050   1.864  15.537 -0.5292 -0.1281  0.0223
15458TIP3    H267866   4.150   1.955  15.467  0.5723 -1.2204  0.1356
15459TIP3   OH267867   4.736   4.226  15.040 -0.5039  0.5268 -0.2661
15459TIP3    H167868   4.730   4.312  15.080  0.1285  1.0681 -1.2839
15459TIP3    H267869   4.651   4.214  14.997 -0.0041  1.4099 -1.5632
15460TIP3   OH267870   3.717   5.309   4.565 -0.0234  0.3265 -0.3328
15460TIP3    H167871   3.626   5.310   4.595  0.6741  2.9979  2.2289
15460TIP3    H267872   3.721   5.376   4.497  0.2126  1.1117  0.4327
15461TIP3   OH267873   5.243   4.732  14.920 -0.6309 -0.4158  0.0264
15461TIP3    H167874   5.312   4.763  14.861  0.3409 -1.8330  0.3848
15461TIP3    H267875   5.195   4.812  14.945  1.0977  0.6573  0.0514
15462TIP3   OH267876   1.647   2.538   2.283  0.1313  0.0639  0.0385
15462TIP3    H167877   1.651   2.591   2.363  2.0662 -1.5829  1.1247
15462TIP3    H267878   1.739   2.524   2.260 -0.3838 -0.8087 -1.5919
15463TIP3   OH267879   3.812   3.824   5.997  0.2614 -0.1008  0.0427
15463TIP3    H167880   3.744   3.758   5.983 -0.6124  0.5609  0.9625
15463TIP3    H267881   3.851   3.837   5.911  0.0193 -1.3369 -0.2788
15464TIP3   OH267882   6.676   6.777   1.761 -0.0670  0.4617 -0.1860
15464TIP3    H167883   6.695   6.684   1.760 -1.7149  0.0899 -0.6617
15464TIP3    H267884   6.713   6.809   1.843  0.7698 -0.5451 -0.1605
15465TIP3   OH267885   6.466   3.077   0.216 -0.3470 -0.0735 -0.2753
15465TIP3    H167886   6.495   2.994   0.177  0.7459 -0.3631  1.0940
15465TIP3    H267887   6.543   3.133   0.213 -0.7671  0.5124 -0.1720
15466TIP3   OH267888   6.473   1.254   0.647 -0.0059 -0.2547  0.6795
15466TIP3    H167889   6.471   1.166   0.611 -1.1651 -0.4988  1.3363
15466TIP3    H267890   6.559   1.260   0.690  0.7774 -0.4688 -0.7760
15467TIP3   OH267891   2.632   6.306  13.431 -0.1788  0.3445  0.3081
15467TIP3    H167892   2.588   6.391  13.433  0.2632  0.5955 -0.2727
15467TIP3    H267893   2.662   6.296  13.341  0.3181 -0.1423  0.5175
15468TIP3   OH267894   1.262   3.258  14.358 -1.1943 -0.1973 -0.6520
15468TIP3    H167895   1.341   3.210  14.384 -2.0404 -0.4347  1.6720
15468TIP3    H267896   1.295   3.339  14.318  0.2234 -0.3555  0.1368
15469TIP3   OH267897   3.809   4.045  15.331 -0.4353 -0.8737 -0.3201
15469TIP3    H167898   3.779   4.084  15.413 -0.6294  0.7095 -1.0957
15469TIP3    H267899   3.899   4.017  15.349 -0.7315 -1.2385  0.6354
15470TIP3   OH267900   3.805   2.089   4.691  0.1086  0.4081 -0.0007
15470TIP3    H167901   3.822   2.016   4.751  0.6211  0.7456  0.2678
15470TIP3    H267902   3.709   2.094   4.686  0.0538  0.5451  0.9894
15471TIP3   OH267903   5.276   0.514   2.097  0.3929 -0.3258 -0.5317
15471TIP3    H167904   5.183   0.502   2.119  0.3477  0.9867  0.0966
15471TIP3    H267905   5.275   0.565   2.016  0.5362  0.8127  0.1599
15472TIP3   OH267906   3.985   5.811   4.238 -0.2377 -0.2105  0.2432
15472TIP3    H167907   4.078   5.809   4.257  0.0118 -0.2934 -0.9097
15472TIP3    H267908   3.947   5.864   4.308  0.4261 -1.5177  1.6509
15473TIP3   OH267909   4.995   6.821   0.039  0.3325 -0.1569  0.3549
15473TIP3    H167910   5.057   6.874  -0.011  1.7465 -0.6570  1.5190
15473TIP3    H267911   4.922   6.880   0.059  0.6052  0.5504 -0.6923
15474TIP3   OH267912   3.853   3.701   4.557 -0.2010 -0.5976  0.2584
15474TIP3    H167913   3.916   3.637   4.590 -1.1191 -2.3185 -1.1483
15474TIP3    H267914   3.860   3.696   4.462 -0.8063  0.9125  0.0962
15475TIP3   OH267915   4.085   5.151  14.564 -0.4091  0.0261  0.0731
15475TIP3    H167916   4.069   5.236  14.524 -0.0171 -0.0192 -0.1857
15475TIP3    H267917   4.173   5.157  14.600  0.1489 -0.7136 -1.1347
15476TIP3   OH267918   3.047   5.717   3.710  0.0916  0.2574 -0.1395
15476TIP3    H167919   3.004   5.717   3.624  2.3313  2.5446 -1.3811
15476TIP3    H267920   3.130   5.672   3.695 -0.0242 -0.4291  1.1735
15477TIP3   OH267921   0.938   0.658   2.396  0.0320  0.3649 -0.6575
15477TIP3    H167922   0.944   0.690   2.306  1.1253  1.9342 -0.0690
15477TIP3    H267923   0.967   0.732   2.449 -2.5375  0.2241  1.1324
15478TIP3   OH267924   5.246   6.144  12.340 -0.0542 -0.3454  0.3355
15478TIP3    H167925   5.218   6.054  12.355 -1.6946  0.2378  1.1518
15478TIP3    H267926   5.300   6.141  12.262 -0.5764 -1.9481  0.0115
15479TIP3   OH267927   2.702   4.177   3.436 -0.1265 -0.1916  0.0445
15479TIP3    H167928   2.706   4.228   3.355  0.3282 -0.5574 -0.1719
15479TIP3    H267929   2.610   4.149   3.442 -0.2529  0.1798 -0.1298
15480TIP3   OH267930   5.457   6.054  12.560 -0.5409  0.0670  0.8372
15480TIP3    H167931   5.416   6.132  12.597 -0.0374  0.0080  1.5354
15480TIP3    H267932   5.416   5.981  12.606 -1.5068 -0.1296 -0.2968
15481TIP3   OH267933   4.875   3.644   5.358  0.1477  0.2603 -0.0172
15481TIP3    H167934   4.967   3.655   5.333 -0.4440  1.0431 -2.0508
15481TIP3    H267935   4.847   3.566   5.311 -0.2653  0.0902  0.5078
15482TIP3   OH267936   5.977   6.184   1.391  0.2124 -0.0111 -0.6770
15482TIP3    H167937   6.058   6.216   1.351  0.9077 -1.5900 -0.6149
15482TIP3    H267938   5.974   6.226   1.477  1.2457 -0.3214 -0.4760
15483TIP3   OH267939   4.956   3.825   1.123 -0.0187 -0.4116 -0.0613
15483TIP3    H167940   4.865   3.824   1.152  0.8322  2.7252  3.6367
15483TIP3    H267941   4.955   3.871   1.039 -1.7233  3.9409  2.0168
15484TIP3   OH267942   1.393   5.524   1.404 -0.4833  0.0510  0.3304
15484TIP3    H167943   1.390   5.472   1.485  1.6165 -2.7621 -1.1979
15484TIP3    H267944   1.485   5.521   1.377 -1.0392  1.2189 -1.9872
15485TIP3   OH267945   2.792   1.691   2.420  0.3233  0.0132 -0.1523
15485TIP3    H167946   2.749   1.775   2.436  1.7363  0.3742  2.2128
15485TIP3    H267947   2.757   1.633   2.487  0.6981 -0.7602 -0.6196
15486TIP3   OH267948   5.542   3.398   0.764 -0.0516  0.0804 -0.6123
15486TIP3    H167949   5.586   3.479   0.790  1.0069 -1.1552  1.7829
15486TIP3    H267950   5.459   3.400   0.811  0.6995 -0.9266  0.8376
15487TIP3   OH267951   5.740   2.649   2.519 -0.6414 -0.1055  0.8186
15487TIP3    H167952   5.734   2.682   2.429 -0.9890  0.3606  1.0106
15487TIP3    H267953   5.649   2.638   2.546 -0.6331  2.0585  1.9498
15488TIP3   OH267954   6.359   2.556  15.640 -0.0442 -0.3739  0.3517
15488TIP3    H167955   6.297   2.629  15.631  0.8959  0.4291  0.2357
15488TIP3    H267956   6.305   2.483  15.670 -1.4852 -0.3240 -1.8352
15489TIP3   OH267957   2.018   0.509  15.156  0.1299 -0.0354 -0.2965
15489TIP3    H167958   2.045   0.596  15.127 -0.7152  1.1889  2.2888
15489TIP3    H267959   1.932   0.522  15.196  0.2242 -1.9441  0.6813
15490TIP3   OH267960   2.414   0.408  14.102 -0.1498 -0.0621 -0.1713
15490TIP3    H167961   2.378   0.319  14.098 -2.4524  0.8550 -2.3803
15490TIP3    H267962   2.486   0.408  14.038 -1.3283  0.0738 -1.5525
15491TIP3   OH267963   2.908   1.274  15.748 -0.0659  0.1477 -0.0656
15491TIP3    H167964   2.870   1.205  15.693  0.4028 -1.0405  1.0371
15491TIP3    H267965   2.946   1.336  15.686 -0.2487 -0.7291 -1.0881
15492TIP3   OH267966   2.235   1.598  14.886  0.3607  0.3406 -0.1340
15492TIP3    H167967   2.201   1.682  14.917 -1.6864  0.3000 -2.0211
15492TIP3    H267968   2.330   1.609  14.886  0.1518  2.6892 -0.3510
15493TIP3   OH267969   4.106   4.080  12.394 -0.3628 -0.0916 -0.7266
15493TIP3    H167970   4.170   4.023  12.350 -0.0000 -0.9142  0.7770
15493TIP3    H267971   4.029   4.078  12.337 -0.2981 -1.9835 -0.8227
15494TIP3   OH267972   0.786   6.018   0.843  0.5993  1.1222  0.5811
15494TIP3    H167973   0.871   5.984   0.868  0.0984 -0.8182 -0.1750
15494TIP3    H267974   0.802   6.070   0.765  1.1714  1.3254  0.8324
15495TIP3   OH267975   4.743   6.198   4.178  0.8458 -0.4852  0.0976
15495TIP3    H167976   4.704   6.170   4.095 -0.7544 -2.7825  1.5214
15495TIP3    H267977   4.698   6.281   4.198  4.0313  2.3730 -3.0675
15496TIP3   OH267978   0.245   5.455   1.720 -0.5621  0.1358 -0.5146
15496TIP3    H167979   0.222   5.529   1.663 -0.0177 -0.2749 -1.2820
15496TIP3    H267980   0.340   5.462   1.730 -0.4154 -0.8440 -1.1505
15497TIP3   OH267981   3.452   1.320  13.236  0.0322 -0.4144  0.0248
15497TIP3    H167982   3.366   1.291  13.267 -0.3212  0.0540 -0.4982
15497TIP3    H267983   3.446   1.415  13.235  0.1744 -0.4035 -1.0594
15498TIP3   OH267984   3.817   2.977   3.803 -0.0709  0.0481 -0.4080
15498TIP3    H167985   3.891   2.918   3.815 -1.0482 -0.9020  1.2683
15498TIP3    H267986   3.850   3.046   3.744  1.9657 -0.5978 -0.0836
15499TIP3   OH267987   0.986   4.559   1.594  0.4961  0.4097  0.7149
15499TIP3    H167988   0.975   4.478   1.644 -0.6833  0.5277  0.6700
15499TIP3    H267989   1.041   4.614   1.649 -0.8009  0.5457  1.9196
15500TIP3   OH267990   4.064   2.406  16.845  0.3174 -0.1292  0.1855
15500TIP3    H167991   4.132   2.435  16.905 -0.7481 -1.1409  1.9950
15500TIP3    H267992   4.095   2.321  16.813  0.5317  0.0525 -0.0927
15501TIP3   OH267993   2.617   4.147   0.293  0.1263  0.3743 -0.3949
15501TIP3    H167994   2.584   4.153   0.204 -0.4667  2.0177 -0.0954
15501TIP3    H267995   2.694   4.204   0.295 -0.8633  1.7350  0.5438
15502TIP3   OH267996   4.105   5.957  12.435  0.1899 -0.1164 -0.0299
15502TIP3    H167997   4.080   5.954  12.343  0.0779 -0.7990  0.0167
15502TIP3    H267998   4.031   5.919  12.482  0.5676 -0.5008  0.2661
15503TIP3   OH267999   1.148   3.577  11.377 -0.3112  0.4368 -0.1906
15503TIP3    H168000   1.080   3.518  11.344  0.5509 -1.4226  1.2182
15503TIP3    H268001   1.102   3.633  11.440 -0.8500  0.3427 -0.4888
15504TIP3   OH268002   2.129   4.593  14.066 -0.1141 -0.0482 -0.0676
15504TIP3    H168003   2.207   4.565  14.115 -1.8640 -0.7570  2.5110
15504TIP3    H268004   2.105   4.517  14.013  0.8500  0.1527 -0.8250
15505TIP3   OH268005   6.195   2.653  15.254 -0.1496  0.2143  0.3584
15505TIP3    H168006   6.278   2.658  15.302 -0.9252  2.4004  1.6256
15505TIP3    H268007   6.173   2.560  15.253  2.8500 -0.5972 -1.0481
15506TIP3   OH268008   6.844   4.251   4.551  0.1438 -0.2201 -0.0436
15506TIP3    H168009   6.927   4.261   4.505  0.5216 -1.4145  0.3413
15506TIP3    H268010   6.780   4.295   4.495  0.8498 -0.2780 -0.9211
15507TIP3   OH268011   2.336   1.187   2.734  0.0037  0.1541 -0.0830
15507TIP3    H168012   2.295   1.106   2.765  0.3362 -0.1637 -0.4730
15507TIP3    H268013   2.303   1.254   2.794 -1.0229 -0.1073 -0.3310
15508TIP3   OH268014   3.315   0.912  15.631  0.0428  0.3573  0.8768
15508TIP3    H168015   3.308   0.967  15.709  2.1529  2.2885 -0.1727
15508TIP3    H268016   3.254   0.951  15.568  0.1088  0.2946  0.7723
15509TIP3   OH268017   1.713   5.390  12.231 -0.0189  0.4126  0.5221
15509TIP3    H168018   1.672   5.377  12.145 -0.3388 -0.5929  0.8100
15509TIP3    H268019   1.768   5.312  12.243  1.0236  1.1560  0.6900
15510TIP3   OH268020   2.427   2.930   2.442  0.5557 -0.1845  0.0659
15510TIP3    H168021   2.506   2.946   2.389  0.8604 -0.2943  0.4761
15510TIP3    H268022   2.369   3.003   2.423  0.3396 -0.6139 -1.0077
15511TIP3   OH268023   2.358   5.660  11.691 -0.6305  0.0127 -0.2452
15511TIP3    H168024   2.287   5.688  11.750 -0.4986 -0.1570 -0.0053
15511TIP3    H268025   2.406   5.741  11.672  0.2130 -0.1607  1.0647
15512TIP3   OH268026   4.728   2.172   0.328 -0.3759 -0.2251  0.0843
15512TIP3    H168027   4.659   2.112   0.354  0.0028 -0.1474  1.3572
15512TIP3    H268028   4.757   2.212   0.410  2.5211 -1.6748 -0.0980
15513TIP3   OH268029   2.278   1.922   3.874  0.6838  0.3055  0.1976
15513TIP3    H168030   2.339   1.851   3.853 -0.7408 -0.5799 -1.1833
15513TIP3    H268031   2.293   1.941   3.966  2.6588 -0.2285  0.0364
15514TIP3   OH268032   0.598   1.358   1.644  0.1059 -0.2984 -0.3667
15514TIP3    H168033   0.643   1.356   1.559  1.1245 -0.4836  0.1569
15514TIP3    H268034   0.535   1.430   1.637  1.8348  1.2716 -0.4696
15515TIP3   OH268035   1.652   3.500   0.088  0.1478  0.6896  0.5794
15515TIP3    H168036   1.732   3.528   0.044 -0.3420  2.0602  0.5264
15515TIP3    H268037   1.666   3.522   0.180  0.0696  0.3659  0.6712
15516TIP3   OH268038   1.080   5.246  11.008  0.3801  0.5565  0.8555
15516TIP3    H168039   1.059   5.229  10.916 -2.9005 -0.9906  1.7181
15516TIP3    H268040   1.050   5.336  11.023  0.1049  0.5142  0.5830
15517TIP3   OH268041   1.700   6.304   4.669  0.5924 -0.5461  0.0434
15517TIP3    H168042   1.764   6.238   4.642  0.6603 -0.7322  0.6504
15517TIP3    H268043   1.646   6.260   4.735 -1.5712 -1.1046 -1.9706
15518TIP3   OH268044   5.171   1.121  12.763 -0.0476 -0.3408  0.4351
15518TIP3    H168045   5.184   1.047  12.823  0.3173 -0.5752  0.0780
15518TIP3    H268046   5.138   1.192  12.818 -0.1520 -0.6924  0.8297
15519TIP3   OH268047   4.601   1.042  14.719 -0.2187  0.3540  0.4443
15519TIP3    H168048   4.573   1.014  14.806 -1.5579  0.4297  0.0622
15519TIP3    H268049   4.689   1.075  14.732  0.1621 -0.9804  1.5102
15520TIP3   OH268050   1.589   4.302   0.342  0.2669  0.1834  0.1549
15520TIP3    H168051   1.593   4.333   0.252  1.9654 -3.2047 -1.0867
15520TIP3    H268052   1.676   4.319   0.378  0.7266 -1.5113 -0.0529
15521TIP3   OH268053   6.421   1.533   3.576  0.2922 -0.1027 -0.2628
15521TIP3    H168054   6.387   1.509   3.490  0.0192 -1.3736  0.1731
15521TIP3    H268055   6.348   1.577   3.619 -0.3541 -1.5063  0.1316
15522TIP3   OH268056   0.047   2.993   3.927 -0.9142  0.0016 -0.0423
15522TIP3    H168057   0.051   2.902   3.957 -0.5279 -0.2440 -0.8025
15522TIP3    H268058  -0.014   2.990   3.853 -1.9921  0.6231  0.7988
15523TIP3   OH268059   2.589   2.470  11.368 -0.9754 -0.0307 -0.5526
15523TIP3    H168060   2.549   2.488  11.282 -0.4747 -0.6021 -0.9137
15523TIP3    H268061   2.682   2.457  11.349 -0.5076  1.7666  0.3470
15524TIP3   OH268062   5.717   1.255  12.551  0.1127 -0.2490 -0.3278
15524TIP3    H168063   5.768   1.266  12.471  0.1093 -1.1194 -0.4602
15524TIP3    H268064   5.668   1.174  12.537  0.1908 -0.4687  0.5995
15525TIP3   OH268065   5.340   6.799  15.927  0.0764 -0.5058 -0.5651
15525TIP3    H168066   5.428   6.809  15.963 -0.0715 -0.3116 -0.2492
15525TIP3    H268067   5.345   6.721  15.871  0.6845  0.0490 -1.2973
15526TIP3   OH268068   1.577   4.311  15.602  0.4597 -0.0903  0.0972
15526TIP3    H168069   1.629   4.389  15.584  1.1183 -0.3647  0.7653
15526TIP3    H268070   1.585   4.258  15.523  0.9341  0.0168  0.0686
15527TIP3   OH268071   2.813   3.736   4.581  0.0348 -0.7095 -0.2253
15527TIP3    H168072   2.726   3.703   4.556  0.3343 -0.5780 -1.5385
15527TIP3    H268073   2.794   3.814   4.633 -0.6454 -0.6752 -0.5029
15528TIP3   OH268074   6.121   6.628  11.543  0.0533  1.1951 -0.1154
15528TIP3    H168075   6.188   6.562  11.524  0.2818  1.2973  0.3295
15528TIP3    H268076   6.134   6.649  11.635 -0.1101  1.7680 -0.2225
15529TIP3   OH268077   4.913   0.672   4.890  0.5240 -0.2584 -0.2724
15529TIP3    H168078   4.843   0.703   4.832 -0.0268  2.2196  1.5225
15529TIP3    H268079   4.869   0.655   4.973  1.8939  0.6222  0.6712
15530TIP3   OH268080   3.769   2.875   4.856 -0.0991 -0.1901  0.0502
15530TIP3    H168081   3.691   2.894   4.803 -0.8713 -0.2736  1.1215
15530TIP3    H268082   3.760   2.782   4.879  0.9671 -0.5364 -0.8273
15531TIP3   OH268083   5.240   0.231  14.441  0.7073  0.4121  0.5640
15531TIP3    H168084   5.327   0.245  14.477  1.4525 -1.2542 -0.5060
15531TIP3    H268085   5.254   0.182  14.360 -1.1861  0.6028  0.0571
15532TIP3   OH268086   1.852   0.700  15.760 -0.2804 -0.4939  0.3711
15532TIP3    H168087   1.897   0.617  15.772 -0.2259 -0.4518  0.4643
15532TIP3    H268088   1.911   0.765  15.798 -0.3636 -0.4239  0.3818
15533TIP3   OH268089   6.549   4.815  13.603 -0.1650  0.5232  0.2773
15533TIP3    H168090   6.579   4.737  13.649  0.7434  1.2030  0.8801
15533TIP3    H268091   6.600   4.817  13.523 -0.5965  0.1977 -0.0074
15534TIP3   OH268092   5.745   1.101  10.762 -0.2232 -0.6840  0.1015
15534TIP3    H168093   5.690   1.028  10.735 -1.7056  1.4520 -3.2896
15534TIP3    H268094   5.823   1.093  10.708  0.3465 -0.6167  0.8986
15535TIP3   OH268095   5.303   2.176  12.532 -0.5014  0.1308 -0.4103
15535TIP3    H168096   5.243   2.224  12.475 -0.1550  1.1680  0.0860
15535TIP3    H268097   5.356   2.243  12.574 -0.7665 -0.6057  1.1744
15536TIP3   OH268098   3.464   0.043   2.513  0.1273 -0.3875 -0.1920
15536TIP3    H168099   3.414   0.122   2.491 -0.5789 -1.1321 -1.3120
15536TIP3    H268100   3.555   0.070   2.505 -0.1054  0.0834 -1.4728
15537TIP3   OH268101   6.028   6.076  11.891  0.6898 -0.1283  0.0891
15537TIP3    H168102   5.953   6.016  11.883 -0.0739  0.8166  0.0143
15537TIP3    H268103   5.999   6.142  11.954  0.3900  1.7584 -1.8958
15538TIP3   OH268104   6.483   1.188   3.521  0.0689 -0.6615  0.0716
15538TIP3    H168105   6.451   1.189   3.611 -0.9258  0.0723 -0.2708
15538TIP3    H268106   6.519   1.275   3.507  1.8347 -1.3164  0.2889
15539TIP3   OH268107   0.864   2.150   3.648  0.3514  0.2425 -0.1185
15539TIP3    H168108   0.830   2.092   3.580 -0.7794  0.5999  0.1113
15539TIP3    H268109   0.876   2.095   3.725 -1.3167  0.3817  0.2896
15540TIP3   OH268110   6.036   0.958  11.018  0.0580 -0.0094  0.2457
15540TIP3    H168111   6.082   0.992  10.941 -0.1129  1.5913  0.8049
15540TIP3    H268112   6.054   1.022  11.087 -2.4571  0.3433  0.6595
15541TIP3   OH268113   0.948   2.160  12.295  0.2614 -0.2740  0.5235
15541TIP3    H168114   0.975   2.147  12.386  0.3448  0.6594  0.6382
15541TIP3    H268115   0.966   2.076  12.252 -0.8839 -1.1325  1.6294
15542TIP3   OH268116   3.726   1.314   1.743  0.2154  0.4278  0.3214
15542TIP3    H168117   3.768   1.397   1.721  0.5441 -0.3464 -2.3435
15542TIP3    H268118   3.635   1.336   1.760 -0.0883  1.2126 -1.9825
15543TIP3   OH268119   0.032   4.585   5.568 -0.0584 -0.5760  0.1753
15543TIP3    H168120   0.115   4.554   5.533  0.6682 -0.1630  1.4707
15543TIP3    H268121   0.010   4.662   5.516 -0.5471 -1.6743 -1.3293
15544TIP3   OH268122   2.324   3.666   0.653 -0.5204  0.4665  0.1100
15544TIP3    H168123   2.272   3.678   0.732 -0.5506 -0.2043  0.1958
15544TIP3    H268124   2.300   3.740   0.597 -1.5787  0.1634  0.1409
15545TIP3   OH268125   1.714   3.527   6.245 -0.1698 -0.9365 -0.2120
15545TIP3    H168126   1.790   3.503   6.297  0.3904 -0.9046 -0.9973
15545TIP3    H268127   1.681   3.608   6.285 -0.9522 -1.9522  1.3009
15546TIP3   OH268128   3.111   6.568  15.906 -0.0726 -0.7740  0.1069
15546TIP3    H168129   3.071   6.653  15.884 -0.4996 -1.2774 -1.1825
15546TIP3    H268130   3.161   6.585  15.986 -0.5894  0.5610  0.1780
15547TIP3   OH268131   5.122   3.221   0.351 -1.0512 -0.6415  0.0917
15547TIP3    H168132   5.133   3.206   0.445  2.4898 -2.5711 -0.4986
15547TIP3    H268133   5.110   3.134   0.314  0.0776 -0.1643 -1.4740
15548TIP3   OH268134   5.220   2.014  14.604 -0.0416  0.4521 -0.4376
15548TIP3    H168135   5.221   1.921  14.628  1.3649  0.7678  0.8148
15548TIP3    H268136   5.127   2.035  14.595 -0.5795 -0.3314  2.3900
15549TIP3   OH268137   1.034   5.524  10.948 -0.2959  0.5146  0.1490
15549TIP3    H168138   1.054   5.614  10.921 -0.5237  0.7476  0.7417
15549TIP3    H268139   1.039   5.473  10.867  1.9425  0.6784  0.1260
15550TIP3   OH268140   6.834   2.549   2.274 -0.7152 -0.2166  0.8251
15550TIP3    H168141   6.870   2.582   2.357  1.3702 -0.7705  0.2005
15550TIP3    H268142   6.848   2.454   2.278 -1.3892 -0.3526  0.1894
15551TIP3   OH268143   3.328   2.701  14.362  0.1590 -0.5040  0.0910
15551TIP3    H168144   3.383   2.682  14.286  0.1005  2.1147 -0.6911
15551TIP3    H268145   3.270   2.624  14.369  3.1005 -2.8752  0.3118
15552TIP3   OH268146   3.309   4.063   4.529  0.0603 -0.5938 -0.3084
15552TIP3    H168147   3.289   4.012   4.608 -0.7825  0.4105  0.1417
15552TIP3    H268148   3.397   4.034   4.504  0.9117  0.0441  1.7873
15553TIP3   OH268149   0.627   5.908   2.732 -0.2051  0.7323  0.0106
15553TIP3    H168150   0.615   5.813   2.734  2.6732  0.2757 -0.2033
15553TIP3    H268151   0.559   5.942   2.790  0.6381 -1.7333  2.6762
15554TIP3   OH268152   5.925   5.589   1.875  0.3708 -0.3372  0.1355
15554TIP3    H168153   6.011   5.548   1.863  0.5440 -0.0216  0.2880
15554TIP3    H268154   5.882   5.580   1.790  1.4360  1.5493 -0.6527
15555TIP3   OH268155   4.826   4.602  12.915 -0.2106 -0.7798 -0.2634
15555TIP3    H168156   4.808   4.683  12.868  0.1545  0.6705  1.9617
15555TIP3    H268157   4.781   4.534  12.863 -3.0024  1.1970 -0.6802
15556TIP3   OH268158   4.142   1.807   1.662 -1.0638  0.4404 -0.2208
15556TIP3    H168159   4.120   1.894   1.695 -0.1265  0.3323  0.7751
15556TIP3    H268160   4.059   1.769   1.635 -1.6504  1.2051  0.4551
15557TIP3   OH268161   6.537   6.694  16.130  0.4864  0.5522  0.3552
15557TIP3    H168162   6.475   6.766  16.119 -1.1584 -0.7714  0.5130
15557TIP3    H268163   6.553   6.663  16.041  0.4845  0.5382  0.3602
15558TIP3   OH268164   4.333   3.193   2.944  0.1168  0.7388 -0.7445
15558TIP3    H168165   4.316   3.285   2.924 -0.3741  0.4852 -1.5504
15558TIP3    H268166   4.384   3.195   3.025  0.0028  1.7115 -0.6828
15559TIP3   OH268167   3.147   6.376  13.073 -0.3074  0.3871  0.2291
15559TIP3    H168168   3.082   6.365  13.143 -0.2294  0.5572  0.3276
15559TIP3    H268169   3.231   6.368  13.117 -0.2324 -1.8104 -0.1835
15560TIP3   OH268170   5.214   0.018   2.260  0.0677 -0.6819  0.4431
15560TIP3    H168171   5.302   0.055   2.252 -1.1535  2.1718 -1.7095
15560TIP3    H268172   5.220  -0.067   2.218  1.3534  0.4751 -1.9285
15561TIP3   OH268173   2.367   0.123  14.106  0.0656 -0.1445 -0.1111
15561TIP3    H168174   2.358   0.104  14.199  0.6140 -0.3048 -0.0835
15561TIP3    H268175   2.455   0.090  14.084 -0.3868 -0.8736 -0.8688
15562TIP3   OH268176   6.293   1.367   6.182  0.1636 -1.1004  0.3333
15562TIP3    H168177   6.330   1.313   6.252  0.7620 -0.7248  0.3176
15562TIP3    H268178   6.281   1.453   6.221 -2.6880 -1.6897  0.9573
15563TIP3   OH268179   3.707   2.993  11.837  0.4741  0.3185  0.0756
15563TIP3    H168180   3.745   2.912  11.804  1.0204  0.6074 -0.0131
15563TIP3    H268181   3.612   2.982  11.824  0.6254  0.1462 -0.9815
15564TIP3   OH268182   0.231   5.548  10.635 -0.4019 -0.2201  0.3600
15564TIP3    H168183   0.266   5.468  10.596  2.2381 -0.3522  2.6536
15564TIP3    H268184   0.206   5.521  10.724 -4.0423  0.5360 -0.2797
15565TIP3   OH268185   1.089   5.344   4.019  0.0094 -0.2388 -0.4375
15565TIP3    H168186   1.165   5.378   4.064 -0.0218 -1.0728  0.2708
15565TIP3    H268187   1.043   5.421   3.986  0.3976  0.3374  0.3614
15566TIP3   OH268188   6.257   3.700  10.890  0.7185 -0.2923 -0.1115
15566TIP3    H168189   6.326   3.636  10.906  0.7722 -0.3073 -0.3833
15566TIP3    H268190   6.293   3.757  10.821  0.0735 -0.9036 -0.9842
15567TIP3   OH268191   0.872   2.117  10.621 -0.0031 -0.0340 -0.6696
15567TIP3    H168192   0.821   2.172  10.680 -0.3543  1.1393 -2.0424
15567TIP3    H268193   0.932   2.069  10.680  0.0966  1.5557  0.5906
15568TIP3   OH268194   0.375   6.102  16.691 -0.5777 -0.0199 -0.3154
15568TIP3    H168195   0.319   6.168  16.733 -2.2489 -1.2203 -0.5526
15568TIP3    H268196   0.318   6.060  16.627  0.3877 -1.7617 -0.0953
15569TIP3   OH268197   3.072   6.253   2.418 -0.3087  0.2522  0.1321
15569TIP3    H168198   3.001   6.310   2.389 -0.7726  0.1859  1.0872
15569TIP3    H268199   3.034   6.205   2.492  0.6507  0.0289  0.4854
15570TIP3   OH268200   0.363   2.348   3.459  0.0376  0.4762 -0.4120
15570TIP3    H168201   0.314   2.387   3.531  0.1854  1.6140 -0.9082
15570TIP3    H268202   0.423   2.417   3.430  1.4648 -0.6515 -0.2603
15571TIP3   OH268203   6.263   0.214  11.488  0.2172  0.1030 -0.7700
15571TIP3    H168204   6.269   0.119  11.500 -2.4912  0.0678  1.0047
15571TIP3    H268205   6.305   0.251  11.565 -2.7058  0.1784  0.9016
15572TIP3   OH268206   2.010   5.347  12.078  0.3065 -0.1604  0.3088
15572TIP3    H168207   2.097   5.322  12.109  0.1330  0.1217  1.0445
15572TIP3    H268208   2.015   5.341  11.982  0.7740 -1.3121  0.3934
15573TIP3   OH268209   0.807   1.131  11.188  0.3143 -0.2960  0.8387
15573TIP3    H168210   0.901   1.145  11.193  0.1276  0.9641  1.1732
15573TIP3    H268211   0.796   1.069  11.116  1.4112 -0.6915  0.9954
15574TIP3   OH268212   6.333   3.252  16.475  0.1064 -0.1975  0.2894
15574TIP3    H168213   6.382   3.210  16.546 -0.1430  0.5255  0.9088
15574TIP3    H268214   6.272   3.310  16.520  1.0262  1.4767 -0.5377
15575TIP3   OH268215   1.101   1.380  15.764 -0.4681  0.3576 -0.3262
15575TIP3    H168216   1.053   1.298  15.776  1.0202 -0.5175 -0.0303
15575TIP3    H268217   1.160   1.384  15.840 -0.5938  1.7584 -0.2853
15576TIP3   OH268218   0.708   6.048  15.294 -0.6545  0.0256  0.7974
15576TIP3    H168219   0.618   6.028  15.321 -0.8189 -0.5889 -0.1490
15576TIP3    H268220   0.723   5.993  15.217  0.2420  0.7593  0.4245
15577TIP3   OH268221   6.177   5.883   0.609  0.0536  0.4681  0.0892
15577TIP3    H168222   6.224   5.964   0.630  0.8083  0.3812 -1.2131
15577TIP3    H268223   6.094   5.913   0.571 -1.1921  0.6266  2.6855
15578TIP3   OH268224   0.131   1.065   1.062  0.1729 -0.0702  0.1533
15578TIP3    H168225   0.084   1.148   1.053  1.1558  0.6765  1.4970
15578TIP3    H268226   0.165   1.047   0.975  1.0698  1.6644  0.0859
15579TIP3   OH268227   2.951   2.139  11.302 -0.3435 -0.7553 -0.0317
15579TIP3    H168228   3.010   2.203  11.343  0.2155 -1.7102  0.6901
15579TIP3    H268229   3.003   2.060  11.293 -0.9235 -1.0358 -1.2363
15580TIP3   OH268230   0.130   4.941  15.512  0.2555 -0.0952 -0.0328
15580TIP3    H168231   0.166   4.947  15.423 -1.0972  0.6820 -0.5575
15580TIP3    H268232   0.163   5.019  15.557 -0.8072  0.6738 -0.5458
15581TIP3   OH268233   6.052   3.821  12.616  0.5621 -0.0227 -0.2079
15581TIP3    H168234   6.041   3.896  12.675 -0.5642 -1.0529  0.9482
15581TIP3    H268235   6.019   3.852  12.531 -0.8218  0.5109  0.4964
15582TIP3   OH268236   1.360   6.208  12.756  0.6590  0.3327 -0.5208
15582TIP3    H168237   1.349   6.130  12.811 -0.5248  0.2784 -0.7970
15582TIP3    H268238   1.346   6.175  12.667  2.2171  0.4840 -0.8517
15583TIP3   OH268239   2.321   1.642  13.587  0.4237 -0.3932  0.2198
15583TIP3    H168240   2.234   1.612  13.613  1.1001 -0.8545  2.1130
15583TIP3    H268241   2.359   1.677  13.667  1.4402  1.2118 -0.9066
15584TIP3   OH268242   0.991   5.348   2.420  0.5466 -0.6221 -0.4290
15584TIP3    H168243   1.049   5.272   2.417  0.5685 -0.6129 -3.4349
15584TIP3    H268244   0.911   5.318   2.379 -0.3793  0.3290  0.6219
15585TIP3   OH268245   4.939   0.784   0.280  1.1893 -0.1930  0.1189
15585TIP3    H168246   5.025   0.806   0.316  0.8671 -0.5063  1.0981
15585TIP3    H268247   4.956   0.706   0.226  1.6588  0.2357 -0.3699
15586TIP3   OH268248   6.262   2.448   2.959  0.3548  0.1995  0.3678
15586TIP3    H168249   6.297   2.483   2.877 -1.3223 -1.4272 -1.1444
15586TIP3    H268250   6.238   2.526   3.010  1.3487  1.2515 -0.7026
15587TIP3   OH268251   0.592   6.082  15.764  0.2190  0.6596 -0.4477
15587TIP3    H168252   0.553   6.101  15.850 -2.6262 -3.4483 -0.5708
15587TIP3    H268253   0.670   6.031  15.784  0.0158  0.4011 -0.3166
15588TIP3   OH268254   5.688   3.947   2.257 -0.2737 -0.0285 -0.7191
15588TIP3    H168255   5.756   3.890   2.221  0.5624  0.9817 -0.7841
15588TIP3    H268256   5.718   4.036   2.237 -1.7812  0.4271 -1.0198
15589TIP3   OH268257   0.754   4.401   4.396  0.0734 -0.0863  0.3892
15589TIP3    H168258   0.775   4.382   4.305  0.3780  2.7404 -0.2290
15589TIP3    H268259   0.826   4.363   4.446  0.8898 -0.0536 -0.7285
15590TIP3   OH268260   3.317   2.026   0.565 -0.2501 -0.1052 -0.0055
15590TIP3    H168261   3.252   2.091   0.593  0.2180 -0.2681  1.5673
15590TIP3    H268262   3.391   2.040   0.624 -0.2984 -2.3232  0.6649
15591TIP3   OH268263   1.705   1.294   1.106 -0.2648 -0.5455  0.1038
15591TIP3    H168264   1.649   1.264   1.178  1.5508  1.4412  2.4982
15591TIP3    H268265   1.651   1.356   1.058 -1.1059 -0.9911  0.4414
15592TIP3   OH268266   3.599   2.512   1.086 -0.0903 -0.3405  0.1856
15592TIP3    H168267   3.613   2.491   0.994 -1.3242 -1.8729  0.3075
15592TIP3    H268268   3.668   2.575   1.107  0.3907 -0.1894 -1.6932
15593TIP3   OH268269   1.907   3.879  15.348 -0.2665  0.0155  0.0145
15593TIP3    H168270   1.834   3.833  15.305 -1.7358 -0.3593  2.6731
15593TIP3    H268271   1.966   3.901  15.277 -1.1825 -2.8985 -1.8570
15594TIP3   OH268272   6.358   3.347   3.567  0.3989  0.6450 -0.2561
15594TIP3    H168273   6.292   3.346   3.636 -1.4069 -3.3152 -1.7022
15594TIP3    H268274   6.355   3.436   3.531 -3.3890  1.0236  0.5452
15595TIP3   OH268275   1.158   5.881  12.331  0.3691 -0.2468  0.0250
15595TIP3    H168276   1.211   5.877  12.411  0.3721  0.6008  0.0722
15595TIP3    H268277   1.158   5.974  12.307  0.1958 -0.4689 -0.8467
15596TIP3   OH268278   5.119   4.492  10.840 -0.0052  0.1664 -0.2272
15596TIP3    H168279   5.184   4.431  10.806 -0.1157 -0.5128  0.7584
15596TIP3    H268280   5.167   4.545  10.903  0.5171  2.2727 -2.2400
15597TIP3   OH268281   0.752   0.837   3.112 -0.1268 -0.2603 -0.3520
15597TIP3    H168282   0.746   0.743   3.128  0.8743 -0.3395 -0.4286
15597TIP3    H268283   0.661   0.864   3.097 -0.5345 -1.0444  0.5793
15598TIP3   OH268284   0.167   5.545   2.293 -0.2039  0.2661  0.0822
15598TIP3    H168285   0.199   5.468   2.339  1.1705  0.4023 -0.5958
15598TIP3    H268286   0.241   5.606   2.294 -1.2845  1.6180  0.6602
15599TIP3   OH268287   0.100   1.842  11.940 -0.2028 -0.3176  0.0164
15599TIP3    H168288   0.028   1.871  11.995 -0.9615  1.4135 -1.7476
15599TIP3    H268289   0.170   1.904  11.958  0.1297 -0.7497  0.2270
15600TIP3   OH268290   0.663   0.411  10.603 -0.3660  0.1216  0.2036
15600TIP3    H168291   0.758   0.402  10.608 -0.3138 -0.1610 -1.1560
15600TIP3    H268292   0.638   0.366  10.522 -1.6113  0.5578  0.3251
15601TIP3   OH268293   4.600   2.167  13.943  0.0437  0.4778 -0.0055
15601TIP3    H168294   4.637   2.204  13.863 -0.1357  0.0448 -0.2914
15601TIP3    H268295   4.506   2.166  13.928  0.1301 -1.8251 -0.7828
15602TIP3   OH268296   1.849   3.652  11.598  0.9590  0.0013 -0.0222
15602TIP3    H168297   1.769   3.705  11.591  2.5238  2.5270  0.0401
15602TIP3    H268298   1.874   3.633  11.508  1.0224  0.3970 -0.0891
15603TIP3   OH268299   4.865   1.576  10.828 -0.3705 -0.3999  0.1101
15603TIP3    H168300   4.913   1.586  10.910  0.4955  0.0395 -0.4310
15603TIP3    H268301   4.873   1.484  10.806  0.7007 -0.2398 -0.2388
15604TIP3   OH268302   0.428   6.223   4.112  0.2490  0.4902 -0.0076
15604TIP3    H168303   0.368   6.264   4.175 -0.3663  0.1031 -0.3321
15604TIP3    H268304   0.508   6.209   4.162 -0.9148 -1.8266  1.4103
15605TIP3   OH268305   1.963   3.679   0.598 -0.0777 -0.5457  0.0735
15605TIP3    H168306   1.872   3.673   0.627 -0.2039 -2.6992 -0.5819
15605TIP3    H268307   2.009   3.719   0.672 -1.5562  0.7351  0.3475
15606TIP3   OH268308   6.606   1.328   4.473 -0.2053  0.5468  0.1739
15606TIP3    H168309   6.566   1.376   4.401  0.7435 -0.5428 -1.1268
15606TIP3    H268310   6.630   1.395   4.537 -2.0517  1.4273  0.0029
15607TIP3   OH268311   2.349   6.307  16.503 -0.1340 -0.0302  0.4467
15607TIP3    H168312   2.424   6.364  16.522 -0.1566 -0.0077  0.4677
15607TIP3    H268313   2.369   6.225  16.549 -0.9371  0.5557  1.8882
15608TIP3   OH268314   3.300   1.562  14.043 -0.0113 -0.1610  0.2652
15608TIP3    H168315   3.364   1.511  14.093  0.1869 -0.3228 -0.1537
15608TIP3    H268316   3.328   1.555  13.952  0.3191  1.1152  0.2457
15609TIP3   OH268317   5.463   1.661  14.748 -0.0969  0.0184 -0.3239
15609TIP3    H168318   5.483   1.567  14.748  0.4015  0.1044 -1.7085
15609TIP3    H268319   5.491   1.692  14.834 -2.6338 -1.5597  1.2256
15610TIP3   OH268320   3.315   0.227  16.550  0.1650  0.0150 -0.5645
15610TIP3    H168321   3.324   0.268  16.464 -0.9558 -1.2119 -1.2946
15610TIP3    H268322   3.306   0.300  16.610 -0.9932  0.8733 -1.7337
15611TIP3   OH268323   1.616   5.417   2.912 -0.7215 -0.4010 -0.6813
15611TIP3    H168324   1.558   5.410   2.987 -2.9572  1.2045 -2.1384
15611TIP3    H268325   1.558   5.419   2.836  1.2700  0.6036 -2.2865
15612TIP3   OH268326   3.699   0.569  14.603  0.0051 -0.0273  0.3679
15612TIP3    H168327   3.730   0.489  14.646 -0.8930  0.5906  2.3270
15612TIP3    H268328   3.777   0.625  14.596  0.1787 -0.1394  1.2753
15613TIP3   OH268329   1.602   3.330  13.175  0.1749 -0.6316  0.2139
15613TIP3    H168330   1.605   3.234  13.175 -0.2650 -0.6476  0.3198
15613TIP3    H268331   1.629   3.355  13.086  0.8917 -0.8250  0.3662
15614TIP3   OH268332   2.908   4.071   4.796 -0.2183  0.2369  0.1618
15614TIP3    H168333   2.887   4.083   4.703  0.7981 -0.8579 -0.2326
15614TIP3    H268334   2.861   3.991   4.821 -3.1862  2.2369  1.5213
15615TIP3   OH268335   1.514   1.457   1.387  0.1110  0.3531 -0.1448
15615TIP3    H168336   1.501   1.423   1.476 -0.6058  2.7811  0.7399
15615TIP3    H268337   1.553   1.383   1.340 -1.8883 -1.8914  1.4480
15616TIP3   OH268338   2.311   1.160   4.899 -0.1478  0.0682 -0.2201
15616TIP3    H168339   2.354   1.121   4.823  2.4067  0.4577  0.9112
15616TIP3    H268340   2.239   1.211   4.862  0.0200 -1.0274 -2.2117
15617TIP3   OH268341   5.736   6.183   3.137 -0.2950  0.4133  0.4689
15617TIP3    H168342   5.661   6.232   3.101 -0.0032  1.1082  0.8092
15617TIP3    H268343   5.784   6.153   3.059 -1.3658 -0.7580  0.2163
15618TIP3   OH268344   0.049   2.998  15.811 -0.2106  0.5537  0.0118
15618TIP3    H168345   0.046   3.055  15.888  2.4760  0.1203  0.5490
15618TIP3    H268346  -0.011   2.927  15.831 -0.9992  1.4257  0.8367
15619TIP3   OH268347   3.607   5.911   1.262  0.1662 -0.2089  0.0740
15619TIP3    H168348   3.555   5.933   1.340  0.1214  0.4498 -0.1345
15619TIP3    H268349   3.553   5.848   1.214 -0.5170  0.5708 -0.2088
15620TIP3   OH268350   1.849   4.365   0.331  0.0613 -0.3543 -0.3299
15620TIP3    H168351   1.888   4.412   0.257  0.8913 -0.6706 -0.1075
15620TIP3    H268352   1.893   4.401   0.408  0.4197 -1.1832 -0.1258
15621TIP3   OH268353   3.869   3.114  15.528  0.3994 -0.1499  0.3134
15621TIP3    H168354   3.878   3.042  15.590  0.1414 -1.0670 -0.6745
15621TIP3    H268355   3.862   3.071  15.443  1.6190  1.1023 -0.4621
15622TIP3   OH268356   2.537   3.443  13.516 -0.0368  0.0752 -0.3185
15622TIP3    H168357   2.473   3.476  13.580  0.3611  0.9729 -0.3582
15622TIP3    H268358   2.485   3.395  13.452 -1.1412  3.1757 -1.9614
15623TIP3   OH268359   2.297   2.446  10.415  0.0304 -0.5890 -0.0417
15623TIP3    H168360   2.353   2.388  10.466 -1.7300 -1.2336  1.2218
15623TIP3    H268361   2.214   2.446  10.461 -1.4272 -0.6246 -2.5024
15624TIP3   OH268362   6.742   6.586  14.936  0.5219  0.1807 -0.1638
15624TIP3    H168363   6.683   6.526  14.891  0.9845  0.1119 -0.6846
15624TIP3    H268364   6.718   6.579  15.029 -0.0627 -0.0882 -0.3371
15625TIP3   OH268365   6.206   3.888   3.494 -0.4659 -0.7277  0.2975
15625TIP3    H168366   6.125   3.839   3.481 -0.7916 -0.5662  1.6206
15625TIP3    H268367   6.186   3.976   3.462 -1.1265 -0.4424  1.4397
15626TIP3   OH268368   5.996   6.533   5.284  0.0843  0.4418 -0.4812
15626TIP3    H168369   5.956   6.620   5.276 -0.2934  0.1347 -2.1804
15626TIP3    H268370   6.002   6.519   5.379  0.1119  2.2845 -0.1646
15627TIP3   OH268371   2.743   0.543  17.092 -0.2370 -0.3987  0.3823
15627TIP3    H168372   2.788   0.498  17.021  2.2028 -0.7538  2.0337
15627TIP3    H268373   2.707   0.474  17.146 -0.6585 -0.1993  0.3571
15628TIP3   OH268374   5.397   5.623   2.441 -0.1309  0.3408 -0.2400
15628TIP3    H168375   5.467   5.559   2.433 -0.7724 -0.2250 -1.6136
15628TIP3    H268376   5.319   5.579   2.405 -0.8468  1.4722 -0.1386
15629TIP3   OH268377   3.501   5.286   6.186 -0.4352 -0.0983  0.5961
15629TIP3    H168378   3.561   5.212   6.194  2.0513  1.7817  0.4922
15629TIP3    H268379   3.419   5.247   6.156  0.6616 -2.8223  0.8476
15630TIP3   OH268380   6.165   5.001   4.135 -0.6209 -0.4137 -0.4034
15630TIP3    H168381   6.215   4.993   4.216 -0.1954  0.1729 -0.6024
15630TIP3    H268382   6.187   5.088   4.101 -0.8592 -0.6150 -1.1029
15631TIP3   OH268383   1.641   5.786   3.083 -0.1641 -0.0706  0.2252
15631TIP3    H168384   1.585   5.865   3.079  0.5949  0.4708  0.0900
15631TIP3    H268385   1.691   5.788   3.002 -2.8705 -2.8033 -1.7124
15632TIP3   OH268386   5.215   2.072   4.828  0.3809  0.2192 -0.2596
15632TIP3    H168387   5.120   2.062   4.821  0.3471 -0.9477  1.2173
15632TIP3    H268388   5.229   2.110   4.915  1.2724 -0.4956 -0.0687
15633TIP3   OH268389   5.388   4.348  14.329  0.0769 -0.4095 -0.1428
15633TIP3    H168390   5.338   4.428  14.342  0.4472 -0.2346  0.2231
15633TIP3    H268391   5.480   4.376  14.333  0.2071 -0.7194 -0.8311
15634TIP3   OH268392   4.413   5.640  15.439 -0.1984  0.3822 -0.5603
15634TIP3    H168393   4.490   5.669  15.488  0.9901  1.2344 -2.7673
15634TIP3    H268394   4.340   5.654  15.499  1.1219  1.6670  0.8469
15635TIP3   OH268395   5.652   6.639  14.844 -0.0739 -0.0284 -0.2628
15635TIP3    H168396   5.571   6.596  14.871  0.8064 -1.7277 -0.2055
15635TIP3    H268397   5.721   6.578  14.869  1.3529  1.9451  0.8863
15636TIP3   OH268398   3.470   5.466   3.469 -1.1542  0.0916  0.0764
15636TIP3    H168399   3.553   5.418   3.470 -1.8589 -1.1808  0.3491
15636TIP3    H268400   3.426   5.435   3.390 -2.0438 -0.4770  0.7797
15637TIP3   OH268401   6.660   4.676   5.379  0.0602 -0.0048  0.3365
15637TIP3    H168402   6.671   4.752   5.321  0.9429  0.2614  0.8239
15637TIP3    H268403   6.598   4.619   5.333  0.4718  0.3578 -0.7083
15638TIP3   OH268404   3.653   3.553   4.903  0.4275 -0.2764  0.1010
15638TIP3    H168405   3.576   3.610   4.902  0.6955  0.1071  0.6814
15638TIP3    H268406   3.619   3.466   4.879  0.0475  0.1493 -0.9853
15639TIP3   OH268407   3.576   3.007   0.515 -0.5247 -0.4275 -0.1956
15639TIP3    H168408   3.666   2.993   0.543 -0.1128 -0.1878 -1.3382
15639TIP3    H268409   3.583   3.051   0.430 -1.6902 -1.3422 -0.8139
15640TIP3   OH268410   1.571   4.060   3.808  0.0639  0.1663 -0.1167
15640TIP3    H168411   1.491   4.113   3.813 -0.5905 -0.6549 -1.3525
15640TIP3    H268412   1.589   4.053   3.715  0.1204 -1.7621 -0.0080
15641TIP3   OH268413   3.974   3.139  14.519  0.2181  0.2461  1.4192
15641TIP3    H168414   4.014   3.167  14.437 -1.5945  1.9217  1.0517
15641TIP3    H268415   3.946   3.049  14.501 -0.0742  0.5505  0.2185
15642TIP3   OH268416   3.385   6.543   1.640  0.2761 -0.3287 -0.3785
15642TIP3    H168417   3.332   6.515   1.714 -0.0954  1.8132  0.2293
15642TIP3    H268418   3.434   6.464   1.614 -1.0030 -1.5996  0.8978
15643TIP3   OH268419   2.197   6.777   0.176 -0.6683 -0.0667  0.4534
15643TIP3    H168420   2.129   6.710   0.168  1.7113 -3.0787  2.9398
15643TIP3    H268421   2.174   6.825   0.256 -1.2202  0.6874 -0.1463
15644TIP3   OH268422   5.148   5.219  17.117 -0.3602  0.1114  0.7086
15644TIP3    H168423   5.192   5.257  17.192  1.0918  0.2905 -0.2014
15644TIP3    H268424   5.205   5.148  17.088 -0.9462 -0.0313 -0.1511
15645TIP3   OH268425   6.232   6.594  12.064 -0.0140  0.8919 -0.6115
15645TIP3    H168426   6.205   6.579  11.974 -1.3288 -1.6181  0.1117
15645TIP3    H268427   6.153   6.582  12.116  1.1149  0.0392  1.0343
15646TIP3   OH268428   2.606   1.255   3.868  0.2382  0.1668  0.1093
15646TIP3    H168429   2.520   1.242   3.908  1.1517  0.6051  2.3755
15646TIP3    H268430   2.587   1.271   3.775 -1.9337 -2.1681  0.0177
15647TIP3   OH268431   4.808   6.757   0.330 -0.2117 -0.6620 -0.4005
15647TIP3    H168432   4.751   6.715   0.394 -1.7767 -0.8729 -1.8555
15647TIP3    H268433   4.805   6.699   0.254  2.1436 -0.7756 -0.4794
15648TIP3   OH268434   6.382   6.113  12.491 -0.0359 -0.1326 -0.0947
15648TIP3    H168435   6.339   6.034  12.458 -2.0895 -0.1733  2.4153
15648TIP3    H268436   6.438   6.141  12.418 -2.4754 -1.4660 -2.6991
15649TIP3   OH268437   2.036   4.356   1.239 -0.1440 -0.5024 -0.4575
15649TIP3    H168438   2.115   4.410   1.237  0.1627 -0.9089  0.3623
15649TIP3    H268439   2.067   4.268   1.256 -0.7828 -0.6552 -0.0335
15650TIP3   OH268440   0.286   1.198   3.913 -0.2618 -0.8644 -0.1281
15650TIP3    H168441   0.210   1.255   3.916 -0.6256 -1.3840  0.6492
15650TIP3    H268442   0.265   1.133   3.845 -0.4594 -0.9374  0.0035
15651TIP3   OH268443   3.024   2.654  15.231  0.0254 -0.0341  0.0987
15651TIP3    H168444   3.070   2.580  15.193  1.0313  0.9209 -0.6081
15651TIP3    H268445   3.044   2.728  15.173 -0.6523  0.8780  0.9731
15652TIP3   OH268446   3.985   0.041  14.944 -0.3190 -0.3517  0.0227
15652TIP3    H168447   4.072   0.065  14.911 -1.2508  1.2965 -1.3850
15652TIP3    H268448   4.000  -0.040  14.992  1.5776 -1.6304 -2.4822
15653TIP3   OH268449   3.070   2.766   1.925  0.4013 -0.0852 -0.2593
15653TIP3    H168450   3.145   2.719   1.887  0.7860 -0.5813  1.0470
15653TIP3    H268451   3.106   2.851   1.951  0.5090 -0.3003  0.3127
15654TIP3   OH268452   2.924   6.853   6.373  0.1334  0.1610  0.6724
15654TIP3    H168453   2.836   6.886   6.389 -0.1189 -0.4336  0.5257
15654TIP3    H268454   2.925   6.766   6.414  0.0789 -0.6002 -0.8888
15655TIP3   OH268455   6.470   2.240   3.547  0.0509  0.3576  0.0682
15655TIP3    H168456   6.459   2.290   3.466  0.9944 -0.1856 -0.4134
15655TIP3    H268457   6.561   2.211   3.545 -0.2794 -0.7622  0.6963
15656TIP3   OH268458   4.265   2.184   2.104  0.1035 -0.6701 -0.1386
15656TIP3    H168459   4.274   2.244   2.030 -0.3595  1.8459  1.7290
15656TIP3    H268460   4.224   2.236   2.173  1.9627 -2.3867  2.4676
15657TIP3   OH268461   3.428   0.007   1.743 -0.6206  0.0198 -0.0959
15657TIP3    H168462   3.460   0.035   1.657  0.4979 -0.2294  0.2183
15657TIP3    H268463   3.421  -0.089   1.736  2.0405 -0.3362  0.8469
15658TIP3   OH268464   4.695   6.762  15.046  0.2539  0.2964  0.2942
15658TIP3    H168465   4.742   6.814  15.112  1.7628 -0.6183 -0.0082
15658TIP3    H268466   4.690   6.674  15.083 -2.7946  0.6762  1.0541
15659TIP3   OH268467   4.480   4.189  13.733  0.2561  0.2572 -0.5986
15659TIP3    H168468   4.423   4.150  13.667 -1.7054  1.2547  0.4217
15659TIP3    H268469   4.519   4.114  13.778 -2.5429 -0.6184  0.5730
15660TIP3   OH268470   6.793   0.299  15.843  0.1977 -0.7457 -0.1267
15660TIP3    H168471   6.857   0.315  15.774 -0.0469 -1.8669 -0.6421
15660TIP3    H268472   6.796   0.378  15.898 -0.1687  0.5102 -1.8425
15661TIP3   OH268473   6.663   6.578  10.987  0.2708 -0.3173  0.0848
15661TIP3    H168474   6.577   6.563  10.947  0.3320 -2.2005  0.5830
15661TIP3    H268475   6.644   6.615  11.072  0.0540  1.2248 -0.6019
15662TIP3   OH268476   6.367   1.372   5.895  0.9449 -0.6374  0.2382
15662TIP3    H168477   6.414   1.442   5.939  0.9432 -0.3232 -0.2482
15662TIP3    H268478   6.302   1.342   5.959 -0.1011  0.8520 -0.0670
15663TIP3   OH268479   1.100   3.097  14.195 -0.7190  0.1732 -0.4225
15663TIP3    H168480   1.029   3.152  14.162 -1.5293  0.7553  2.0814
15663TIP3    H268481   1.142   3.151  14.262  1.3489 -0.6311 -1.0110
15664TIP3   OH268482   2.181   1.599  14.590  0.2071  0.1772 -0.2005
15664TIP3    H168483   2.163   1.592  14.684  1.1536  2.7693  0.2629
15664TIP3    H268484   2.267   1.641  14.585  0.2806 -0.1182 -2.2473
15665TIP3   OH268485   4.871   5.954   6.317  0.2074 -0.1579 -0.3111
15665TIP3    H168486   4.944   5.900   6.287  1.4624  0.8503  0.8325
15665TIP3    H268487   4.793   5.911   6.280  1.3644 -1.1693 -1.6825
15666TIP3   OH268488   2.759   4.912  15.748 -0.3196  0.6465  0.1518
15666TIP3    H168489   2.683   4.954  15.788 -0.1487  1.0960  0.0059
15666TIP3    H268490   2.725   4.867  15.671 -0.8681 -1.2112  1.4016
15667TIP3   OH268491   4.053   0.725   0.813  0.6977 -0.0872  0.7547
15667TIP3    H168492   3.963   0.694   0.801  1.5444 -2.6366  0.4902
15667TIP3    H268493   4.047   0.786   0.888 -1.2139 -0.2173  0.7648
15668TIP3   OH268494   0.739   0.831   5.135 -0.0045 -0.4631 -0.1019
15668TIP3    H168495   0.781   0.868   5.213  0.5841 -0.1016 -0.5865
15668TIP3    H268496   0.645   0.844   5.151  0.1841  2.1445 -0.6685
15669TIP3   OH268497   4.667   1.712  10.696 -1.0289 -0.0697  0.5551
15669TIP3    H168498   4.586   1.661  10.697 -0.6599 -0.6676  0.3905
15669TIP3    H268499   4.726   1.664  10.755 -0.9633  0.6518  1.0994
15670TIP3   OH268500   1.126   3.246  14.585  0.0198 -0.2680  0.3365
15670TIP3    H168501   1.165   3.165  14.617 -0.4519 -0.8932 -0.6074
15670TIP3    H268502   1.184   3.274  14.514  0.1646  0.2197  0.6373
15671TIP3   OH268503   6.203   2.760  11.158 -0.2065  0.6099  0.2380
15671TIP3    H168504   6.142   2.832  11.141 -0.7430 -0.2464 -1.8281
15671TIP3    H268505   6.268   2.768  11.088  1.1886  0.5557  1.4792
15672TIP3   OH268506   5.747   4.831   0.287  0.0126 -0.3434 -0.5150
15672TIP3    H168507   5.726   4.902   0.227  0.8601 -0.7959 -1.3706
15672TIP3    H268508   5.806   4.870   0.352  0.1516 -0.1716 -0.7461
15673TIP3   OH268509   1.303   5.512  12.375  0.4098 -0.0836 -0.4397
15673TIP3    H168510   1.287   5.445  12.308  1.7672 -1.7260  0.8143
15673TIP3    H268511   1.391   5.544  12.357 -0.5644  2.1659 -1.6194
15674TIP3   OH268512   5.578   1.783   4.510 -0.0073  0.0116  0.0047
15674TIP3    H168513   5.660   1.821   4.479  1.3140 -0.9417  2.1078
15674TIP3    H268514   5.567   1.817   4.598 -1.6227 -0.2786 -0.0616
15675TIP3   OH268515   2.083   1.246   4.778 -0.3786 -0.1805  0.2713
15675TIP3    H168516   2.060   1.278   4.691 -3.2465 -0.0618  0.9648
15675TIP3    H268517   2.000   1.218   4.816  1.0271 -1.9670  2.3138
15676TIP3   OH268518   4.993   5.827  14.291 -0.4828  0.1810  0.5564
15676TIP3    H168519   4.922   5.807  14.352 -1.2803 -0.0374 -0.4149
15676TIP3    H268520   5.038   5.743  14.279 -0.1880  0.2745  1.0194
15677TIP3   OH268521   3.961   5.481   5.261  0.6125  0.5437 -0.3090
15677TIP3    H168522   4.029   5.534   5.303  0.2726  1.5216 -0.9818
15677TIP3    H268523   3.924   5.537   5.194 -1.6191  0.4194  0.7371
15678TIP3   OH268524   5.137   3.088   3.816 -0.1577  0.3259 -0.3183
15678TIP3    H168525   5.198   3.118   3.884 -0.9901 -1.0338  1.0888
15678TIP3    H268526   5.050   3.095   3.857 -0.6069 -1.3569 -0.8990
15679TIP3   OH268527   3.263   2.770   2.858 -0.2729 -0.5407  0.0689
15679TIP3    H168528   3.313   2.786   2.938 -1.0810 -1.0196  0.6853
15679TIP3    H268529   3.253   2.675   2.854 -0.2965 -0.5158 -0.5637
15680TIP3   OH268530   0.721   4.817   0.075  0.3193  0.6457 -0.0074
15680TIP3    H168531   0.765   4.839  -0.008 -0.3589  1.6550 -0.1282
15680TIP3    H268532   0.737   4.724   0.087  2.5713  0.9783  0.0125
15681TIP3   OH268533   1.022   2.980   1.548  0.2650 -0.2321 -0.2009
15681TIP3    H168534   1.101   3.030   1.570 -0.4184  1.0692 -0.6206
15681TIP3    H268535   0.962   3.045   1.511 -1.1227 -1.1438  0.3811
15682TIP3   OH268536   4.997   5.502  11.771  0.2790 -0.6341 -0.0363
15682TIP3    H168537   5.047   5.568  11.818  0.2360 -0.3885 -0.3288
15682TIP3    H268538   5.050   5.483  11.693 -1.0137  1.1689 -1.4676
15683TIP3   OH268539   1.933   1.156   3.602 -0.2302  0.0973 -0.4592
15683TIP3    H168540   1.985   1.200   3.535 -0.7501  0.8013 -0.4157
15683TIP3    H268541   1.896   1.080   3.557 -2.0357  1.5252 -1.5229
15684TIP3   OH268542   1.750   1.512  11.569  0.4964 -0.1764 -0.1622
15684TIP3    H168543   1.681   1.453  11.597  0.6680  0.0232  0.7513
15684TIP3    H268544   1.725   1.541  11.482 -0.9320  0.4324  0.4289
15685TIP3   OH268545   0.862   0.051  11.132  0.0188 -0.0104 -0.3314
15685TIP3    H168546   0.892  -0.028  11.088 -0.2508 -0.0738 -0.4065
15685TIP3    H268547   0.866   0.119  11.065  0.4842  0.0936 -0.1990
15686TIP3   OH268548   5.669   0.093  11.442  0.0391  0.4496  0.2466
15686TIP3    H168549   5.747   0.047  11.473 -0.5800 -0.4104  0.5577
15686TIP3    H268550   5.673   0.178  11.488  0.7764  0.4139  0.2673
15687TIP3   OH268551   1.158   1.067   0.014  0.7733 -0.1284  0.0755
15687TIP3    H168552   1.154   0.972   0.024  0.7679 -0.1090  0.2586
15687TIP3    H268553   1.173   1.081  -0.079  0.7221 -0.3077  0.0413
15688TIP3   OH268554   0.586   0.926  11.742  0.2361 -0.8148  0.8808
15688TIP3    H168555   0.547   0.843  11.715 -0.1681 -0.3818  0.0962
15688TIP3    H268556   0.619   0.965  11.661  2.4706 -1.2232  1.5061
15689TIP3   OH268557   4.580   1.707  17.029  0.5336  0.1903  0.0636
15689TIP3    H168558   4.551   1.790  17.067  2.8185 -0.2541  3.2288
15689TIP3    H268559   4.667   1.726  16.993  0.4876 -0.5481 -0.4649
15690TIP3   OH268560   6.595   2.777  11.759  0.4371  0.2499  0.1830
15690TIP3    H168561   6.543   2.771  11.679  1.3664 -2.4847 -0.3106
15690TIP3    H268562   6.537   2.745  11.827  1.1217 -2.0739 -0.2475
15691TIP3   OH268563   5.765   2.583   3.960 -0.1065 -0.2755  0.0250
15691TIP3    H168564   5.722   2.574   4.045  1.8894  0.6478  1.2011
15691TIP3    H268565   5.842   2.636   3.978  0.7745 -0.6921 -2.2483
15692TIP3   OH268566   0.602   1.126  11.376  0.5221  0.0467 -0.0456
15692TIP3    H168567   0.673   1.137  11.313 -1.0434  0.0008 -1.9036
15692TIP3    H268568   0.542   1.198  11.358 -0.5851 -0.7070  0.5013
15693TIP3   OH268569   5.070   4.691  10.628 -0.5253 -0.6222 -0.3105
15693TIP3    H168570   5.153   4.711  10.583 -0.2710  0.9317  0.7948
15693TIP3    H268571   5.092   4.617  10.685  0.1650 -0.0984  0.1208
15694TIP3   OH268572   6.839   2.942  12.825  0.2891  0.1439  0.2088
15694TIP3    H168573   6.844   3.036  12.812  1.4435  0.1392  0.5135
15694TIP3    H268574   6.930   2.913  12.830 -0.0121 -1.1579 -1.0520
15695TIP3   OH268575   2.311   5.667  12.970 -0.3104  0.2560  0.4721
15695TIP3    H168576   2.351   5.617  13.042 -0.9110 -1.4179 -0.2950
15695TIP3    H268577   2.377   5.664  12.900 -0.5223  0.1737  0.2772
15696TIP3   OH268578   1.796   4.023   4.473 -0.1695 -0.3561 -0.2839
15696TIP3    H168579   1.774   4.016   4.565 -2.6707  0.7378 -0.7204
15696TIP3    H268580   1.819   4.115   4.460 -1.0660 -0.2080 -0.9536
15697TIP3   OH268581   3.345   0.972  12.772 -0.0553 -0.0740 -0.6245
15697TIP3    H168582   3.288   1.018  12.834  0.5935  1.6294 -1.2266
15697TIP3    H268583   3.434   0.999  12.797  0.3680 -1.2088 -0.8600
15698TIP3   OH268584   0.269   2.176   1.932 -0.3578  0.4270  0.1545
15698TIP3    H168585   0.261   2.260   1.978  2.6097  0.5134  0.7123
15698TIP3    H268586   0.305   2.199   1.847 -1.5048 -0.1459 -0.5012
15699TIP3   OH268587   4.529   6.554   1.754 -0.0475  0.4931 -1.1632
15699TIP3    H168588   4.472   6.594   1.687 -0.5998  1.0479 -0.3797
15699TIP3    H268589   4.508   6.461   1.750 -2.7769  0.9292  0.6827
15700TIP3   OH268590   1.906   5.517  12.901  0.3398 -0.7097  0.2426
15700TIP3    H168591   1.928   5.538  12.991  0.9469 -1.6639  0.3324
15700TIP3    H268592   1.822   5.472  12.906 -0.6739  1.0617  0.1052
15701TIP3   OH268593   5.843   5.315   2.342  0.0597  0.3469 -0.4118
15701TIP3    H168594   5.764   5.370   2.345  0.0537  0.3040  0.4042
15701TIP3    H268595   5.900   5.358   2.279 -1.1751 -0.3857 -2.1361
15702TIP3   OH268596   2.854   0.555  15.914 -0.4255  0.4561  0.3112
15702TIP3    H168597   2.885   0.477  15.960  0.7146  1.2520  0.9487
15702TIP3    H268598   2.875   0.628  15.973  2.6656  1.7324 -2.1181
15703TIP3   OH268599   0.879   5.399  11.425  0.6462 -0.1340  0.1150
15703TIP3    H168600   0.874   5.437  11.513  0.9418 -1.0831  0.5539
15703TIP3    H268601   0.945   5.452  11.380 -0.1450  0.9279  0.1576
15704TIP3   OH268602   6.320   3.237  11.606 -0.4387 -0.1249  0.3419
15704TIP3    H168603   6.369   3.225  11.687 -1.6060  0.4055  1.1417
15704TIP3    H268604   6.331   3.154  11.559  1.2646 -0.0007  0.4554
15705TIP3   OH268605   6.634   3.785  10.762  0.7358  0.6545 -0.4997
15705TIP3    H168606   6.548   3.815  10.734  1.3898  2.2824 -0.8442
15705TIP3    H268607   6.657   3.715  10.701  1.0372  2.4198 -2.4926
15706TIP3   OH268608   3.369   4.699  12.359 -0.1229 -0.3909  0.2813
15706TIP3    H168609   3.347   4.790  12.340 -1.2837 -0.3106  1.7757
15706TIP3    H268610   3.462   4.691  12.339  0.4939  1.6972  2.0281
15707TIP3   OH268611   6.092   3.785   2.834  0.5444 -0.1603  0.7341
15707TIP3    H168612   6.101   3.851   2.765 -1.7510 -0.0308  0.5003
15707TIP3    H268613   6.146   3.818   2.905  0.7468  1.1217  0.0160
15708TIP3   OH268614   2.410   4.669   3.206 -0.4180  0.2068  0.2364
15708TIP3    H168615   2.325   4.712   3.203 -0.1888  0.6730  0.3837
15708TIP3    H268616   2.471   4.738   3.233 -0.2278 -0.4776  1.6762
15709TIP3   OH268617   5.979   1.341  15.126  0.4025  0.1529  0.3934
15709TIP3    H168618   5.920   1.368  15.197  0.2428  0.3646  0.1804
15709TIP3    H268619   6.037   1.416  15.113 -0.2775  0.5478 -0.4458
15710TIP3   OH268620   2.376   2.494  16.436 -0.0926  0.7273  0.1683
15710TIP3    H168621   2.379   2.531  16.347  0.3186  0.5882  0.1240
15710TIP3    H268622   2.449   2.536  16.481  0.1835  0.1999  0.2103
15711TIP3   OH268623   6.025   4.899   1.522  0.2051 -0.3393 -0.1350
15711TIP3    H168624   5.949   4.895   1.464 -0.4152 -2.0649  0.7317
15711TIP3    H268625   6.027   4.989   1.553  0.9080  0.8203 -3.2291
15712TIP3   OH268626   4.020   4.545  11.663 -0.4027 -0.8225 -0.0290
15712TIP3    H168627   3.988   4.529  11.752 -2.0061 -1.5774 -0.6931
15712TIP3    H268628   4.089   4.481  11.650 -0.7482 -1.2878  0.3849
15713TIP3   OH268629   0.459   4.175  10.873  0.1033  0.2488 -0.4292
15713TIP3    H168630   0.402   4.246  10.843 -0.0675  0.6057  0.6979
15713TIP3    H268631   0.448   4.106  10.807  0.7766  1.4934 -1.9028
15714TIP3   OH268632   5.396   6.275  13.772 -0.2465 -0.5842 -0.0556
15714TIP3    H168633   5.415   6.182  13.755 -0.2723 -0.5148 -0.4969
15714TIP3    H268634   5.334   6.299  13.703 -0.3393 -0.2733  0.1368
15715TIP3   OH268635   3.153   0.007   3.205 -0.5412 -0.0550  0.5635
15715TIP3    H168636   3.067   0.018   3.165 -0.0037  0.2622 -0.5536
15715TIP3    H268637   3.183   0.096   3.223 -0.7280 -0.1916  1.5847
15716TIP3   OH268638   1.983   5.962  10.732  0.1432 -0.0841 -0.2084
15716TIP3    H168639   1.971   5.870  10.754 -2.1346  0.6450  2.1619
15716TIP3    H268640   2.044   5.995  10.798  0.1419  0.3216 -0.4077
15717TIP3   OH268641   1.812   5.044  16.686  0.5485 -0.2633  0.6169
15717TIP3    H168642   1.740   4.986  16.712 -0.4221  1.6306  2.4293
15717TIP3    H268643   1.772   5.130  16.678  1.9249  0.2248 -2.1719
15718TIP3   OH268644   1.325   2.510   3.586  0.3582 -0.2514 -0.4684
15718TIP3    H168645   1.324   2.479   3.495  1.9747 -0.6361 -0.3977
15718TIP3    H268646   1.317   2.430   3.638  1.3928 -0.2552 -0.2898
15719TIP3   OH268647   5.277   3.022   4.355  0.2481  0.4449 -0.6694
15719TIP3    H168648   5.241   3.104   4.321 -0.0432 -0.3000 -2.2530
15719TIP3    H268649   5.213   2.956   4.330  1.0345 -0.4237 -0.4394
15720TIP3   OH268650   4.957   4.517  13.432  0.0853  0.3375 -0.5732
15720TIP3    H168651   5.046   4.542  13.455  1.1125 -1.1896 -2.5766
15720TIP3    H268652   4.940   4.560  13.348 -0.7259 -0.0877 -0.6479
15721TIP3   OH268653   5.443   4.012   1.637  0.1213 -0.4374  0.1362
15721TIP3    H168654   5.408   3.988   1.551  1.7226  1.1483 -1.0349
15721TIP3    H268655   5.463   3.929   1.680 -2.2957 -1.3102 -0.2849
15722TIP3   OH268656   3.267   3.996  13.794 -0.2382  0.1580  0.5068
15722TIP3    H168657   3.241   3.926  13.853  0.6934 -1.3402 -0.7935
15722TIP3    H268658   3.351   4.027  13.828  0.3494 -0.7747 -0.0634
15723TIP3   OH268659   2.267   1.494  10.488  0.8675  0.1960  1.0350
15723TIP3    H168660   2.320   1.534  10.557  0.6195  1.9675  0.2501
15723TIP3    H268661   2.331   1.463  10.424  1.0226  0.4261  1.0781
15724TIP3   OH268662   1.239   5.107  15.815 -0.0201 -0.5657  0.1292
15724TIP3    H168663   1.211   5.149  15.896 -0.8528  0.1835 -0.5217
15724TIP3    H268664   1.334   5.112  15.816 -0.0565  0.1527  0.6919
15725TIP3   OH268665   5.132   2.621   5.821  0.4604  0.4563  0.0036
15725TIP3    H168666   5.114   2.566   5.897  0.3421 -1.7184 -1.4913
15725TIP3    H268667   5.215   2.665   5.841  0.6826 -0.4612  1.1793
15726TIP3   OH268668   1.753   2.687   5.117  0.5643  0.0564  0.5220
15726TIP3    H168669   1.755   2.597   5.084 -0.7291 -0.4276  1.6742
15726TIP3    H268670   1.688   2.732   5.064 -0.1610 -0.2155  1.1668
15727TIP3   OH268671   3.833   3.773  15.901  0.4933 -0.1883  0.2530
15727TIP3    H168672   3.802   3.731  15.821 -1.0588  2.9345 -0.9547
15727TIP3    H268673   3.916   3.814  15.876  0.3749  0.1715  0.4403
15728TIP3   OH268674   3.731   1.274   5.373 -0.0603  0.1550  0.0933
15728TIP3    H168675   3.764   1.216   5.442  0.6502  2.1325  1.5090
15728TIP3    H268676   3.636   1.259   5.374  0.1381 -1.2592  0.1234
15729TIP3   OH268677   4.323   2.176  13.248 -0.2598  0.2413 -0.2560
15729TIP3    H168678   4.301   2.269  13.257  1.6223  0.7574 -0.7146
15729TIP3    H268679   4.371   2.170  13.166  0.1820 -1.0269  0.0758
15730TIP3   OH268680   0.025   0.048   4.264  0.6366  0.3235 -0.2931
15730TIP3    H168681   0.107   0.097   4.261 -0.0612  1.4899 -0.8264
15730TIP3    H268682  -0.044   0.115   4.257 -0.3481 -0.6843 -0.5690
15731TIP3   OH268683   3.779   4.717  14.853  0.4235 -0.3154  0.1417
15731TIP3    H168684   3.762   4.811  14.859  1.5302 -0.1424  0.9135
15731TIP3    H268685   3.815   4.704  14.766 -1.8855 -0.4265 -0.8717
15732TIP3   OH268686   2.017   4.449  11.007 -0.3169 -0.2251  0.6172
15732TIP3    H168687   2.016   4.385  11.078 -0.3330  0.1844  0.9970
15732TIP3    H268688   2.106   4.486  11.010 -1.0035  1.4850  2.0000
15733TIP3   OH268689   2.341   2.524   6.185  0.6362  0.0000  0.0591
15733TIP3    H168690   2.272   2.560   6.241 -1.0379  0.6850 -2.3349
15733TIP3    H268691   2.382   2.600   6.145  1.4694 -0.4955 -0.0583
15734TIP3   OH268692   6.404   3.271   4.818 -0.5347 -0.3932  0.3180
15734TIP3    H168693   6.348   3.196   4.795 -1.9578  0.6554  0.1743
15734TIP3    H268694   6.343   3.333   4.859  1.0132 -0.1851  2.4529
15735TIP3   OH268695   6.244   6.308   4.203  0.2065  0.1770  0.0299
15735TIP3    H168696   6.183   6.275   4.269  2.1062  1.5531  2.6803
15735TIP3    H268697   6.233   6.403   4.204  2.9472  0.6027  1.3975
15736TIP3   OH268698   0.641   1.562  14.011  0.4437  0.1074 -0.0044
15736TIP3    H168699   0.638   1.642  14.064  0.8146 -0.4348  0.8543
15736TIP3    H268700   0.653   1.491  14.074 -2.2987 -0.9194 -0.4554
15737TIP3   OH268701   5.957   4.665   4.858 -0.1850  0.1016  0.1892
15737TIP3    H168702   6.050   4.681   4.844  0.0227  0.5078  1.8152
15737TIP3    H268703   5.937   4.710   4.940 -1.8426  0.0993 -0.1755
15738TIP3   OH268704   3.760   4.113   0.583  0.0693  0.0617 -0.7447
15738TIP3    H168705   3.763   4.026   0.623  2.0511  0.2268 -0.4189
15738TIP3    H268706   3.751   4.173   0.657  0.7297  0.2072 -0.7696
15739TIP3   OH268707   3.421   4.180   5.204 -0.2957 -0.1005 -0.4773
15739TIP3    H168708   3.360   4.172   5.130  0.2227 -0.0334 -0.9195
15739TIP3    H268709   3.508   4.171   5.165  0.0091  0.4056  0.0556
15740TIP3   OH268710   3.828   5.859   1.091 -0.9605  0.1758  0.2207
15740TIP3    H168711   3.906   5.847   1.145 -1.6011  1.8158  1.6513
15740TIP3    H268712   3.764   5.897   1.151 -2.5626 -0.2570 -1.1362
15741TIP3   OH268713   3.373   0.939   1.294 -0.5445 -0.2282  0.2008
15741TIP3    H168714   3.284   0.903   1.298 -0.2154 -1.3874 -1.6891
15741TIP3    H268715   3.427   0.870   1.333 -0.1231 -1.0679 -1.7621
15742TIP3   OH268716   2.681   1.441  11.856 -0.7607  0.3100 -0.2945
15742TIP3    H168717   2.774   1.461  11.869 -0.2937 -0.5839 -2.0230
15742TIP3    H268718   2.638   1.474  11.936  1.1089  0.0840  0.8615
15743TIP3   OH268719   1.138   4.048  16.030 -0.1191 -0.9957  0.4238
15743TIP3    H168720   1.114   4.137  16.057  0.7169 -1.4877  3.0490
15743TIP3    H268721   1.056   4.008  16.002 -1.2018 -0.4761  2.6297
15744TIP3   OH268722   2.868   3.996  14.277  0.0946 -0.0790 -0.0464
15744TIP3    H168723   2.806   3.947  14.332  0.5244 -1.3702 -0.6663
15744TIP3    H268724   2.954   3.961  14.301  0.7072  2.1290  1.2590
15745TIP3   OH268725   6.253   1.306   0.857 -0.4170  0.5822 -0.4823
15745TIP3    H168726   6.179   1.329   0.800 -0.6933 -0.2199 -0.4620
15745TIP3    H268727   6.326   1.291   0.796 -0.4670  0.6284 -0.5542
15746TIP3   OH268728   0.817   2.794  16.901 -0.0439  0.0607 -0.3629
15746TIP3    H168729   0.870   2.853  16.955  0.1236 -1.5954  1.3695
15746TIP3    H268730   0.739   2.845  16.880 -0.1482  0.7553  1.5221
15747TIP3   OH268731   4.811   5.159  10.824  0.2357  0.4877 -0.7059
15747TIP3    H168732   4.802   5.248  10.859  0.0876  0.8666 -1.6752
15747TIP3    H268733   4.898   5.131  10.854 -0.0281  0.6433  0.2665
15748TIP3   OH268734   1.773   1.754  16.929 -0.4353 -0.5863  0.0251
15748TIP3    H168735   1.729   1.835  16.957 -1.0803 -0.9730  0.1536
15748TIP3    H268736   1.860   1.759  16.969  0.4569  1.1822 -1.9379
15749TIP3   OH268737   4.357   5.639  12.569  0.2599 -0.0967 -0.3358
15749TIP3    H168738   4.271   5.598  12.578 -0.2656  0.9202 -0.6524
15749TIP3    H268739   4.381   5.664  12.658  0.4966 -0.8809 -0.1661
15750TIP3   OH268740   2.298   5.075  12.694 -0.0107 -0.1009 -0.2104
15750TIP3    H168741   2.232   5.142  12.710  0.1277 -0.1099  0.4211
15750TIP3    H268742   2.260   4.994  12.727  1.4174  0.3742  2.9502
15751TIP3   OH268743   5.665   1.922  14.792  0.3494 -0.2332 -0.2820
15751TIP3    H168744   5.576   1.957  14.796  0.8780  1.0644  0.7681
15751TIP3    H268745   5.711   1.980  14.732  1.1992  0.8705  1.3655
15752TIP3   OH268746   5.491   2.667  10.928 -0.1306 -0.0669  0.8318
15752TIP3    H168747   5.439   2.708  10.998 -2.5010 -0.9553 -0.2780
15752TIP3    H268748   5.466   2.575  10.932  1.3995 -0.5265  0.2075
15753TIP3   OH268749   5.574   2.881  11.500  0.5440  0.1577 -0.2796
15753TIP3    H168750   5.537   2.796  11.474  1.9700 -0.6050  0.0640
15753TIP3    H268751   5.627   2.907  11.424 -0.1575  0.9166 -0.5173
15754TIP3   OH268752   3.518   4.645   4.419  0.6155 -0.5644  0.1109
15754TIP3    H168753   3.513   4.597   4.501  3.1539  0.9136  1.2524
15754TIP3    H268754   3.509   4.737   4.445 -0.4690 -0.1556 -1.5511
15755TIP3   OH268755   0.177   1.556  15.039  0.4490 -0.9375 -0.1519
15755TIP3    H168756   0.178   1.556  15.134 -0.0289 -1.0969 -0.1464
15755TIP3    H268757   0.254   1.607  15.014 -0.0104 -0.0035  0.3171
15756TIP3   OH268758   4.380   1.231  10.358  0.1667  0.7745  0.2160
15756TIP3    H168759   4.468   1.251  10.391  0.3321  0.4260 -0.0096
15756TIP3    H268760   4.374   1.136  10.362 -0.2225  0.8030  0.2867
15757TIP3   OH268761   6.570   6.616  15.840 -0.3900  1.0035 -0.5419
15757TIP3    H168762   6.658   6.638  15.870 -0.1727  1.2377 -1.3365
15757TIP3    H268763   6.568   6.643  15.749 -0.1105 -2.1725 -1.6317
15758TIP3   OH268764   0.871   6.693  12.315  0.1384  0.1866  0.3966
15758TIP3    H168765   0.795   6.639  12.337 -2.1646  2.6477 -0.8136
15758TIP3    H268766   0.925   6.693  12.395 -1.0543 -1.7684  1.2560
15759TIP3   OH268767   2.018   4.860   4.253  0.0807  0.2639 -0.0831
15759TIP3    H168768   2.113   4.854   4.264  0.1216 -0.7994 -0.8588
15759TIP3    H268769   2.006   4.886   4.161 -0.3754  0.9502  0.1634
15760TIP3   OH268770   6.666   3.942  11.761  0.3161 -0.0320 -0.4410
15760TIP3    H168771   6.707   3.889  11.829 -2.1379  0.1764  1.3466
15760TIP3    H268772   6.632   4.019  11.808  0.2437  1.1168 -2.2620
15761TIP3   OH268773   1.436   1.735  13.978 -0.1718 -0.1408 -0.3400
15761TIP3    H168774   1.486   1.813  13.955  2.3039 -1.4739  0.1644
15761TIP3    H268775   1.486   1.694  14.049 -1.0601 -2.4369 -0.9212
15762TIP3   OH268776   3.979   2.387  15.553  0.2948  0.5560 -0.1495
15762TIP3    H168777   3.958   2.380  15.460  0.2810  1.9377 -0.2707
15762TIP3    H268778   3.960   2.300  15.589 -1.8199  0.6064 -1.0172
15763TIP3   OH268779   1.298   4.534   4.107 -0.2332  0.0804  0.2317
15763TIP3    H168780   1.244   4.526   4.028 -1.2280  2.5822  0.5666
15763TIP3    H268781   1.236   4.557   4.176  0.8140 -0.6197  1.4316
15764TIP3   OH268782   3.931   0.277   2.502  0.5505  0.1823 -0.5251
15764TIP3    H168783   3.960   0.215   2.436 -0.3545 -0.3406 -0.4544
15764TIP3    H268784   3.844   0.306   2.472 -0.7022 -1.4445  1.2872
15765TIP3   OH268785   2.996   4.564  14.234 -0.5219  0.0202 -0.0324
15765TIP3    H168786   2.960   4.634  14.289  1.3464  0.1871  1.0551
15765TIP3    H268787   2.937   4.561  14.159 -0.2480  3.3386 -0.5410
15766TIP3   OH268788   2.778   5.208  15.425 -0.1460  0.2703  0.4703
15766TIP3    H168789   2.830   5.176  15.498  1.4673  0.6121 -0.4773
15766TIP3    H268790   2.774   5.134  15.364 -0.3064  0.4198  0.2970
15767TIP3   OH268791   2.492   2.225  12.124 -0.5017  0.2289 -0.1827
15767TIP3    H168792   2.486   2.290  12.194 -1.3966 -0.3091  0.2568
15767TIP3    H268793   2.506   2.276  12.045  0.1178  0.8741  0.3269
15768TIP3   OH268794   1.995   1.086   2.490  0.6072  0.8037  0.2768
15768TIP3    H168795   1.959   1.087   2.402 -0.0202  0.4800  0.5219
15768TIP3    H268796   2.041   1.170   2.498 -1.7503  2.1589  0.6195
15769TIP3   OH268797   0.600   5.882   3.255 -0.1565 -1.1060 -0.2469
15769TIP3    H168798   0.541   5.957   3.261 -0.8204 -1.6010 -0.4693
15769TIP3    H268799   0.616   5.872   3.161  2.1275  0.4131 -0.1004
15770TIP3   OH268800   6.142   4.820  17.091 -0.4393 -0.3580 -0.1358
15770TIP3    H168801   6.097   4.761  17.031 -0.0833 -0.6120 -0.1573
15770TIP3    H268802   6.178   4.889  17.035  0.7345 -1.1168 -0.3506
15771TIP3   OH268803   2.936   3.765   0.668  0.0544  0.3301 -0.1212
15771TIP3    H168804   2.858   3.771   0.613  0.8171  1.6540 -1.0997
15771TIP3    H268805   2.902   3.753   0.756 -1.2748  1.5111 -0.4474
15772TIP3   OH268806   2.411   1.535   3.418 -0.2080 -0.1162 -0.1960
15772TIP3    H168807   2.386   1.471   3.351  0.7004 -0.2047 -0.4676
15772TIP3    H268808   2.396   1.620   3.376 -1.1169 -0.1500  0.0523
15773TIP3   OH268809   0.006   1.879  12.233 -0.2670  0.5026 -0.4476
15773TIP3    H168810  -0.014   1.948  12.170  0.2373  0.7086 -0.3868
15773TIP3    H268811  -0.079   1.857  12.272 -0.3391  1.5689  0.0227
15774TIP3   OH268812   3.233   5.426   4.172  0.8435 -0.0298  0.3251
15774TIP3    H168813   3.152   5.417   4.222  1.7800  0.2107  1.9537
15774TIP3    H268814   3.282   5.494   4.218  1.0604  1.4000 -1.9145
15775TIP3   OH268815   2.198   1.966  13.566  0.5679  0.3338 -0.2824
15775TIP3    H168816   2.187   1.894  13.503  3.2906 -0.6861  0.2810
15775TIP3    H268817   2.263   2.023  13.527 -0.0188  1.3983  0.2459
15776TIP3   OH268818   2.138   1.127   1.490  0.3728  0.8665  0.1316
15776TIP3    H168819   2.067   1.191   1.500  2.3089  3.0412  0.8775
15776TIP3    H268820   2.165   1.106   1.579  1.0695  0.5382 -0.1506
15777TIP3   OH268821   0.469   2.040  15.764 -0.4108 -0.1846  0.5084
15777TIP3    H168822   0.451   2.127  15.801  0.6375  0.0289  0.5551
15777TIP3    H268823   0.390   2.018  15.716 -0.9840  0.4661  1.1273
15778TIP3   OH268824   1.142   4.080   4.061  0.5251 -0.3816  1.0007
15778TIP3    H168825   1.098   4.005   4.103  0.3762 -0.9811 -0.1797
15778TIP3    H268826   1.223   4.090   4.109 -0.2579 -0.1555  2.3208
15779TIP3   OH268827   1.493   3.110  14.370  0.0852  0.4081 -0.0538
15779TIP3    H168828   1.461   3.049  14.303  0.0030  0.8213 -0.3925
15779TIP3    H268829   1.580   3.136  14.339  0.8055 -0.7554  0.8869
15780TIP3   OH268830   0.619   6.718   4.046  0.6777 -0.3054 -0.0543
15780TIP3    H168831   0.702   6.691   4.007  1.6386  1.4282  0.6714
15780TIP3    H268832   0.628   6.696   4.139  0.6998  0.6819  0.1885
15781TIP3   OH268833   3.703   0.084  12.008  0.6428 -0.1694 -0.0853
15781TIP3    H168834   3.628   0.139  12.032 -0.7657 -1.7885 -0.6009
15781TIP3    H268835   3.766   0.146  11.969 -0.2632  1.2812  0.6530
15782TIP3   OH268836   6.151   6.446   3.136 -0.3864 -0.0600  0.2551
15782TIP3    H168837   6.140   6.446   3.041  0.9287 -0.1512  0.0804
15782TIP3    H268838   6.136   6.355   3.162  0.5220 -0.3086 -0.0472
15783TIP3   OH268839   5.466   3.774   1.749  0.1243 -0.2417  0.1562
15783TIP3    H168840   5.549   3.746   1.787  0.4057 -1.0327 -0.9753
15783TIP3    H268841   5.408   3.699   1.761 -0.2212  0.0533  0.3343
15784TIP3   OH268842   2.082   5.518   4.766 -0.3898  0.2186  0.1576
15784TIP3    H168843   2.147   5.551   4.827  2.3757 -1.9322 -1.3691
15784TIP3    H268844   2.117   5.540   4.679 -0.7791 -2.3711 -0.7618
15785TIP3   OH268845   1.033   4.579   2.751 -0.6735  0.3383  0.4814
15785TIP3    H168846   1.113   4.617   2.716  0.3805 -1.8054  0.3591
15785TIP3    H268847   1.004   4.640   2.818  1.0516  1.1930  0.4917
15786TIP3   OH268848   3.675   2.590   0.791 -0.4555  0.2879  0.2649
15786TIP3    H168849   3.756   2.620   0.749 -0.3427  0.3225  0.5100
15786TIP3    H268850   3.617   2.666   0.785  0.3398  1.1317  2.2728
15787TIP3   OH268851   2.569   4.114  15.235  0.0502  0.0939  0.2433
15787TIP3    H168852   2.634   4.054  15.198 -3.3335 -2.7822 -1.6673
15787TIP3    H268853   2.525   4.063  15.303 -1.1200  1.3963  0.5065
15788TIP3   OH268854   4.145   4.002  16.064  0.1135  0.1950  0.9308
15788TIP3    H168855   4.065   4.054  16.065  0.4448  0.8741 -1.4065
15788TIP3    H268856   4.212   4.062  16.029  1.1387 -1.0028  0.7575
15789TIP3   OH268857   6.242   3.619  12.668 -0.1110 -0.7620 -0.8817
15789TIP3    H168858   6.198   3.658  12.744  0.0444 -0.4986 -0.9267
15789TIP3    H268859   6.182   3.635  12.595  0.4451  0.3585 -1.1084
15790TIP3   OH268860   0.030   4.308  11.753 -0.4325 -0.0178  0.2049
15790TIP3    H168861   0.046   4.294  11.660 -0.1736 -0.6897  0.3469
15790TIP3    H268862   0.074   4.235  11.796 -3.4800 -1.7003  0.6795
15791TIP3   OH268863   6.101   5.803  11.801 -0.6012  0.2409  0.2483
15791TIP3    H168864   6.075   5.811  11.710  1.0606 -1.0032 -0.3792
15791TIP3    H268865   6.050   5.871  11.847 -2.9549 -0.4189 -1.2415
15792TIP3   OH268866   3.856   5.411   0.887 -0.0747 -0.3606 -0.3127
15792TIP3    H168867   3.808   5.343   0.934  0.5517 -1.1361 -0.7838
15792TIP3    H268868   3.844   5.490   0.940  2.5711 -1.6576  2.5150
15793TIP3   OH268869   1.078   0.493   4.142 -0.0692 -0.6522 -0.0047
15793TIP3    H168870   1.142   0.561   4.164  0.1869 -0.6193 -0.8254
15793TIP3    H268871   1.097   0.421   4.202  0.2947 -0.3807  0.2070
15794TIP3   OH268872   5.311   0.396  13.086  0.8347  0.0562 -0.2473
15794TIP3    H168873   5.313   0.320  13.027  0.0555 -0.4101  0.2998
15794TIP3    H268874   5.402   0.420  13.098  0.9890  0.7867 -2.4306
15795TIP3   OH268875   1.816   5.801   0.849 -0.4066 -0.6559  0.3260
15795TIP3    H168876   1.828   5.706   0.841 -1.0477 -0.7864  0.8423
15795TIP3    H268877   1.765   5.826   0.772  0.2972 -0.6262 -0.1371
15796TIP3   OH268878   1.685   2.987   5.847 -0.2562 -0.1781 -0.1394
15796TIP3    H168879   1.600   2.953   5.875 -0.9034  0.8792 -0.7507
15796TIP3    H268880   1.718   3.034   5.924 -0.8311  0.5057 -0.3009
15797TIP3   OH268881   4.370   6.508  11.794  0.1616 -0.1163 -0.1270
15797TIP3    H168882   4.337   6.561  11.722  1.7596 -0.8631 -1.4616
15797TIP3    H268883   4.295   6.457  11.823 -0.5379  0.3053 -1.1629
15798TIP3   OH268884   1.130   0.579  12.592  0.1348  0.7028 -0.1834
15798TIP3    H168885   1.104   0.671  12.593  0.9265  0.9441  0.5341
15798TIP3    H268886   1.217   0.580  12.632  0.6720 -0.2113 -1.2902
15799TIP3   OH268887   2.154   4.689  10.669 -0.1942  0.1207 -0.0447
15799TIP3    H168888   2.085   4.662  10.730 -0.4276 -0.4374 -0.5509
15799TIP3    H268889   2.216   4.617  10.670  0.6842  0.8534  0.8251
15800TIP3   OH268890   2.823   6.598   0.398 -0.4617  0.0065  0.1886
15800TIP3    H168891   2.839   6.628   0.488 -0.5025 -1.5370  0.7393
15800TIP3    H268892   2.910   6.579   0.363 -0.4174  0.9645 -0.2438
15801TIP3   OH268893   5.505   4.163   4.637 -0.6010 -0.2780  0.5791
15801TIP3    H168894   5.583   4.174   4.691 -0.4129 -2.3296  0.8387
15801TIP3    H268895   5.525   4.086   4.583 -1.9968 -0.1283 -0.2005
15802TIP3   OH268896   4.155   1.396   1.162 -0.1391  0.4879  0.1612
15802TIP3    H168897   4.069   1.429   1.187 -0.4561  0.0062 -0.2640
15802TIP3    H268898   4.146   1.374   1.069 -0.8645 -3.3795  0.9433
15803TIP3   OH268899   1.833   5.833  13.260 -0.0134 -0.7701  0.5987
15803TIP3    H168900   1.875   5.794  13.184  0.1752 -1.6660  1.1432
15803TIP3    H268901   1.743   5.801  13.257 -0.2082 -0.2264  0.3727
15804TIP3   OH268902   4.189   2.308  12.768 -0.5691 -0.0866  0.2835
15804TIP3    H168903   4.122   2.265  12.715 -0.2979  0.0456 -0.1691
15804TIP3    H268904   4.271   2.269  12.739 -0.2512  1.1099 -0.5350
15805TIP3   OH268905   2.538   0.086   0.974  0.0662 -0.0657 -0.4322
15805TIP3    H168906   2.454   0.118   0.941 -0.1445 -0.1807 -0.0196
15805TIP3    H268907   2.581   0.048   0.898 -1.5787 -2.8668 -0.1194
15806TIP3   OH268908   5.413   5.431   1.705  0.0993  0.4415 -0.5526
15806TIP3    H168909   5.330   5.386   1.723  1.1630 -0.6451  2.0834
15806TIP3    H268910   5.460   5.373   1.645  0.0681 -0.2958  0.1314
15807TIP3   OH268911   2.206   2.257  14.060  0.2022 -0.6034  0.5770
15807TIP3    H168912   2.186   2.200  14.134 -0.5226  0.2314  1.0397
15807TIP3    H268913   2.167   2.341  14.083  0.6881 -0.0980 -0.3868
15808TIP3   OH268914   4.499   2.050   4.541  0.3219  0.2744  0.1822
15808TIP3    H168915   4.434   2.005   4.487 -0.4974  0.3407  1.0888
15808TIP3    H268916   4.498   2.003   4.625  3.7592 -1.8075 -0.7224
15809TIP3   OH268917   2.087   3.819   0.828 -0.7857  0.2789 -0.0685
15809TIP3    H168918   2.129   3.905   0.821 -0.5595  0.0281 -2.6984
15809TIP3    H268919   2.023   3.830   0.899  0.2874  2.1289  0.7149
15810TIP3   OH268920   5.389   3.533  11.814 -0.1810 -0.7566 -0.3482
15810TIP3    H168921   5.431   3.488  11.888  2.7015 -1.0088 -1.9785
15810TIP3    H268922   5.461   3.579  11.771 -2.1425  1.0980 -1.8089
15811TIP3   OH268923   5.528   2.778   5.203 -0.1169  0.7036  0.6887
15811TIP3    H168924   5.603   2.721   5.222  1.0493  1.6928 -0.6712
15811TIP3    H268925   5.511   2.764   5.110 -1.1903  1.0111  0.8265
15812TIP3   OH268926   0.022   3.945   5.433 -0.4758  0.4547 -0.1182
15812TIP3    H168927  -0.025   3.997   5.497  1.3320  0.0892  1.6084
15812TIP3    H268928   0.068   3.879   5.485  0.5381 -0.2756 -1.8627
15813TIP3   OH268929   4.759   1.026  14.381  0.5612 -0.0950 -0.7297
15813TIP3    H168930   4.692   1.092  14.399 -0.4442 -1.7914  2.5335
15813TIP3    H268931   4.718   0.943  14.403  2.4813 -1.6668 -2.6214
15814TIP3   OH268932   0.346   2.275   0.931  0.6807  0.1257  0.0599
15814TIP3    H168933   0.331   2.181   0.940 -0.5068  0.3310  0.4017
15814TIP3    H268934   0.328   2.294   0.839  0.3755  0.1068  0.1153
15815TIP3   OH268935   0.100   2.545   5.194  0.0811 -0.3614  0.1115
15815TIP3    H168936   0.188   2.519   5.170  0.7372  1.2887  0.6073
15815TIP3    H268937   0.079   2.618   5.136 -0.1745  0.5188  1.2554
15816TIP3   OH268938   1.747   2.181   3.000  0.4318  0.2283  0.1317
15816TIP3    H168939   1.777   2.254   3.054  0.4135  0.1343  0.2693
15816TIP3    H268940   1.698   2.223   2.929 -1.1295  0.2781  1.1781
15817TIP3   OH268941   2.184   6.351   5.889  0.1603  0.0419 -0.1285
15817TIP3    H168942   2.155   6.440   5.907 -1.9422 -0.2272 -1.8829
15817TIP3    H268943   2.277   6.360   5.867 -0.0836  1.8456 -0.5624
15818TIP3   OH268944   4.778   6.462   6.079  0.3044  0.1946  0.0858
15818TIP3    H168945   4.703   6.520   6.093  0.3127  0.6362 -1.5009
15818TIP3    H268946   4.754   6.380   6.121 -2.5770 -0.8611 -3.1875
15819TIP3   OH268947   2.468   5.223   1.080 -0.1553 -0.0783  0.2129
15819TIP3    H168948   2.522   5.283   1.028 -0.0610  0.6504  1.1394
15819TIP3    H268949   2.530   5.178   1.137  0.5735 -4.5691 -3.5277
15820TIP3   OH268950   5.763   0.643  11.743 -0.0165  0.3331  0.2576
15820TIP3    H168951   5.812   0.651  11.825 -0.6359 -0.5253  0.7302
15820TIP3    H268952   5.672   0.638  11.770 -0.3505  1.5600 -0.5902
15821TIP3   OH268953   4.075   0.266  13.896 -0.7137  0.0658 -0.0829
15821TIP3    H168954   4.002   0.216  13.860 -0.4755  0.4500 -1.1420
15821TIP3    H268955   4.141   0.201  13.917  0.4181 -0.0613 -3.3237
15822TIP3   OH268956   4.147   2.812   3.325  0.0722  0.5488  0.2624
15822TIP3    H168957   4.217   2.751   3.303 -1.3467 -0.6253 -1.2740
15822TIP3    H268958   4.179   2.859   3.401  2.1650 -0.5319  0.1157
15823TIP3   OH268959   4.940   2.869  17.029 -0.1441 -0.3560 -0.1955
15823TIP3    H168960   4.871   2.839  17.089  0.3047  2.9364  2.2427
15823TIP3    H268961   4.894   2.927  16.968 -0.0851 -1.2624 -1.1321
15824TIP3   OH268962   2.698   6.572   1.335 -0.2721 -0.0456  0.1568
15824TIP3    H168963   2.781   6.605   1.301 -0.5754 -0.8265 -1.4030
15824TIP3    H268964   2.676   6.633   1.406  0.2347  1.8643 -1.2353
15825TIP3   OH268965   0.778   0.589   0.099 -0.5359  0.0366 -0.2337
15825TIP3    H168966   0.701   0.612   0.047 -0.3038 -1.8250 -1.4999
15825TIP3    H268967   0.833   0.539   0.039  1.0404  0.1739  1.0440
15826TIP3   OH268968   0.938   3.349   4.102  0.2163  0.0597  0.5846
15826TIP3    H168969   0.920   3.403   4.025 -2.6285  0.6099  1.5026
15826TIP3    H268970   0.972   3.267   4.066 -0.3643  0.5588 -1.2249
15827TIP3   OH268971   1.451   6.210  14.619 -0.1543 -0.4153  0.1669
15827TIP3    H168972   1.405   6.190  14.700  1.2683  0.2401  1.1615
15827TIP3    H268973   1.473   6.303  14.625  1.7180 -0.8018 -0.0258
15828TIP3   OH268974   2.243   5.806   5.117  0.3054  0.6127  0.1499
15828TIP3    H168975   2.285   5.861   5.182 -1.0704  2.8929 -0.7571
15828TIP3    H268976   2.288   5.827   5.035 -0.0602  0.1700 -0.1705
15829TIP3   OH268977   4.524   6.753  16.675  0.4562  0.1461  0.4337
15829TIP3    H168978   4.462   6.787  16.740  1.2073  1.0061  0.7270
15829TIP3    H268979   4.471   6.695  16.619  0.2014 -2.2574  2.9768
15830TIP3   OH268980   2.399   0.377   4.882  0.4987  0.5433 -0.0384
15830TIP3    H168981   2.473   0.322   4.909  1.3236  1.2016 -0.9154
15830TIP3    H268982   2.351   0.323   4.819  0.6370  0.3825 -0.0063
15831TIP3   OH268983   0.095   2.317  14.193 -0.2768 -0.3662  0.5484
15831TIP3    H168984   0.150   2.338  14.268 -0.8550  0.8759  0.6601
15831TIP3    H268985   0.151   2.331  14.117 -0.2021  0.1649  0.6935
15832TIP3   OH268986   3.502   2.489  11.040 -0.1808 -0.1713 -0.2528
15832TIP3    H168987   3.482   2.582  11.054  1.3209  0.0717  0.5328
15832TIP3    H268988   3.551   2.464  11.118  1.3129 -1.0381 -1.4169
15833TIP3   OH268989   3.483   3.253   2.023 -0.4070 -0.3541  0.2621
15833TIP3    H168990   3.474   3.322   2.088 -1.4358 -0.6797  0.4807
15833TIP3    H268991   3.446   3.175   2.065  1.1898 -1.1853  0.2176
15834TIP3   OH268992   5.745   5.279  15.968 -0.0681 -0.2691 -0.2898
15834TIP3    H168993   5.745   5.266  15.873  0.6010  0.6632 -0.4270
15834TIP3    H268994   5.822   5.333  15.985 -0.5524  0.1339  0.7109
15835TIP3   OH268995   4.389   1.558  13.629  0.0298  0.1271 -0.4651
15835TIP3    H168996   4.472   1.580  13.585  0.3388 -2.2064 -1.1466
15835TIP3    H268997   4.332   1.633  13.610  2.5951  2.9742  1.9705
15836TIP3   OH268998   4.028   1.819  12.365  0.8656 -0.0532  0.6563
15836TIP3    H168999   4.099   1.780  12.314  1.8567  1.7982  0.5497
15836TIP3    H269000   4.032   1.776  12.450 -0.4565 -2.7956 -0.5226
15837TIP3   OH269001   4.848   5.914   3.140  0.1340  1.0286  0.3342
15837TIP3    H169002   4.888   6.001   3.137 -0.1974  1.1550 -0.4954
15837TIP3    H269003   4.902   5.865   3.203  0.5340  1.7209  0.5352
15838TIP3   OH269004   0.403   0.022  14.733  0.5801 -0.3307 -0.4254
15838TIP3    H169005   0.456   0.081  14.679 -0.1995 -0.0946 -0.9467
15838TIP3    H269006   0.359   0.079  14.796  0.2598 -0.4140 -0.5709
15839TIP3   OH269007   4.869   4.140  10.632  0.0153 -0.0781 -0.0205
15839TIP3    H169008   4.902   4.124  10.544 -4.0483 -3.1375 -1.3182
15839TIP3    H269009   4.851   4.234  10.634  0.3807  0.1079 -2.4110
15840TIP3   OH269010   1.926   3.460  16.201  0.1621 -1.0048 -0.1384
15840TIP3    H169011   1.880   3.462  16.117  1.0036 -0.8167 -0.6012
15840TIP3    H269012   2.001   3.518  16.189  1.8641 -3.0927 -0.2098
15841TIP3   OH269013   5.709   2.442   5.027 -0.1585 -0.6588  0.2465
15841TIP3    H169014   5.630   2.400   5.061 -0.2627  0.6108  1.6833
15841TIP3    H269015   5.753   2.478   5.104  0.8305  0.3143 -0.7260
15842TIP3   OH269016   2.743   0.353  11.831  0.3862 -0.2622  0.8347
15842TIP3    H169017   2.792   0.312  11.760  0.1129 -0.9512  1.0321
15842TIP3    H269018   2.758   0.296  11.906 -1.1386 -0.8148  0.7666
15843TIP3   OH269019   1.866   5.737   4.912  0.0012  0.7083 -0.1878
15843TIP3    H169020   1.888   5.765   5.000  1.4433 -1.0808  0.0819
15843TIP3    H269021   1.789   5.790   4.888  1.0100  2.9301  1.1797
15844TIP3   OH269022   4.419   4.291   5.495  0.3290 -0.3943 -0.1364
15844TIP3    H169023   4.502   4.337   5.509 -0.6689  1.7964 -0.9047
15844TIP3    H269024   4.356   4.341   5.546 -0.9332 -0.5299 -1.5107
15845TIP3   OH269025   1.133   6.014   1.044  0.1773  0.2653  0.2999
15845TIP3    H169026   1.112   5.923   1.066 -1.1256  0.6983  0.9320
15845TIP3    H269027   1.214   6.008   0.994 -1.2578 -1.4855 -2.0047
15846TIP3   OH269028   1.733   5.082  11.388 -0.0051 -0.1762 -0.1946
15846TIP3    H169029   1.724   5.018  11.458  2.0514 -0.1704  0.1362
15846TIP3    H269030   1.816   5.061  11.346 -0.3982  0.8452 -1.5863
15847TIP3   OH269031   2.665   6.641   6.340  0.3246  0.3638  0.0307
15847TIP3    H169032   2.758   6.640   6.362 -0.0476  1.6239  1.8349
15847TIP3    H269033   2.643   6.734   6.331 -0.2921  0.0416 -2.6859
15848TIP3   OH269034   6.483   6.602  11.722 -0.4689  0.1722  0.2808
15848TIP3    H169035   6.423   6.673  11.698  0.7614  1.2594  0.3203
15848TIP3    H269036   6.440   6.523  11.689 -0.9314  1.1445 -1.6194
15849TIP3   OH269037   3.428   5.445   5.426 -0.5037  0.4387  0.8024
15849TIP3    H169038   3.455   5.416   5.513 -0.0337 -0.0878  0.4823
15849TIP3    H269039   3.458   5.536   5.421 -2.1439  1.0975  1.8783
15850TIP3   OH269040   0.009   3.873   1.136 -0.6036  0.0089  0.5147
15850TIP3    H169041   0.008   3.964   1.164 -0.6725  0.1839 -0.0300
15850TIP3    H269042   0.097   3.860   1.100 -0.2493 -0.4388  1.5112
15851TIP3   OH269043   0.813   2.493   3.768  0.6928 -0.3286 -0.2434
15851TIP3    H169044   0.745   2.426   3.778  0.5385 -0.1931 -0.3672
15851TIP3    H269045   0.855   2.498   3.854  1.1490 -1.0515 -0.4171
15852TIP3   OH269046   4.279   2.595  15.914 -0.1545  0.2941 -0.3659
15852TIP3    H169047   4.223   2.612  15.990  0.5208  0.7382  0.0435
15852TIP3    H269048   4.219   2.587  15.841 -0.8416 -0.4244  0.2653
15853TIP3   OH269049   6.737   2.137   4.236  0.6099 -0.1482  0.2965
15853TIP3    H169050   6.692   2.096   4.309 -0.5805 -0.1395 -0.4117
15853TIP3    H269051   6.830   2.129   4.258  0.2776  0.1116  1.9284
15854TIP3   OH269052   6.298   2.228  10.252  0.2176  0.4415 -0.1706
15854TIP3    H169053   6.210   2.250  10.223 -0.9272 -2.1977  0.9946
15854TIP3    H269054   6.287   2.148  10.304  3.0734  0.9756  1.4671
15855TIP3   OH269055   5.189   4.736   2.823 -0.0921  0.0044 -0.4583
15855TIP3    H169056   5.271   4.773   2.791  0.8280 -1.4727  0.1081
15855TIP3    H269057   5.125   4.758   2.755  0.3989  2.4658 -0.2140
15856TIP3   OH269058   1.329   4.935  15.137  0.1533 -0.3236  0.0222
15856TIP3    H169059   1.360   4.918  15.226 -0.1153 -0.2676  0.1271
15856TIP3    H269060   1.328   5.030  15.130  1.1317 -0.3229 -0.3819
15857TIP3   OH269061   6.837   0.535  11.698  0.1662  0.0214 -0.1851
15857TIP3    H169062   6.843   0.627  11.724 -1.7058  0.4286 -1.0525
15857TIP3    H269063   6.926   0.513  11.670  0.7085  1.4828  0.2587
15858TIP3   OH269064   1.097   2.055   4.758 -0.2210  0.1218 -0.4719
15858TIP3    H169065   1.179   2.067   4.806 -0.7987 -1.7207  1.0917
15858TIP3    H269066   1.116   1.986   4.695 -0.9677 -1.5760  1.0818
15859TIP3   OH269067   1.078   5.155   3.457 -0.7329 -0.5218  0.1847
15859TIP3    H169068   1.067   5.227   3.519 -1.1649 -0.0492 -0.4215
15859TIP3    H269069   1.091   5.199   3.373  0.9442 -1.1349  0.1007
15860TIP3   OH269070   6.573   6.636   5.032  0.7978 -0.1267 -0.2380
15860TIP3    H169071   6.549   6.633   4.939  2.0313 -0.4936 -0.5616
15860TIP3    H269072   6.497   6.598   5.077  0.1982  0.0308 -1.0961
15861TIP3   OH269073   1.621   4.258  14.887  0.2575  0.1261 -0.3906
15861TIP3    H169074   1.614   4.353  14.901  1.6290  0.6857 -2.8585
15861TIP3    H269075   1.542   4.236  14.838  1.2180  0.5931 -2.2308
15862TIP3   OH269076   4.479   0.508  11.574 -0.1015 -0.0455  0.0904
15862TIP3    H169077   4.423   0.447  11.620 -1.5456  0.8857 -0.3562
15862TIP3    H269078   4.561   0.509  11.624 -0.7607 -0.8538  1.2195
15863TIP3   OH269079   1.226   1.692  14.624  0.7977 -0.0268  0.1746
15863TIP3    H169080   1.223   1.627  14.554 -0.6431 -0.0953  0.2606
15863TIP3    H269081   1.150   1.670  14.679  1.9113  0.0078  1.7759
15864TIP3   OH269082   4.542   2.577   6.728  1.0462  0.2530 -0.4897
15864TIP3    H169083   4.469   2.627   6.765  3.0665  1.3270  2.4439
15864TIP3    H269084   4.509   2.488   6.720 -0.4941  0.6267  1.0775
15865TIP3   OH269085   0.541   5.082   5.910 -0.3335  0.6700  0.2747
15865TIP3    H169086   0.508   5.161   5.952  2.2875  1.8545  0.2754
15865TIP3    H269087   0.545   5.017   5.980  1.4425  1.8262  1.3005
15866TIP3   OH269088   4.809   3.566   2.085  0.8003 -0.7044  0.0814
15866TIP3    H169089   4.744   3.502   2.115  0.9308 -0.3076  1.2313
15866TIP3    H269090   4.763   3.649   2.083  0.3595 -0.9305 -2.3393
15867TIP3   OH269091   4.670   1.912   2.805 -0.5395 -0.3303  0.1688
15867TIP3    H169092   4.703   1.930   2.717  0.1377 -1.4217  0.1803
15867TIP3    H269093   4.622   1.991   2.829  1.2681  0.9578 -0.2453
15868TIP3   OH269094   2.248   6.468  15.098  0.0669  0.0022  0.2802
15868TIP3    H169095   2.156   6.493  15.111  0.3056  0.4357  1.1812
15868TIP3    H269096   2.279   6.525  15.029  0.0811  0.9275  1.0344
15869TIP3   OH269097   4.464   2.585   0.327 -0.7424 -0.5119  0.0891
15869TIP3    H169098   4.531   2.565   0.392 -0.2379  0.8634  0.0289
15869TIP3    H269099   4.391   2.621   0.377 -0.5390  0.0978 -0.0346
15870TIP3   OH269100   2.015   1.069   1.739 -0.2506  0.0939  0.5069
15870TIP3    H169101   2.021   1.037   1.828 -0.9359 -0.2191  0.4509
15870TIP3    H269102   1.949   1.013   1.698 -0.2929  0.5440 -0.0533
15871TIP3   OH269103   2.550   2.452   6.699  0.2053  0.2106  0.1036
15871TIP3    H169104   2.511   2.383   6.753  1.8410 -1.0088 -0.1916
15871TIP3    H269105   2.507   2.443   6.614  1.2243 -1.2795 -0.2940
15872TIP3   OH269106   0.833   5.572   3.283  0.0942  0.5294  0.0722
15872TIP3    H169107   0.853   5.605   3.196 -1.5684 -1.4571 -1.1760
15872TIP3    H269108   0.918   5.549   3.320  0.9067  2.3043 -0.5994
15873TIP3   OH269109   2.795   3.274  12.499 -0.3568  0.3588 -0.2699
15873TIP3    H169110   2.700   3.285  12.494 -0.4202  0.5049  0.8993
15873TIP3    H269111   2.811   3.253  12.591  0.6303 -0.8629 -0.6962
15874TIP3   OH269112   5.815   0.846  12.645  0.5902  0.0535 -0.3591
15874TIP3    H169113   5.857   0.775  12.596  0.2617 -1.0284  0.8638
15874TIP3    H269114   5.844   0.926  12.600 -0.1790 -0.8722 -2.6826
15875TIP3   OH269115   5.134   6.547   3.735 -0.3946  0.3913 -0.1998
15875TIP3    H169116   5.224   6.552   3.767 -0.3914  0.1912 -0.1802
15875TIP3    H269117   5.083   6.521   3.812 -0.3147 -0.6236 -0.4856
15876TIP3   OH269118   6.305   5.264   0.385 -0.0663  0.0186 -0.4443
15876TIP3    H169119   6.333   5.334   0.326  0.5349  0.6469  0.5564
15876TIP3    H269120   6.216   5.290   0.411 -0.8737 -0.9446 -2.0572
15877TIP3   OH269121   3.290   3.716  14.330  0.0977 -0.1910  0.0274
15877TIP3    H169122   3.233   3.653  14.288  0.6411  1.1175 -2.8988
15877TIP3    H269123   3.364   3.664  14.362  0.6353 -1.1109 -2.4773
15878TIP3   OH269124   3.176   2.730   4.685  0.1001  0.0365  0.9204
15878TIP3    H169125   3.133   2.814   4.671 -2.1969 -1.1806  0.0514
15878TIP3    H269126   3.138   2.673   4.617  2.2655 -1.4777  0.8793
15879TIP3   OH269127   2.165   5.076   3.377 -0.7992  0.1450  0.7758
15879TIP3    H169128   2.109   5.121   3.314  0.3900  0.1978 -0.3109
15879TIP3    H269129   2.134   4.985   3.377 -1.5381  0.3906  0.9955
15880TIP3   OH269130   1.401   3.779  11.774 -0.0612  0.0602  0.2794
15880TIP3    H169131   1.389   3.835  11.851 -1.5226  0.3159 -0.1026
15880TIP3    H269132   1.339   3.813  11.710  1.2583 -0.0364 -1.1070
15881TIP3   OH269133   5.739   1.128  12.220 -0.2891  0.2126 -0.0650
15881TIP3    H169134   5.653   1.086  12.218  0.2079 -0.8184 -0.8190
15881TIP3    H269135   5.799   1.058  12.245  0.1471  1.3141  2.2140
15882TIP3   OH269136   3.761   2.810   5.490  0.2525  0.1898  0.1805
15882TIP3    H169137   3.722   2.766   5.415  0.8679 -1.1855  0.6301
15882TIP3    H269138   3.839   2.758   5.510  0.8033  1.2859  0.9755
15883TIP3   OH269139   3.079   1.885  11.670 -0.3776  0.1725 -0.2579
15883TIP3    H169140   3.022   1.956  11.640 -0.5327  0.1128 -0.1074
15883TIP3    H269141   3.158   1.894  11.617 -0.4770  0.3335 -0.3816
15884TIP3   OH269142   0.756   6.278   6.238  0.6626 -0.2629  0.3490
15884TIP3    H169143   0.724   6.360   6.274  0.3001 -0.8439  1.3892
15884TIP3    H269144   0.747   6.215   6.309 -1.3869 -1.7909 -1.1090
15885TIP3   OH269145   3.828   2.582   4.920  0.0944 -0.1835  0.1320
15885TIP3    H169146   3.776   2.551   4.994 -1.7428  0.1880 -0.9549
15885TIP3    H269147   3.914   2.602   4.958  0.0779 -2.6017  1.6200
15886TIP3   OH269148   3.612   4.361   4.868  0.1257  0.1095 -0.5825
15886TIP3    H169149   3.641   4.278   4.905 -0.2392  0.5458  0.7358
15886TIP3    H269150   3.659   4.428   4.917 -0.8165  0.7265 -0.4765
15887TIP3   OH269151   2.876   0.347   4.465  0.4407 -0.7586  0.1675
15887TIP3    H169152   2.873   0.320   4.373  0.9597  0.2535 -0.1550
15887TIP3    H269153   2.907   0.269   4.512  0.6147 -1.1390 -0.5686
15888TIP3   OH269154   1.449   4.149   0.508  0.4794 -0.4333 -0.0903
15888TIP3    H169155   1.454   4.170   0.601 -0.2016  0.3985 -0.2263
15888TIP3    H269156   1.510   4.210   0.466 -0.7405  0.6362 -0.3802
15889TIP3   OH269157   0.426   2.241  16.256  0.3301  0.0901 -0.1358
15889TIP3    H169158   0.346   2.197  16.226 -0.4884  1.2149  0.3286
15889TIP3    H269159   0.484   2.169  16.283 -1.9829 -0.7934  3.2083
15890TIP3   OH269160   2.541   1.640  15.922 -0.6817  0.0508  0.0319
15890TIP3    H169161   2.557   1.694  15.999 -0.7579 -0.1461  0.1851
15890TIP3    H269162   2.472   1.686  15.874 -0.8403  0.0209  0.2306
15891TIP3   OH269163   2.792   0.321  16.028  0.5584  0.6494  0.4407
15891TIP3    H169164   2.741   0.241  16.042  0.9713 -0.0052 -1.5583
15891TIP3    H269165   2.731   0.383  15.989  0.3051  1.2757  1.7561
15892TIP3   OH269166   3.555   5.910   0.605  0.5406 -0.0034 -0.0330
15892TIP3    H169167   3.558   5.886   0.513  1.1599  0.7311 -0.2045
15892TIP3    H269168   3.533   6.003   0.606 -2.1523 -0.5513  0.6387
15893TIP3   OH269169   0.488   2.531  11.394  0.3998  0.1144 -0.2821
15893TIP3    H169170   0.560   2.585  11.363  1.4383 -1.0571  0.0006
15893TIP3    H269171   0.491   2.453  11.340 -0.5281 -0.0532 -0.1134
15894TIP3   OH269172   0.101   3.092   6.098 -0.1030  0.4517  0.1192
15894TIP3    H169173   0.041   3.019   6.085 -0.2356  0.4432  0.7598
15894TIP3    H269174   0.170   3.078   6.033 -0.5902  0.2514 -0.3622
15895TIP3   OH269175   0.864   2.265  11.069 -0.8578 -0.9272 -0.6336
15895TIP3    H169176   0.959   2.272  11.061 -0.7559 -0.9712  0.4134
15895TIP3    H269177   0.845   2.303  11.155 -1.5527 -2.8939  0.1241
15896TIP3   OH269178   1.215   2.576  13.842  0.2863 -0.2788  0.3311
15896TIP3    H169179   1.157   2.556  13.769 -0.7417 -0.4057  1.1622
15896TIP3    H269180   1.240   2.490  13.877 -0.6131 -0.2055  1.1866
15897TIP3   OH269181   3.315   0.517  13.932  0.5183  0.1824 -0.0377
15897TIP3    H169182   3.233   0.514  13.982  0.6307 -1.4626  0.1253
15897TIP3    H269183   3.307   0.444  13.870  0.6522  1.7911 -2.0233
15898TIP3   OH269184   1.578   5.729  13.277  0.3362  0.5014  0.3392
15898TIP3    H169185   1.508   5.789  13.300  0.5364  0.7561  0.2906
15898TIP3    H269186   1.584   5.669  13.351  0.0862  0.4967  0.3540
15899TIP3   OH269187   3.375   5.571   4.980  0.4890  0.3075  0.4319
15899TIP3    H169188   3.446   5.517   5.016  1.0938  1.8554  1.6633
15899TIP3    H269189   3.361   5.535   4.893 -1.0865 -3.6917  2.0780
15900TIP3   OH269190   5.958   2.829  13.584  0.7159 -0.3081  0.0863
15900TIP3    H169191   5.939   2.758  13.522  0.2483 -1.6094  1.6327
15900TIP3    H269192   5.906   2.903  13.552 -0.3807 -1.2766 -0.4670
15901TIP3   OH269193   5.323   6.378   0.673 -0.1611 -0.1772  0.5616
15901TIP3    H169194   5.248   6.422   0.712 -0.7717 -1.2704  0.6660
15901TIP3    H269195   5.384   6.448   0.652 -1.2784  0.7517  0.3304
15902TIP3   OH269196   4.373   2.484  14.204  0.1772  0.3879  0.3129
15902TIP3    H169197   4.468   2.472  14.207  0.3104  0.2870 -2.1851
15902TIP3    H269198   4.349   2.461  14.114 -1.8361  3.0751  0.0528
15903TIP3   OH269199   1.456   0.795   1.310  0.2868 -0.4330  0.0218
15903TIP3    H169200   1.413   0.859   1.366 -1.1844 -1.4744  0.1485
15903TIP3    H269201   1.408   0.800   1.227  0.4613 -1.0231 -0.1206
15904TIP3   OH269202   3.127   6.604   5.491  0.2105  0.4003 -0.1372
15904TIP3    H169203   3.103   6.672   5.555  0.3959 -0.5816  1.0228
15904TIP3    H269204   3.221   6.593   5.502  0.4736  1.1235 -1.5275
15905TIP3   OH269205   3.913   0.001   2.908  0.1317 -0.2790 -0.6990
15905TIP3    H169206   3.947   0.014   2.820  0.7602  0.6411 -0.3334
15905TIP3    H269207   3.852   0.073   2.921  0.4623 -0.0838 -0.1847
15906TIP3   OH269208   6.648   0.136  12.813 -0.3207 -0.2653 -0.2660
15906TIP3    H169209   6.728   0.186  12.794 -0.0761  0.7392  2.7716
15906TIP3    H269210   6.582   0.203  12.831 -0.6889 -0.9956  1.2953
15907TIP3   OH269211   6.530   5.646  11.604 -0.0491  0.5388  0.1243
15907TIP3    H169212   6.460   5.650  11.670 -0.3096  2.9645 -0.2244
15907TIP3    H269213   6.598   5.592  11.645  0.3699  3.0186  3.0394
15908TIP3   OH269214   3.481   4.486  14.639 -0.1556 -0.4561  0.0802
15908TIP3    H169215   3.481   4.429  14.562  0.9261  1.7095 -1.6143
15908TIP3    H269216   3.571   4.515  14.648 -0.2924 -0.5630  2.1280
15909TIP3   OH269217   5.598   6.348   3.902 -0.0401  1.0396 -0.4126
15909TIP3    H169218   5.655   6.325   3.976  0.7427 -0.6401 -1.4777
15909TIP3    H269219   5.627   6.436   3.877  0.8161  0.9644  0.2524
15910TIP3   OH269220   0.844   5.085  13.821 -0.4761 -0.6551  0.4127
15910TIP3    H169221   0.893   5.075  13.902 -0.5027  1.6806  0.8079
15910TIP3    H269222   0.856   5.003  13.774  2.5298 -0.7693  1.1837
15911TIP3   OH269223   1.935   0.934   2.254 -0.3713  0.2490  0.3240
15911TIP3    H169224   1.842   0.909   2.256 -0.4191  0.4557  0.6050
15911TIP3    H269225   1.979   0.857   2.216 -0.4733 -0.4335  1.5343
15912TIP3   OH269226   2.470   0.077   4.312  0.6869  0.2819 -0.3975
15912TIP3    H169227   2.394   0.134   4.325 -0.2658 -1.2039  1.1289
15912TIP3    H269228   2.437   0.006   4.256 -0.2800 -2.2851  3.0769
15913TIP3   OH269229   2.423   6.114   4.139 -0.3246 -0.2350  0.1078
15913TIP3    H169230   2.399   6.031   4.097 -1.2553  0.8077 -1.5727
15913TIP3    H269231   2.426   6.177   4.066  1.7834  0.9272  1.1306
15914TIP3   OH269232   2.877   3.493   4.999  0.1306  0.1943 -0.0378
15914TIP3    H169233   2.845   3.560   5.060 -1.9475  0.0337 -0.8830
15914TIP3    H269234   2.896   3.418   5.054 -0.5048  0.4702  0.5699
15915TIP3   OH269235   3.563   1.018  13.136  0.1547 -0.4848  0.1165
15915TIP3    H169236   3.533   1.098  13.179  0.9326  0.5980 -1.2939
15915TIP3    H269237   3.584   0.959  13.208 -0.1267  0.6897  1.1947
15916TIP3   OH269238   1.405   3.549  16.890  0.1447  0.5590  0.0837
15916TIP3    H169239   1.499   3.538  16.873 -0.2346 -0.0374 -1.9150
15916TIP3    H269240   1.364   3.535  16.805 -1.7935  0.5327  0.9774
15917TIP3   OH269241   4.768   4.203  12.527 -0.1805  0.3951 -0.5044
15917TIP3    H169242   4.794   4.114  12.505 -1.9283 -0.3673  0.3696
15917TIP3    H269243   4.699   4.224  12.465 -2.0571 -0.1209  1.3151
15918TIP3   OH269244   2.421   4.452  15.243  0.9935 -0.0456  0.7028
15918TIP3    H169245   2.491   4.445  15.177  0.4270 -1.2783  0.2078
15918TIP3    H269246   2.347   4.490  15.195  1.3453  1.4647  1.2779
15919TIP3   OH269247   0.287   2.223   0.190 -0.1504  0.2099 -0.9708
15919TIP3    H169248   0.196   2.245   0.170 -0.1616  0.4023 -0.7188
15919TIP3    H269249   0.319   2.297   0.242 -0.1833 -0.3493 -0.1229
15920TIP3   OH269250   0.448   1.032   3.494  0.6416  0.2790 -0.5002
15920TIP3    H169251   0.471   0.942   3.470 -0.1999 -0.1895  0.3748
15920TIP3    H269252   0.365   1.048   3.449  0.2976  0.2690  0.1295
15921TIP3   OH269253   3.302   6.412   5.314  0.8817 -0.6861 -0.0659
15921TIP3    H169254   3.251   6.369   5.382  0.2655  0.8359  0.4803
15921TIP3    H269255   3.347   6.483   5.359 -1.0368  1.5999 -1.4980
15922TIP3   OH269256   5.915   2.548  10.397  0.1127 -0.1473  0.4614
15922TIP3    H169257   5.854   2.621  10.407  1.0950  0.6336  1.0363
15922TIP3    H269258   5.935   2.546  10.303  1.9030  1.9505  0.6887
15923TIP3   OH269259   4.340   1.257   1.843 -0.6537 -0.5359 -0.6935
15923TIP3    H169260   4.250   1.291   1.836 -0.9296 -1.1268 -0.1461
15923TIP3    H269261   4.394   1.334   1.857 -1.4002 -0.3753  1.7045
15924TIP3   OH269262   5.052   1.635  12.040  0.4484 -0.3328  0.3005
15924TIP3    H169263   5.113   1.654  12.112  0.7152 -0.9836  0.2496
15924TIP3    H269264   4.966   1.639  12.081  0.5648 -0.1417  0.5331
15925TIP3   OH269265   2.535   6.027  13.481  0.3221 -0.4103  0.5209
15925TIP3    H169266   2.531   6.110  13.434  1.4593  0.3971  1.7859
15925TIP3    H269267   2.483   6.042  13.561  1.2501 -0.6123  1.1731
15926TIP3   OH269268   2.743   5.064  13.035  0.4294  0.2190 -0.1285
15926TIP3    H169269   2.729   5.010  12.957 -2.2351 -0.6008  0.8155
15926TIP3    H269270   2.661   5.111  13.047  0.2143 -0.7335  2.9285
15927TIP3   OH269271   6.113   2.199  16.147 -0.0302 -0.1869  0.1160
15927TIP3    H169272   6.140   2.250  16.070 -0.4338  0.3870  0.3435
15927TIP3    H269273   6.116   2.263  16.218 -2.5445  0.0657  0.0651
15928TIP3   OH269274   5.713   6.530   2.978 -0.5183  0.2347 -0.2272
15928TIP3    H169275   5.775   6.546   2.906  0.1625  2.6179  0.7945
15928TIP3    H269276   5.629   6.564   2.945 -0.9701 -1.4637 -0.9713
15929TIP3   OH269277   3.745   2.893   3.502 -0.2318 -0.8204 -0.2973
15929TIP3    H169278   3.786   2.976   3.475 -1.1826 -0.9023 -2.1727
15929TIP3    H269279   3.695   2.915   3.580  0.0523  0.2260 -0.3894
15930TIP3   OH269280   3.714   1.136  10.963  0.1444  0.2334 -0.6856
15930TIP3    H169281   3.654   1.140  11.037  1.1007  1.5359  0.0503
15930TIP3    H269282   3.660   1.159  10.887 -0.4654  0.5667 -0.1580
15931TIP3   OH269283   6.245   0.957  15.957  0.0429 -0.0365 -0.8697
15931TIP3    H169284   6.207   0.932  16.041  0.9016  1.1321 -0.0943
15931TIP3    H269285   6.197   1.036  15.932  1.6465  1.2381 -0.0624
15932TIP3   OH269286   1.147   1.041   5.201  0.4441 -0.1294 -0.0782
15932TIP3    H169287   1.137   1.095   5.280  0.7941  0.3277 -0.3419
15932TIP3    H269288   1.210   0.973   5.227  0.9315  0.3058 -0.1031
15933TIP3   OH269289   1.644   3.822   2.422 -0.1440  0.2358  0.0552
15933TIP3    H169290   1.589   3.843   2.498 -0.1681  0.2407  0.0363
15933TIP3    H269291   1.654   3.727   2.426  0.3500  0.2960  0.4105
15934TIP3   OH269292   0.401   0.684   0.126 -0.5205  0.4244  0.1771
15934TIP3    H169293   0.356   0.698   0.042  0.2093  0.2073 -0.2633
15934TIP3    H269294   0.441   0.768   0.146  0.1511  0.2171 -0.2226
15935TIP3   OH269295   1.975   1.329  12.036  0.2552  0.1461 -0.2936
15935TIP3    H169296   2.044   1.351  11.973  1.3734 -0.1486  0.7745
15935TIP3    H269297   1.894   1.356  11.994  1.1552  2.0534 -0.9279
15936TIP3   OH269298   4.214   4.293  16.942  0.1360 -0.7017 -0.0602
15936TIP3    H169299   4.212   4.334  17.029 -1.1250 -1.5114  0.3169
15936TIP3    H269300   4.302   4.258  16.935  0.2663 -0.6070  0.8874
15937TIP3   OH269301   4.532   3.626  11.125 -0.0770 -0.1700 -0.5278
15937TIP3    H169302   4.547   3.669  11.209  1.1466  0.1841 -0.9071
15937TIP3    H269303   4.440   3.644  11.105 -0.0627  0.7507  0.1666
15938TIP3   OH269304   4.447   5.595  15.155 -0.2699  0.2172  0.3980
15938TIP3    H169305   4.466   5.613  15.247  0.7527 -1.1053  0.4850
15938TIP3    H269306   4.520   5.634  15.107  0.6621 -1.4425  0.4001
15939TIP3   OH269307   5.715   5.699  16.678 -0.2225  0.6167  0.1815
15939TIP3    H169308   5.722   5.707  16.583  1.9719  0.9827  0.3205
15939TIP3    H269309   5.746   5.783  16.712 -1.5007  0.6921  1.2408
15940TIP3   OH269310   4.643   5.016   5.405 -0.0789 -0.1731 -0.0761
15940TIP3    H169311   4.621   4.993   5.496  0.3191 -0.1527  0.0260
15940TIP3    H269312   4.636   5.112   5.403 -0.4460 -0.2011 -0.1617
15941TIP3   OH269313   3.622   1.269  12.461  0.3936 -0.1811  0.8652
15941TIP3    H169314   3.594   1.255  12.551 -1.4907  0.0399  0.3530
15941TIP3    H269315   3.585   1.196  12.412 -0.7095  0.9765 -0.1115
15942TIP3   OH269316   4.776   4.905  15.237 -0.0940 -0.0695  0.2595
15942TIP3    H169317   4.685   4.878  15.248 -0.0365 -0.9612 -1.1226
15942TIP3    H269318   4.790   4.972  15.303 -0.9981 -1.7086  2.2313
15943TIP3   OH269319   6.319   0.687   0.159 -0.4933 -0.1778 -0.7036
15943TIP3    H169320   6.282   0.687   0.248  0.6967 -0.0532 -0.1909
15943TIP3    H269321   6.413   0.684   0.172 -0.2354  1.2742 -1.9522
15944TIP3   OH269322   3.635   5.162  15.732  0.1493 -0.2610 -0.4768
15944TIP3    H169323   3.628   5.198  15.820  0.2733 -1.1983 -0.0800
15944TIP3    H269324   3.549   5.124  15.714 -0.6475  1.9350 -1.6762
15945TIP3   OH269325   3.170   2.776   0.448 -0.2592  0.1034  0.4369
15945TIP3    H169326   3.082   2.764   0.413 -0.2184 -0.9995  0.6756
15945TIP3    H269327   3.224   2.712   0.402 -0.0456 -0.8090  1.9027
15946TIP3   OH269328   0.548   1.560  16.410 -0.6973 -0.0181  0.4041
15946TIP3    H169329   0.521   1.491  16.350 -1.6930  2.0805 -1.7324
15946TIP3    H269330   0.468   1.582  16.459 -1.3407  1.8115 -1.3323
15947TIP3   OH269331   2.529   1.019   2.459  0.6764  0.4265 -0.1131
15947TIP3    H169332   2.437   1.041   2.447 -0.0994 -2.8203 -1.2230
15947TIP3    H269333   2.564   1.009   2.371  0.7825 -2.7042  0.1715
15948TIP3   OH269334   0.277   6.795  11.044 -0.4033  0.5400  0.5907
15948TIP3    H169335   0.253   6.741  10.969 -1.9030  0.6079  0.9781
15948TIP3    H269336   0.371   6.810  11.035 -0.4994  0.2716 -1.0806
15949TIP3   OH269337   1.361   2.630  12.245 -0.5045  0.6823  0.6478
15949TIP3    H169338   1.326   2.707  12.199  1.3939  1.6180  0.6425
15949TIP3    H269339   1.456   2.639  12.236 -0.1946 -2.6859 -0.9949
15950TIP3   OH269340   0.217   4.690   1.177  0.1817 -0.3392 -0.2076
15950TIP3    H169341   0.286   4.632   1.145 -0.2774 -1.5485  0.9121
15950TIP3    H269342   0.261   4.774   1.192  0.5823  0.0596 -3.1134
15951TIP3   OH269343   6.116   6.723  11.812  0.3061 -0.0099 -0.2877
15951TIP3    H169344   6.196   6.774  11.809  0.3947 -0.1712 -0.9959
15951TIP3    H269345   6.052   6.779  11.856  0.1151  1.1374 -1.9547
15952TIP3   OH269346   5.820   3.397   0.033 -0.2188  0.2761  0.7727
15952TIP3    H169347   5.882   3.413  -0.038 -2.0582 -0.6712 -1.1343
15952TIP3    H269348   5.835   3.469   0.094  1.0749  1.4151 -0.8128
15953TIP3   OH269349   1.255   3.687   5.158  0.3478 -0.0972 -0.2945
15953TIP3    H169350   1.229   3.609   5.206  0.8664 -0.1328 -0.0664
15953TIP3    H269351   1.260   3.756   5.224 -1.6283  0.5157 -0.7233
15954TIP3   OH269352   6.551   3.649  11.616 -0.3115  0.2216 -0.3227
15954TIP3    H169353   6.590   3.651  11.528 -2.4042  0.3521 -1.3281
15954TIP3    H269354   6.625   3.640  11.675  1.1648 -0.0880 -2.1158
15955TIP3   OH269355   3.564   4.401  16.587 -0.3008  0.1247 -0.3037
15955TIP3    H169356   3.581   4.354  16.669 -1.1201 -0.1951 -0.3123
15955TIP3    H269357   3.646   4.392  16.538  0.4568  0.9522  0.7716
15956TIP3   OH269358   2.307   4.743  15.380  0.3514  0.2933  0.3264
15956TIP3    H169359   2.289   4.649  15.376  0.9755  0.1791 -0.0565
15956TIP3    H269360   2.313   4.762  15.473 -0.7099  0.1481  0.4366
15957TIP3   OH269361   0.900   4.972   1.146  0.1498 -0.4639 -0.0768
15957TIP3    H169362   0.908   4.888   1.101 -0.9193 -1.3148  1.2713
15957TIP3    H269363   0.933   4.956   1.234  1.5907  1.0171 -0.2784
15958TIP3   OH269364   6.139   5.307  16.434  0.3751  0.1572 -0.0737
15958TIP3    H169365   6.224   5.339  16.464 -0.4353  1.1786  1.2443
15958TIP3    H269366   6.100   5.265  16.510 -0.6219  0.3911 -0.4337
15959TIP3   OH269367   6.743   0.801   3.346  0.0143 -0.0155  0.2598
15959TIP3    H169368   6.725   0.786   3.439 -0.1810  0.4580  0.3014
15959TIP3    H269369   6.723   0.717   3.304 -0.9965  0.0894  0.4962
15960TIP3   OH269370   4.819   3.021   5.080  0.1667 -0.2121 -0.3500
15960TIP3    H169371   4.911   3.045   5.078  0.0215  0.4432  0.4207
15960TIP3    H269372   4.778   3.079   5.015  0.4046 -1.0265 -1.2438
15961TIP3   OH269373   1.368   4.434  13.669 -0.7059 -0.2413 -0.1637
15961TIP3    H169374   1.456   4.423  13.634 -0.6804  2.2986 -1.1070
15961TIP3    H269375   1.357   4.361  13.730  2.7705  0.3682  1.4592
15962TIP3   OH269376   2.982   1.337  14.302 -0.2775 -0.0584 -0.5390
15962TIP3    H169377   2.997   1.423  14.262 -0.9545 -0.1483 -1.0071
15962TIP3    H269378   2.898   1.308  14.265  0.2017 -1.1601 -0.8042
15963TIP3   OH269379   6.390   0.059  12.903 -0.1818  0.2669  0.0026
15963TIP3    H169380   6.425   0.144  12.878 -0.2797  1.0684  2.2877
15963TIP3    H269381   6.467   0.010  12.934 -0.2307 -0.2307 -0.6410
15964TIP3   OH269382   5.356   2.045  11.051 -0.3760  0.1611 -0.1408
15964TIP3    H169383   5.341   2.096  10.971 -2.3004 -0.4719 -0.2426
15964TIP3    H269384   5.283   1.983  11.053  0.6471 -1.0564  1.1771
15965TIP3   OH269385   4.864   1.651   5.127 -0.0074 -0.2743 -0.4595
15965TIP3    H169386   4.857   1.613   5.039 -1.5483 -1.3353  0.0854
15965TIP3    H269387   4.896   1.580   5.182  1.7558  0.6185 -0.2806
15966TIP3   OH269388   4.031   0.458   5.679  0.9360 -0.8139 -0.3158
15966TIP3    H169389   4.051   0.535   5.626  2.9672 -1.1609 -0.1350
15966TIP3    H269390   4.013   0.492   5.766 -2.8121 -0.2004 -1.1584
15967TIP3   OH269391   6.578   1.673   0.711  0.4972  0.2467 -0.0287
15967TIP3    H169392   6.539   1.646   0.794  2.5803  0.4178  1.0733
15967TIP3    H269393   6.552   1.605   0.649  1.3681 -1.5540  1.4829
15968TIP3   OH269394   4.896   3.376   5.542 -0.1862 -0.4966 -0.7892
15968TIP3    H169395   4.964   3.436   5.570  0.6976 -1.6162 -0.4466
15968TIP3    H269396   4.888   3.391   5.447 -0.1144  0.2660 -0.6808
15969TIP3   OH269397   5.654   1.076   1.683  0.3879 -0.2034  0.2413
15969TIP3    H169398   5.590   1.056   1.750 -0.2277  1.5258  0.2234
15969TIP3    H269399   5.623   1.029   1.605 -0.7566  0.4036  0.2993
15970TIP3   OH269400   2.014   2.443  13.008 -0.1431 -0.6648  0.1065
15970TIP3    H169401   2.002   2.369  12.948 -0.5288 -0.8263  0.3808
15970TIP3    H269402   2.095   2.423  13.054 -0.2943 -0.9684  0.2470
15971TIP3   OH269403   3.536   3.126   1.414  0.6664  0.0201  0.3773
15971TIP3    H169404   3.562   3.184   1.342 -1.4357 -0.7234 -1.0776
15971TIP3    H269405   3.619   3.103   1.456  2.4887 -1.7994 -3.5952
15972TIP3   OH269406   5.868   2.779  15.946 -0.0345 -0.3795 -0.2869
15972TIP3    H169407   5.889   2.873  15.947  0.6936 -0.5025 -1.4765
15972TIP3    H269408   5.953   2.736  15.949 -0.3361 -0.9923 -0.5065
15973TIP3   OH269409   2.430   0.130   2.348  0.0729  0.0589  0.0864
15973TIP3    H169410   2.351   0.167   2.386 -1.6932 -1.9535 -1.4089
15973TIP3    H269411   2.451   0.188   2.274  0.6629  1.1927  1.1148
15974TIP3   OH269412   6.009   5.383  13.942 -0.1329  0.0568 -0.8483
15974TIP3    H169413   6.096   5.344  13.932 -0.2009 -0.3636  0.0627
15974TIP3    H269414   6.025   5.477  13.942  0.6748  0.0151  1.6389
15975TIP3   OH269415   6.679   0.882  16.631  0.4244 -0.4393 -0.2547
15975TIP3    H169416   6.767   0.890  16.668 -0.2761  1.5689  1.1625
15975TIP3    H269417   6.627   0.841  16.701 -0.1039 -0.1422 -0.4666
15976TIP3   OH269418   2.245   1.395   2.906  0.2956 -0.1530  0.7005
15976TIP3    H169419   2.258   1.475   2.956 -0.8233  0.0595  0.6697
15976TIP3    H269420   2.177   1.417   2.842  2.9980  0.2019 -2.3141
15977TIP3   OH269421   2.361   5.282  16.738 -0.5617 -0.5586 -0.1001
15977TIP3    H169422   2.279   5.323  16.766 -2.4120 -2.7806 -1.8709
15977TIP3    H269423   2.370   5.206  16.795 -0.5161 -1.0886 -0.8007
15978TIP3   OH269424   0.987   3.569   3.584  0.6247  0.0371  0.0365
15978TIP3    H169425   1.074   3.531   3.573  1.4278  1.5152  0.9791
15978TIP3    H269426   0.989   3.650   3.533 -0.0612  0.2879  0.3922
15979TIP3   OH269427   0.053   3.539  14.262 -0.1093 -0.0460  0.1821
15979TIP3    H169428  -0.011   3.564  14.329  1.1287  0.4341  1.2420
15979TIP3    H269429   0.041   3.602  14.192 -1.9849 -1.0481 -0.4599
15980TIP3   OH269430   5.803   1.628   3.348 -0.3249 -0.0816 -0.0183
15980TIP3    H169431   5.758   1.562   3.296  0.8306  0.8426 -2.3263
15980TIP3    H269432   5.744   1.703   3.349 -0.2611 -0.0299 -0.1609
15981TIP3   OH269433   2.874   5.509  12.845 -0.4644  0.6972 -0.3633
15981TIP3    H169434   2.819   5.447  12.796 -0.0596 -1.3727  1.6373
15981TIP3    H269435   2.812   5.555  12.903 -0.4564  0.3232 -0.0524
15982TIP3   OH269436   1.769   2.958  13.809  0.0195  0.6152 -0.0434
15982TIP3    H169437   1.727   2.985  13.890  0.2210  0.5707  0.0769
15982TIP3    H269438   1.715   2.885  13.778 -0.0275  0.5971  0.0779
15983TIP3   OH269439   4.678   4.033  13.541  0.2315  0.4773  0.2285
15983TIP3    H169440   4.672   4.128  13.534  1.1093  0.4904 -0.5899
15983TIP3    H269441   4.742   4.018  13.611 -0.0221  0.4872  0.4626
15984TIP3   OH269442   5.928   5.135  15.607  0.1067  0.0256 -0.0939
15984TIP3    H169443   6.008   5.135  15.659  1.0951 -1.3929 -1.5199
15984TIP3    H269444   5.860   5.167  15.667  1.3190 -0.7753  1.7925
15985TIP3   OH269445   1.357   2.980  14.123 -0.2993 -0.0235  0.2844
15985TIP3    H169446   1.291   3.017  14.065 -0.8189  0.9355  1.4343
15985TIP3    H269447   1.318   2.900  14.157 -0.3338 -0.1479 -0.0524
15986TIP3   OH269448   5.462   1.072  16.486  0.1682 -0.0525  0.5428
15986TIP3    H169449   5.439   1.163  16.504  1.0164  0.1267  0.7844
15986TIP3    H269450   5.407   1.021  16.545 -1.4058  0.1995 -0.6387
15987TIP3   OH269451   3.379   2.415   0.781  0.4808  0.7035 -0.2573
15987TIP3    H169452   3.364   2.507   0.759 -0.1017  0.1882 -2.2236
15987TIP3    H269453   3.472   2.401   0.765  0.3195  0.6594 -1.2069
15988TIP3   OH269454   0.304   0.910   5.456  0.0713  0.6730 -0.5887
15988TIP3    H169455   0.347   0.871   5.379 -0.1245  0.0536 -0.3905
15988TIP3    H269456   0.338   0.861   5.530 -1.6083 -0.4399 -0.4930
15989TIP3   OH269457   0.736   0.878  14.538 -0.9114  0.6749 -0.1696
15989TIP3    H169458   0.788   0.887  14.459 -1.1179  0.8495 -0.2865
15989TIP3    H269459   0.800   0.863  14.608 -0.8116 -2.1968 -0.7284
15990TIP3   OH269460   3.246   2.718  16.862  0.3830 -0.0859  0.4461
15990TIP3    H169461   3.275   2.790  16.805  1.9811 -1.0239 -0.0079
15990TIP3    H269462   3.151   2.721  16.858  0.4291  0.4898 -1.5366
15991TIP3   OH269463   2.539   1.261   1.887 -0.3166  0.3278 -0.0269
15991TIP3    H169464   2.509   1.331   1.828  1.9968  1.9365  0.5751
15991TIP3    H269465   2.545   1.302   1.973  0.0181 -0.9320  0.5829
15992TIP3   OH269466   3.204   1.524   5.128 -0.4712  0.0207  0.0969
15992TIP3    H169467   3.172   1.595   5.182 -1.5606  0.0451 -0.5479
15992TIP3    H269468   3.126   1.476   5.102  0.1736 -0.9554 -0.1175
15993TIP3   OH269469   0.310   2.890   4.493  0.1229 -0.2062  0.4572
15993TIP3    H169470   0.378   2.835   4.532 -0.2317  0.1827  1.6726
15993TIP3    H269471   0.338   2.980   4.512 -1.1605 -0.0407  1.8295
15994TIP3   OH269472   0.987   0.731  15.310  0.3756  0.1761  0.1767
15994TIP3    H169473   0.974   0.693  15.397  1.5625 -0.1847  0.2090
15994TIP3    H269474   0.928   0.807  15.308 -1.6398 -1.3022  0.3148
15995TIP3   OH269475   2.945   3.402  15.933  0.5045 -0.4013 -0.5825
15995TIP3    H169476   2.975   3.333  15.992 -0.2152  0.2035  0.5185
15995TIP3    H269477   2.850   3.398  15.938  0.4486  0.3376 -0.9144
15996TIP3   OH269478   0.904   3.931   0.079 -0.0605  0.5549 -0.0271
15996TIP3    H169479   0.857   3.901   0.156  0.5124 -0.7508 -0.1677
15996TIP3    H269480   0.990   3.888   0.084  0.1041  0.6866 -1.2266
15997TIP3   OH269481   3.307   5.001  13.444  0.1517  0.5934 -0.7937
15997TIP3    H169482   3.249   5.065  13.486 -0.2937 -1.0618  1.3160
15997TIP3    H269483   3.251   4.925  13.428  1.5030 -0.8335  0.7425
15998TIP3   OH269484   0.250   5.049  13.717 -0.4011 -0.8848  0.2533
15998TIP3    H169485   0.212   4.967  13.685  0.1811 -1.4099  0.8829
15998TIP3    H269486   0.227   5.051  13.810  1.1246 -1.2449  0.6666
15999TIP3   OH269487   0.768   0.165  13.094 -0.1839  0.1885  0.1087
15999TIP3    H169488   0.743   0.099  13.030  0.4716 -0.0602  0.1033
15999TIP3    H269489   0.685   0.199  13.127 -0.5379  0.5649 -1.1181
16000TIP3   OH269490   6.749   6.829  15.435 -0.1152  0.4095 -0.4265
16000TIP3    H169491   6.842   6.810  15.432 -0.3567 -1.0788  0.4072
16000TIP3    H269492   6.711   6.757  15.487 -1.4183  2.2081  1.2570
16001TIP3   OH269493   6.525   0.046   4.009 -0.0553 -0.4317  0.6188
16001TIP3    H169494   6.595   0.110   4.024  0.1752 -0.6678  0.5466
16001TIP3    H269495   6.447   0.087   4.047 -0.3415  0.7818 -1.1782
16002TIP3   OH269496   2.713   6.413   2.605 -0.0622  0.5190  0.0722
16002TIP3    H169497   2.698   6.462   2.524 -0.3885 -0.6457 -0.5907
16002TIP3    H269498   2.808   6.414   2.617 -0.0903  1.6536  0.2996
16003TIP3   OH269499   5.411   4.864   2.720 -0.4673 -0.1780 -0.0155
16003TIP3    H169500   5.500   4.889   2.696 -0.1033 -2.7772 -1.9512
16003TIP3    H269501   5.355   4.909   2.656 -0.3756  0.1225  0.1163
16004TIP3   OH269502   0.043   4.339   0.946  0.0819  0.1874 -0.2772
16004TIP3    H169503   0.129   4.305   0.970  0.7615  0.9790 -1.4825
16004TIP3    H269504   0.014   4.283   0.874 -1.2258 -1.1686  1.2297
16005TIP3   OH269505   5.520   3.106   2.299 -0.2956 -0.4569  0.2932
16005TIP3    H169506   5.426   3.121   2.304 -0.3275 -0.3635 -0.3756
16005TIP3    H269507   5.549   3.164   2.228  0.0695 -1.3765 -0.3241
16006TIP3   OH269508   0.138   5.231  13.185  0.2295 -0.5388  0.0766
16006TIP3    H169509   0.104   5.260  13.269 -0.7345  0.5721 -0.6531
16006TIP3    H269510   0.230   5.211  13.200  0.3021  0.5646  1.1708
16007TIP3   OH269511   4.031   6.649   1.459  0.1319  0.1834 -0.2631
16007TIP3    H169512   4.027   6.736   1.500 -1.1247  0.9493 -1.8743
16007TIP3    H269513   3.941   6.615   1.466  0.6015 -0.9975  0.3208
16008TIP3   OH269514   3.973   1.294  14.849 -0.3504  0.3799 -0.0616
16008TIP3    H169515   3.886   1.286  14.889 -0.4450  3.1403  0.4493
16008TIP3    H269516   3.978   1.220  14.789 -2.2520 -0.9696  1.3172
16009TIP3   OH269517   5.054   6.721   4.031 -0.4880 -0.2815  0.8410
16009TIP3    H169518   5.061   6.625   4.029 -3.1151 -0.5406 -1.6206
16009TIP3    H269519   5.142   6.751   4.007  0.5406 -2.0080  2.1887
16010TIP3   OH269520   5.179   5.081  15.796 -0.3086 -0.0084  0.5452
16010TIP3    H169521   5.271   5.057  15.787 -0.7609 -1.7294  0.1528
16010TIP3    H269522   5.178   5.144  15.868  1.6321  3.0631 -1.8927
16011TIP3   OH269523   1.936   1.001  12.531 -0.0490  0.1389  0.1250
16011TIP3    H169524   1.931   1.048  12.614 -0.4036  2.1931 -0.9916
16011TIP3    H269525   1.846   0.999  12.499  0.2253  0.2354 -0.6644
16012TIP3   OH269526   4.540   1.281   1.453  0.1432 -0.0631 -0.1403
16012TIP3    H169527   4.572   1.211   1.396 -1.3474 -1.4066  0.6220
16012TIP3    H269528   4.480   1.332   1.398 -0.3752 -0.6418 -0.1135
16013TIP3   OH269529   6.148   5.451  13.441  0.5747 -0.1442 -0.3502
16013TIP3    H169530   6.088   5.526  13.446  0.1316 -0.5350  0.4815
16013TIP3    H269531   6.227   5.480  13.485 -0.2491 -0.7343  1.6194
16014TIP3   OH269532   2.178   1.042   0.854  0.0076  0.8754 -0.6130
16014TIP3    H169533   2.137   0.955   0.848 -0.4778  1.0816 -0.3552
16014TIP3    H269534   2.112   1.102   0.820  0.4667  1.1104 -1.0945
16015TIP3   OH269535   6.509   3.534  10.426  0.1447  0.4249  0.6626
16015TIP3    H169536   6.571   3.561  10.493 -0.0938  1.2456  0.5572
16015TIP3    H269537   6.424   3.564  10.457 -0.3618 -1.4286  1.2212
16016TIP3   OH269538   0.564   2.080   4.925 -0.2553 -0.7099  0.0444
16016TIP3    H169539   0.656   2.064   4.900 -0.1768 -0.4071  0.1432
16016TIP3    H269540   0.570   2.138   5.000 -0.5970  1.7688 -1.7303
16017TIP3   OH269541   1.365   2.105   4.870 -0.1423  1.2907  0.3238
16017TIP3    H169542   1.358   2.199   4.852 -0.8672  2.0679  3.9004
16017TIP3    H269543   1.459   2.090   4.885 -0.0592  1.4971  0.0122
16018TIP3   OH269544   3.345   4.320   2.281 -0.0133  0.2326 -0.4959
16018TIP3    H169545   3.295   4.264   2.340 -1.4524  0.5797 -1.3208
16018TIP3    H269546   3.421   4.347   2.332 -0.1833 -1.0639  0.4983
16019TIP3   OH269547   4.810   1.507   6.139  0.4260 -0.5225 -0.1694
16019TIP3    H169548   4.904   1.500   6.151  0.4362 -0.1990 -0.0479
16019TIP3    H269549   4.773   1.499   6.228  0.2670 -1.7157 -0.3297
16020TIP3   OH269550   1.486   4.384   2.518  0.1130  0.7264 -0.4781
16020TIP3    H169551   1.529   4.312   2.472 -0.8781  0.5769 -1.1983
16020TIP3    H269552   1.400   4.349   2.542 -0.0574  1.3970 -0.0879
16021TIP3   OH269553   5.714   6.755   1.300 -0.4621  0.2528 -0.2823
16021TIP3    H169554   5.695   6.762   1.207  0.8284  0.6189 -0.5365
16021TIP3    H269555   5.803   6.788   1.309 -1.7135  3.6274  1.5685
16022TIP3   OH269556   2.681   2.660   3.489  0.3008  0.0563  0.2746
16022TIP3    H169557   2.742   2.721   3.531 -0.9009  1.6056 -0.0881
16022TIP3    H269558   2.719   2.642   3.404  0.1412  1.2451 -0.0655
16023TIP3   OH269559   4.163   3.184  16.185  0.0054 -0.5030 -0.4735
16023TIP3    H169560   4.239   3.232  16.152  0.1088 -0.4896 -0.2127
16023TIP3    H269561   4.105   3.252  16.220  1.6808 -0.7432  3.1589
16024TIP3   OH269562   1.628   0.248  12.029 -0.0377 -0.2835 -0.3688
16024TIP3    H169563   1.670   0.324  11.988  0.6087  0.3974  1.4485
16024TIP3    H269564   1.623   0.271  12.122  1.7155 -3.1268  0.5647
16025TIP3   OH269565   6.081   3.681   3.232  0.4044  0.4902  0.0004
16025TIP3    H169566   6.131   3.601   3.249  0.5030  0.4002 -0.6945
16025TIP3    H269567   6.032   3.695   3.312  1.3551  0.4439  0.6087
16026TIP3   OH269568   3.974   1.728  12.900 -0.1321 -0.0963  0.1554
16026TIP3    H169569   4.001   1.819  12.885 -1.0058  0.1216 -0.1688
16026TIP3    H269570   3.901   1.714  12.840 -0.7972 -0.6337  1.0512
16027TIP3   OH269571   0.212   4.305   1.604  0.0735 -0.9058  0.0124
16027TIP3    H169572   0.209   4.358   1.525  2.1575  1.0736  1.1308
16027TIP3    H269573   0.175   4.361   1.672  3.0059 -0.4154  1.3789
16028TIP3   OH269574   4.630   0.610   1.435  0.3362 -0.2649  0.5237
16028TIP3    H169575   4.578   0.569   1.505  1.5660 -0.0271  1.5932
16028TIP3    H269576   4.585   0.693   1.418  0.4362  0.0128  1.5460
16029TIP3   OH269577   4.650   5.962  12.678 -0.3380 -0.0918 -0.3452
16029TIP3    H169578   4.586   5.895  12.701  0.9892 -1.7118 -1.1451
16029TIP3    H269579   4.641   5.972  12.583  2.0697 -2.0943 -0.9060
16030TIP3   OH269580   4.284   0.143   2.869 -0.1219  0.4085  0.1712
16030TIP3    H169581   4.220   0.106   2.809 -0.2928  1.5260 -0.3465
16030TIP3    H269582   4.279   0.087   2.947 -2.4964  1.1017  0.5845
16031TIP3   OH269583   5.520   3.622  12.614 -0.0123 -0.4653  0.6615
16031TIP3    H169584   5.540   3.594  12.524  0.6334  2.4625 -0.2292
16031TIP3    H269585   5.584   3.576  12.668  1.3367 -0.3216 -0.7373
16032TIP3   OH269586   4.523   6.035  16.747  0.0046 -0.3564  0.9013
16032TIP3    H169587   4.445   6.090  16.752 -0.4509 -0.7770 -0.7103
16032TIP3    H269588   4.578   6.078  16.681  0.0861 -1.2835  0.3493
16033TIP3   OH269589   3.491   3.242   0.090 -0.4506  0.0827 -0.0178
16033TIP3    H169590   3.524   3.169   0.037  1.7266 -0.8085  2.3626
16033TIP3    H269591   3.564   3.304   0.093 -0.5703  0.1827  1.7460
16034TIP3   OH269592   2.249   2.291   2.734 -0.4129 -0.4426 -0.0442
16034TIP3    H169593   2.170   2.325   2.776  0.5837  1.2982  0.5406
16034TIP3    H269594   2.272   2.359   2.670 -0.7044 -2.0533 -1.9363
16035TIP3   OH269595   3.263   4.484   1.786 -0.6027 -0.0340  0.2638
16035TIP3    H169596   3.292   4.548   1.851  2.2349 -0.2423 -0.6195
16035TIP3    H269597   3.258   4.534   1.704 -0.3273 -0.5173 -0.0546
16036TIP3   OH269598   0.820   2.356  11.311  0.1863 -0.2368  0.3329
16036TIP3    H169599   0.773   2.274  11.323 -0.7318  0.0991 -0.7605
16036TIP3    H269600   0.844   2.383  11.399 -2.8515  0.2436  1.1469
16037TIP3   OH269601   5.806   5.902   0.022 -0.0306 -0.5989 -0.0740
16037TIP3    H169602   5.847   5.940   0.099  2.3421 -0.7388 -1.1786
16037TIP3    H269603   5.859   5.825   0.001 -0.8257 -0.7752 -1.6263
16038TIP3   OH269604   3.950   3.718  15.372 -0.2217 -0.2983  0.0698
16038TIP3    H169605   4.010   3.647  15.392  0.2296 -0.1923 -0.8624
16038TIP3    H269606   3.904   3.735  15.455  1.0607 -0.3405  0.8089
16039TIP3   OH269607   2.265   2.877  12.025  0.3782  0.0781 -0.5029
16039TIP3    H169608   2.176   2.901  12.048  0.4582  1.0676 -1.1442
16039TIP3    H269609   2.313   2.960  12.026  1.3673 -0.4680  0.1154
16040TIP3   OH269610   0.882   1.361  16.197 -0.1901  0.3748 -0.1349
16040TIP3    H169611   0.971   1.350  16.231 -0.7954 -0.9272  1.1198
16040TIP3    H269612   0.835   1.407  16.266 -0.3905  1.5013 -0.9959
16041TIP3   OH269613   3.547   4.028  16.982  0.0030 -0.0407 -0.3137
16041TIP3    H169614   3.576   4.030  17.073  0.0823 -0.0125 -0.3390
16041TIP3    H269615   3.455   4.005  16.986  0.1162 -0.4831 -0.2512
16042TIP3   OH269616   5.375   4.356   5.924  0.2842  0.0920  0.4960
16042TIP3    H169617   5.412   4.275   5.958  1.0822 -0.0307 -0.6022
16042TIP3    H269618   5.289   4.362   5.965 -0.4094 -2.0648 -0.4841
16043TIP3   OH269619   3.218   1.781   0.608  0.1053 -0.2734  0.7839
16043TIP3    H169620   3.131   1.792   0.645 -1.0924  0.7415 -2.0618
16043TIP3    H269621   3.246   1.869   0.584  2.6190 -0.3665  2.8807
16044TIP3   OH269622   5.500   0.538  12.195  0.2014 -0.3441 -0.0827
16044TIP3    H169623   5.469   0.616  12.150  1.8073  0.0526 -0.5606
16044TIP3    H269624   5.482   0.555  12.288 -3.2516 -1.2183 -0.4303
16045TIP3   OH269625   3.327   1.004  15.171  0.0266 -0.3111 -0.2717
16045TIP3    H169626   3.418   1.003  15.201  0.0983  3.3914  0.1675
16045TIP3    H269627   3.276   1.023  15.249 -0.8526  0.1022 -0.9221
16046TIP3   OH269628   3.622   6.297   1.353  0.4455 -0.3673 -0.2339
16046TIP3    H169629   3.677   6.218   1.356  1.4075  0.2660 -0.6442
16046TIP3    H269630   3.626   6.325   1.262  1.7057  1.2165  0.2596
16047TIP3   OH269631   5.539   6.507   3.550 -0.7933  0.2843  0.4929
16047TIP3    H169632   5.459   6.527   3.503 -0.9351  1.5808  1.2537
16047TIP3    H269633   5.510   6.460   3.629 -0.7265 -0.0614  0.3122
16048TIP3   OH269634   6.580   3.976  14.283  0.4685 -0.5999 -0.7640
16048TIP3    H169635   6.518   3.911  14.316  0.2314 -0.0691 -0.1429
16048TIP3    H269636   6.550   3.995  14.194  0.6866 -1.5173 -1.0403
16049TIP3   OH269637   2.573   6.398  13.755 -0.1042 -0.8231  0.0007
16049TIP3    H169638   2.557   6.393  13.849  0.7506  0.8526  0.2855
16049TIP3    H269639   2.583   6.307  13.727  0.1529 -1.3282  1.6229
16050TIP3   OH269640   5.290   3.057   1.864 -0.1877 -0.0077 -0.0499
16050TIP3    H169641   5.226   2.987   1.880  0.7826 -0.8181  0.4214
16050TIP3    H269642   5.372   3.011   1.846 -0.5560  0.8056 -5.2981
16051TIP3   OH269643   4.414   6.408   4.820  0.0566 -0.0695 -0.5981
16051TIP3    H169644   4.319   6.420   4.825 -0.0038 -0.3880 -0.8664
16051TIP3    H269645   4.444   6.475   4.758 -0.4399 -1.9708 -3.0486
16052TIP3   OH269646   3.927   5.963   2.637 -0.2512  0.1528  0.5254
16052TIP3    H169647   3.951   6.026   2.570  0.5820 -0.0175  0.6591
16052TIP3    H269648   3.853   6.003   2.682  0.4930  1.2067  0.8487
16053TIP3   OH269649   2.526   2.354   1.491 -0.2709  0.0401 -0.1991
16053TIP3    H169650   2.501   2.280   1.436 -0.6517  0.2776 -0.3501
16053TIP3    H269651   2.622   2.352   1.492 -0.2757 -0.3584 -0.3315
16054TIP3   OH269652   0.488   5.058  13.544 -0.0522 -0.2899 -0.1714
16054TIP3    H169653   0.407   5.039  13.590 -0.0061  0.1132  0.0780
16054TIP3    H269654   0.487   4.999  13.468 -0.2339 -0.7870  0.2173
16055TIP3   OH269655   3.820   3.039   5.258 -0.6301 -0.0016  0.3677
16055TIP3    H169656   3.848   3.049   5.167  0.1276 -0.2456  0.5666
16055TIP3    H269657   3.900   3.049   5.309 -0.9221 -0.6111  0.9610
16056TIP3   OH269658   6.439   6.149  16.183  0.0662  0.4287 -0.0319
16056TIP3    H169659   6.515   6.091  16.190  0.9759  1.2291 -2.2324
16056TIP3    H269660   6.373   6.096  16.138  1.2448  1.2643 -2.9660
16057TIP3   OH269661   0.536   3.378   4.759 -0.0403  0.2606  0.7472
16057TIP3    H169662   0.526   3.448   4.823  2.8069  0.6421  0.8779
16057TIP3    H269663   0.626   3.348   4.769 -0.2019 -1.2545 -1.5111
16058TIP3   OH269664   6.374   5.236  17.016  0.7368  0.1638  0.3456
16058TIP3    H169665   6.466   5.264  17.012  1.0201 -0.4937  1.7298
16058TIP3    H269666   6.358   5.217  17.108  0.0257 -2.3708 -0.2198
16059TIP3   OH269667   0.095   5.804  16.470 -0.4658  0.1149 -0.1330
16059TIP3    H169668   0.151   5.736  16.432 -0.2371  0.7147 -0.9072
16059TIP3    H269669   0.057   5.763  16.547  0.5970 -0.5000  0.0928
16060TIP3   OH269670   5.377   4.534   0.811  0.1629  0.1431 -0.3232
16060TIP3    H169671   5.353   4.450   0.772  0.3174 -0.0069 -0.1048
16060TIP3    H269672   5.331   4.600   0.759  0.9899  0.0097 -1.2604
16061TIP3   OH269673   4.014   0.327  13.605 -0.3161 -0.0870  0.1861
16061TIP3    H169674   4.077   0.369  13.664 -1.2741  0.7784  0.6316
16061TIP3    H269675   4.068   0.276  13.545  0.8192  0.7730  0.4380
16062TIP3   OH269676   4.310   6.709   1.951  0.2319 -0.3431 -0.0460
16062TIP3    H169677   4.270   6.630   1.916 -0.0478 -0.6154  0.8570
16062TIP3    H269678   4.355   6.680   2.031  2.4315 -0.0844 -1.1254
16063TIP3   OH269679   6.662   3.021   4.149 -0.1580 -0.1803 -0.0857
16063TIP3    H169680   6.611   2.992   4.073  0.8440 -0.3628 -0.7138
16063TIP3    H269681   6.693   3.109   4.125 -0.5768  0.1287  0.4907
16064TIP3   OH269682   6.549   3.957  13.038 -0.0594 -0.0856 -0.4302
16064TIP3    H169683   6.579   4.035  13.084  1.4732 -0.8767  0.0066
16064TIP3    H269684   6.505   3.905  13.105  0.9984 -0.6300 -0.1243
16065TIP3   OH269685   4.973   4.914  15.709  0.4908  0.0506  0.0699
16065TIP3    H169686   5.050   4.965  15.736 -0.9133  2.3304  0.0562
16065TIP3    H269687   4.928   4.894  15.791  1.1602 -1.4434  0.0932
16066TIP3   OH269688   4.727   2.567  13.928 -0.0863  0.4702  0.7426
16066TIP3    H169689   4.764   2.557  13.841  1.3490 -1.3316  1.5050
16066TIP3    H269690   4.642   2.610  13.913 -0.4265 -0.8368 -1.6337
16067TIP3   OH269691   2.864   1.977  14.636  0.1887 -0.8201  0.2916
16067TIP3    H169692   2.924   2.039  14.594 -2.0612  1.0967 -0.2954
16067TIP3    H269693   2.831   1.922  14.565  0.3965 -1.1251  0.4292
16068TIP3   OH269694   3.088   1.549  12.140  0.4491  0.4179  0.6015
16068TIP3    H169695   3.021   1.558  12.209 -0.8047 -0.9187 -0.3759
16068TIP3    H269696   3.139   1.630  12.146  0.5452  0.2502  3.2344
16069TIP3   OH269697   1.702   2.192   4.184 -0.1138  0.1487  0.5755
16069TIP3    H169698   1.621   2.242   4.180 -0.5821 -0.5577  1.0266
16069TIP3    H269699   1.762   2.238   4.126 -1.8884 -1.2856 -2.6609
16070TIP3   OH269700   3.613   3.037   2.529  0.0256 -0.2893 -0.3824
16070TIP3    H169701   3.568   2.961   2.565  1.6438 -0.1409  2.2314
16070TIP3    H269702   3.642   3.008   2.442 -0.4229 -2.2369  0.0570
16071TIP3   OH269703   2.509   1.726   0.499 -0.0064  0.1566  0.0780
16071TIP3    H169704   2.456   1.657   0.540  1.3990 -0.9660  0.1232
16071TIP3    H269705   2.534   1.784   0.571 -0.3418  0.1133  0.2277
16072TIP3   OH269706   3.050   6.033   4.547  0.4767  0.9068  0.0093
16072TIP3    H169707   3.000   6.097   4.598  2.2581  2.3894  0.0036
16072TIP3    H269708   2.984   5.991   4.491 -0.9557  1.8029  0.9292
16073TIP3   OH269709   1.558   1.402   3.072 -0.0323  0.7894  0.3303
16073TIP3    H169710   1.609   1.482   3.072  0.9809  0.1667  0.7322
16073TIP3    H269711   1.468   1.431   3.087  0.3242  1.8388  0.5276
16074TIP3   OH269712   3.861   2.604   1.083 -0.0008 -0.1243  0.6809
16074TIP3    H169713   3.896   2.515   1.079  0.3802  0.0508 -0.4036
16074TIP3    H269714   3.939   2.659   1.094 -0.1173  0.1349  0.2554
16075TIP3   OH269715   2.205   4.055  16.139 -0.4447 -0.3787 -0.4049
16075TIP3    H169716   2.298   4.040  16.121 -0.5673 -2.8516  0.5959
16075TIP3    H269717   2.159   4.008  16.068 -0.9534  0.9757 -0.9986
16076TIP3   OH269718   1.941   3.411  14.029 -0.1682 -0.0547  0.2587
16076TIP3    H169719   1.897   3.384  14.109 -1.7065 -1.8050 -1.0916
16076TIP3    H269720   1.965   3.329  13.985 -0.4660  0.7988 -1.6293
16077TIP3   OH269721   5.920   3.903   1.799  0.0520 -0.8925 -0.4860
16077TIP3    H169722   5.829   3.897   1.829 -0.6661  1.9871 -1.7807
16077TIP3    H269723   5.959   3.971   1.855  0.0370  1.1165 -2.7399
16078TIP3   OH269724   5.839   4.922  14.733 -0.1375 -0.1721 -0.1349
16078TIP3    H169725   5.801   4.854  14.678 -1.9678  1.1666 -0.6343
16078TIP3    H269726   5.834   5.001  14.679  1.7441  0.4211  0.4997
16079TIP3   OH269727   4.462   2.314   2.643  0.5253  0.0701 -0.4781
16079TIP3    H169728   4.448   2.409   2.652  1.5083  0.1175  0.9887
16079TIP3    H269729   4.515   2.305   2.564  1.3500  0.8705 -0.0409
16080TIP3   OH269730   3.679   3.175   6.311 -0.2589 -0.5958  0.3791
16080TIP3    H169731   3.753   3.214   6.358 -1.8048  2.3548  0.5593
16080TIP3    H269732   3.705   3.178   6.219 -0.8658  2.4709  0.1999
16081TIP3   OH269733   6.757   5.069   3.782  0.3745  0.9387 -0.1468
16081TIP3    H169734   6.823   5.136   3.802  0.7697 -0.0721  2.2355
16081TIP3    H269735   6.788   5.028   3.702  2.1582  1.1274  0.4115
16082TIP3   OH269736   3.593   3.445   1.877  0.0409 -0.0436 -0.3752
16082TIP3    H169737   3.682   3.410   1.881  0.1894 -0.1401 -2.9220
16082TIP3    H269738   3.539   3.379   1.919  0.9050 -1.0543 -0.8130
16083TIP3   OH269739   2.185   3.388  15.624  0.3102  0.3477  0.8024
16083TIP3    H169740   2.241   3.316  15.596  0.0376  0.4868 -0.1289
16083TIP3    H269741   2.100   3.348  15.642 -0.0071  0.5086 -0.2810
16084TIP3   OH269742   1.208   1.511   5.251 -0.3112  0.0274  0.1383
16084TIP3    H169743   1.183   1.552   5.334 -0.7919  0.3812 -0.1771
16084TIP3    H269744   1.284   1.457   5.273 -0.6662 -0.1797  0.8841
16085TIP3   OH269745   5.402   1.645   0.730 -0.2364 -0.0545  0.2410
16085TIP3    H169746   5.476   1.586   0.711 -1.1124 -1.2405  0.3873
16085TIP3    H269747   5.388   1.693   0.649 -0.5745 -1.2882 -0.4630
16086TIP3   OH269748   1.941   6.079  13.233 -0.5113 -0.5298  0.2258
16086TIP3    H169749   1.892   6.002  13.261 -0.4694 -1.2869 -1.6124
16086TIP3    H269750   1.879   6.151  13.239 -1.0897 -1.0266  0.3193
16087TIP3   OH269751   4.458   0.970   4.496 -0.9602  0.8526  1.0764
16087TIP3    H169752   4.469   0.884   4.536 -0.8495  0.4611  0.2364
16087TIP3    H269753   4.370   0.997   4.521 -2.0494 -0.6845 -0.7481
16088TIP3   OH269754   6.630   1.989  12.509  0.2479 -0.4279 -1.0070
16088TIP3    H169755   6.647   2.020  12.420  0.7334  0.0214 -0.7626
16088TIP3    H269756   6.595   1.900  12.497 -1.2548  0.2235 -1.7162
16089TIP3   OH269757   6.652   3.714   5.558 -0.1208 -0.1129  0.1294
16089TIP3    H169758   6.631   3.780   5.624  1.7665  1.0434 -0.3559
16089TIP3    H269759   6.570   3.700   5.510 -0.5492  1.9521  0.1845
16090TIP3   OH269760   1.023   1.851  12.447  0.2476  0.2826  0.2058
16090TIP3    H169761   0.954   1.893  12.498  1.7956  2.9475  0.2680
16090TIP3    H269762   1.003   1.874  12.356  0.8035  0.6764  0.1816
16091TIP3   OH269763   3.730   2.639   3.399  0.1375 -0.5639 -0.6484
16091TIP3    H169764   3.717   2.597   3.484  0.5891 -0.5648 -0.5736
16091TIP3    H269765   3.749   2.730   3.421  1.0955 -0.7434 -0.6936
16092TIP3   OH269766   4.493   0.824   4.274 -0.5654 -0.0211 -0.6242
16092TIP3    H169767   4.517   0.917   4.280  1.8521 -0.5460 -1.0407
16092TIP3    H269768   4.398   0.823   4.288 -0.9804  2.7003 -2.3296
16093TIP3   OH269769   5.221   2.254  12.948  0.1889 -0.0971 -0.4265
16093TIP3    H169770   5.279   2.248  13.024  2.4479  0.7763 -1.9956
16093TIP3    H269771   5.139   2.290  12.983  0.6076 -1.1885  1.8303
16094TIP3   OH269772   2.612   3.857   5.499  0.3398  0.2730 -0.1791
16094TIP3    H169773   2.668   3.795   5.453 -2.0248  0.1471 -3.1616
16094TIP3    H269774   2.572   3.806   5.570  0.2609 -0.9769 -1.0972
16095TIP3   OH269775   6.434   2.261  11.726 -0.3211  0.1133 -0.3103
16095TIP3    H169776   6.517   2.217  11.745 -0.2019  0.4756  0.0397
16095TIP3    H269777   6.371   2.191  11.715 -0.7778 -0.1901  3.0925
16096TIP3   OH269778   3.858   1.305  15.935  0.3062  1.0091 -0.2569
16096TIP3    H169779   3.918   1.230  15.926 -2.1565 -1.0944 -0.2971
16096TIP3    H269780   3.900   1.375  15.884  1.5606 -1.0967 -2.3557
16097TIP3   OH269781   4.212   3.368  17.012  0.7043 -0.0846 -0.3508
16097TIP3    H169782   4.292   3.333  17.051  0.6089  0.2875  0.1888
16097TIP3    H269783   4.243   3.423  16.939  0.8327 -1.6965 -1.5729
16098TIP3   OH269784   2.829   3.274   6.308  0.6100 -0.5346 -0.7910
16098TIP3    H169785   2.804   3.194   6.356  2.3038 -0.3540  0.4651
16098TIP3    H269786   2.918   3.257   6.278  1.7265  1.4935  1.0487
16099TIP3   OH269787   4.541   6.283  13.555 -0.8631  0.5260 -0.0257
16099TIP3    H169788   4.453   6.285  13.519 -0.4517 -1.3717 -1.3064
16099TIP3    H269789   4.558   6.190  13.572  1.2439  0.7116 -0.8023
16100TIP3   OH269790   6.118   0.954  16.192 -0.1670 -0.2574 -0.2077
16100TIP3    H169791   6.032   0.974  16.228 -0.1043 -0.0906 -0.1518
16100TIP3    H269792   6.174   1.026  16.221  0.2358 -0.9046  0.6408
16101TIP3   OH269793   3.524   3.972  15.722 -0.3683  1.1220  0.4526
16101TIP3    H169794   3.582   3.978  15.798  1.3130  2.8082 -0.8630
16101TIP3    H269795   3.563   3.904  15.667 -2.2657 -0.9828  1.5369
16102TIP3   OH269796   3.468   1.119   1.981  0.1102 -0.5813 -0.3207
16102TIP3    H169797   3.421   1.142   2.061 -0.0936 -0.8069 -0.3766
16102TIP3    H269798   3.493   1.204   1.944  0.7382 -0.4839  0.2948
16103TIP3   OH269799   0.743   6.296   3.168  0.2643 -0.0438  0.0892
16103TIP3    H169800   0.794   6.371   3.200 -2.3074  2.5183 -1.2589
16103TIP3    H269801   0.702   6.261   3.247  2.5084 -0.9701  0.9253
16104TIP3   OH269802   3.900   3.224  14.851  0.4110  0.1907  0.5130
16104TIP3    H169803   3.813   3.263  14.858  0.0271 -0.3306 -1.0547
16104TIP3    H269804   3.884   3.135  14.822  1.4202 -0.3341  1.5054
16105TIP3   OH269805   0.904   2.913  11.601 -0.8204 -0.1076 -0.1664
16105TIP3    H169806   0.959   2.987  11.627  0.0753 -0.6356 -0.4997
16105TIP3    H269807   0.867   2.938  11.517 -2.0518  0.7354  0.5943
16106TIP3   OH269808   5.893   0.597   3.747  0.5241  0.0793 -0.0664
16106TIP3    H169809   5.971   0.625   3.795  0.2072  1.2074 -0.1723
16106TIP3    H269810   5.845   0.678   3.731 -2.4059 -0.8285  2.9771
16107TIP3   OH269811   6.205   5.555  15.761 -0.6582  0.0421  0.6137
16107TIP3    H169812   6.133   5.538  15.701  0.2927 -1.0283 -0.2547
16107TIP3    H269813   6.283   5.553  15.707  0.0404  1.3743  1.5068
16108TIP3   OH269814   5.906   2.161   5.387 -0.3820  0.4005  0.2496
16108TIP3    H169815   5.970   2.090   5.397 -0.1060  0.3687 -1.4263
16108TIP3    H269816   5.956   2.240   5.405  0.2983  0.4096 -1.4686
16109TIP3   OH269817   3.101   1.685  15.741 -0.3187 -0.0279  0.1456
16109TIP3    H169818   3.143   1.697  15.656  1.2882 -0.0117  0.9028
16109TIP3    H269819   3.045   1.608  15.729 -0.7183  0.4364 -1.1222
16110TIP3   OH269820   3.400   6.702   1.417 -0.2751 -0.2121  0.0758
16110TIP3    H169821   3.492   6.692   1.394 -0.0095  3.6160 -1.2297
16110TIP3    H269822   3.390   6.653   1.498  3.0870 -0.1853  0.6409
16111TIP3   OH269823   6.597   3.357   3.267  0.2125 -0.0312  0.4963
16111TIP3    H169824   6.594   3.364   3.362 -2.7937  2.3848  0.3680
16111TIP3    H269825   6.650   3.432   3.239  0.9942 -0.6706  0.2441
16112TIP3   OH269826   4.406   0.362   4.250 -0.2130 -0.9131  0.6704
16112TIP3    H169827   4.458   0.293   4.290  0.9375 -1.8876 -2.2961
16112TIP3    H269828   4.465   0.403   4.187 -1.4712  1.5401  0.9612
16113TIP3   OH269829   4.073   1.173  10.342  0.5802  0.4395  0.9913
16113TIP3    H169830   3.992   1.211  10.307  0.8284 -1.8624 -2.7067
16113TIP3    H269831   4.133   1.247  10.348 -0.6219  1.5838 -0.2224
16114TIP3   OH269832   1.521   5.566   0.492 -0.2771 -0.7302 -0.0536
16114TIP3    H169833   1.488   5.654   0.477  1.2445 -0.2452 -0.7277
16114TIP3    H269834   1.508   5.551   0.586 -2.1760 -0.5265 -0.2326
16115TIP3   OH269835   1.262   4.299   3.581  0.0983  0.4442  0.2259
16115TIP3    H169836   1.264   4.395   3.578  1.3588  0.5181  1.9778
16115TIP3    H269837   1.169   4.277   3.578 -0.1723  1.6643 -1.0978
16116TIP3   OH269838   4.744   4.594   5.204 -0.1638  0.0744 -0.1423
16116TIP3    H169839   4.746   4.553   5.291  3.0408  0.4317  0.0459
16116TIP3    H269840   4.729   4.687   5.221  0.7840  0.1946  0.0908
16117TIP3   OH269841   1.102   1.854   5.406  0.5386 -0.1168  0.3481
16117TIP3    H169842   1.141   1.841   5.492  1.7695  0.9118 -0.0231
16117TIP3    H269843   1.014   1.818   5.414  0.4681  0.3716  2.1694
16118TIP3   OH269844   5.369   3.883   0.213 -0.2981  0.1577 -0.2203
16118TIP3    H169845   5.311   3.956   0.193 -1.5604 -0.8053 -0.2295
16118TIP3    H269846   5.378   3.836   0.130 -0.8756 -0.6228  0.1395
16119TIP3   OH269847   1.976   2.204  13.879 -0.0532 -0.3125 -0.5446
16119TIP3    H169848   2.023   2.256  13.944  1.3319 -2.9536  0.7792
16119TIP3    H269849   1.890   2.188  13.919 -0.3918  0.6738 -0.8492
16120TIP3   OH269850   5.702   3.717   4.451 -0.0677  0.4974  0.1068
16120TIP3    H169851   5.792   3.747   4.437  0.2409 -0.2227  0.5174
16120TIP3    H269852   5.711   3.638   4.504 -0.9530  0.4924  0.2574
16121TIP3   OH269853   2.576   0.245   4.534  0.4390 -0.3047 -0.0430
16121TIP3    H169854   2.585   0.176   4.469  0.2341 -1.0468  0.7068
16121TIP3    H269855   2.487   0.236   4.568  0.6627 -0.1563  0.5994
16122TIP3   OH269856   0.081   4.648  15.429 -0.1633 -0.3616 -0.0682
16122TIP3    H169857   0.167   4.625  15.393  0.3930  0.1102  0.9085
16122TIP3    H269858   0.087   4.742  15.448 -1.5510  0.1140 -1.6987
16123TIP3   OH269859   0.015   1.389  13.165  0.1090 -0.1457 -1.2346
16123TIP3    H169860  -0.044   1.319  13.192 -0.3865  0.3383 -1.0522
16123TIP3    H269861  -0.040   1.450  13.116  0.0616  1.1792  0.3791
16124TIP3   OH269862   4.573   0.697  16.268 -0.1353 -0.4725  0.0199
16124TIP3    H169863   4.514   0.664  16.200 -0.3135  0.0456 -0.0791
16124TIP3    H269864   4.649   0.730  16.221 -1.2196  2.0101 -0.1600
16125TIP3   OH269865   1.180   4.706   2.438 -0.0826  0.3286  0.0928
16125TIP3    H169866   1.215   4.718   2.526  0.4052 -1.5054  0.1823
16125TIP3    H269867   1.157   4.613   2.434 -0.2895  0.4296 -1.6577
16126TIP3   OH269868   4.211   0.256   3.864  0.1971  0.0372  0.1954
16126TIP3    H169869   4.285   0.309   3.834  0.8840 -1.1301 -0.2399
16126TIP3    H269870   4.157   0.244   3.786  0.2820 -0.2886  0.1878
16127TIP3   OH269871   5.007   6.094   5.652 -0.7438 -0.2078 -0.2282
16127TIP3    H169872   5.031   6.038   5.727  0.0492  0.3034 -0.0844
16127TIP3    H269873   5.082   6.086   5.592 -1.7527 -1.3262 -1.4051
16128TIP3   OH269874   0.335   1.059  12.075 -0.3566  0.4419 -0.0083
16128TIP3    H169875   0.261   1.092  12.125  0.0809 -0.7026  1.4554
16128TIP3    H269876   0.405   1.050  12.139  0.1281 -1.3499 -0.7377
16129TIP3   OH269877   2.466   6.338  11.698 -0.3737  0.1538  0.4275
16129TIP3    H169878   2.440   6.305  11.612 -3.0559 -0.7188  1.4784
16129TIP3    H269879   2.484   6.431  11.683 -2.1184  0.3336 -0.8723
16130TIP3   OH269880   1.940   3.731  14.553  0.1431 -0.0117 -0.6602
16130TIP3    H169881   2.002   3.795  14.588  0.6794 -1.2593  0.7925
16130TIP3    H269882   1.856   3.777  14.554  0.6255  0.8979 -0.3024
16131TIP3   OH269883   6.110   5.453   3.590 -0.6692 -0.0682  0.3651
16131TIP3    H169884   6.129   5.401   3.512  0.3280  0.2558  0.3741
16131TIP3    H269885   6.134   5.397   3.663  0.7337  0.4917  0.3681
16132TIP3   OH269886   4.840   6.340   5.102 -0.2724  0.0385 -0.1466
16132TIP3    H169887   4.904   6.302   5.041 -0.3916 -1.2493  0.5064
16132TIP3    H269888   4.893   6.395   5.160 -0.0360  0.5558 -0.8400
16133TIP3   OH269889   2.256   1.132   4.153 -0.3197 -0.3075 -0.0679
16133TIP3    H169890   2.284   1.202   4.094 -0.6407 -0.5161 -0.4760
16133TIP3    H269891   2.325   1.128   4.219 -0.0567  0.0712 -0.3105
16134TIP3   OH269892   6.110   1.360  14.555  0.2187 -0.0157 -0.0861
16134TIP3    H169893   6.175   1.343  14.487 -1.3166 -1.9031 -1.1654
16134TIP3    H269894   6.028   1.372  14.507 -0.3549  2.0406  1.2641
16135TIP3   OH269895   4.150   2.593  15.674 -0.8834  0.0279  0.6520
16135TIP3    H169896   4.119   2.514  15.628 -2.4428  1.6887 -1.3503
16135TIP3    H269897   4.070   2.642  15.694  0.1023  1.7261  0.6203
16136TIP3   OH269898   4.236   1.378   1.514 -0.4284  0.2391  0.0671
16136TIP3    H169899   4.192   1.373   1.599  0.5692  0.2683  0.5986
16136TIP3    H269900   4.319   1.421   1.533  0.0024 -0.1703 -0.8449
16137TIP3   OH269901   4.064   1.216   4.092  0.1564 -0.0852  0.9735
16137TIP3    H169902   4.016   1.260   4.163 -2.3629 -0.2497 -0.5236
16137TIP3    H269903   4.058   1.277   4.019  1.8684 -0.3556  0.5796
16138TIP3   OH269904   5.162   0.784   5.391  0.3345 -0.2565 -0.3202
16138TIP3    H169905   5.125   0.758   5.475  0.6716  0.6267  0.1212
16138TIP3    H269906   5.101   0.850   5.357  0.0779 -0.7748 -0.8837
16139TIP3   OH269907   2.528   2.511  12.656 -0.3152 -0.5697  0.0710
16139TIP3    H169908   2.609   2.556  12.630 -0.6945 -0.7019 -1.4019
16139TIP3    H269909   2.464   2.581  12.669  0.2925 -0.3502  2.4659
16140TIP3   OH269910   2.392   2.483   4.178 -0.3426  0.5426 -0.3467
16140TIP3    H169911   2.321   2.543   4.155 -0.4719  0.4990 -0.0661
16140TIP3    H269912   2.469   2.539   4.183 -0.2176  0.4809 -1.3393
16141TIP3   OH269913   1.703   3.388   3.856  0.1117  0.0445 -0.2051
16141TIP3    H169914   1.702   3.322   3.787 -1.2393 -0.4045  0.2019
16141TIP3    H269915   1.706   3.338   3.938  1.3682  0.5578  0.0766
16142TIP3   OH269916   1.216   2.274  12.891 -0.4854  0.0678 -0.1658
16142TIP3    H169917   1.222   2.284  12.796 -0.6248  0.6109 -0.1222
16142TIP3    H269918   1.134   2.228  12.906  0.7146 -2.3642 -0.4458
16143TIP3   OH269919   5.576   5.600   1.295 -0.5594 -0.6485  0.3723
16143TIP3    H169920   5.533   5.655   1.229  0.5509 -0.5453 -0.2757
16143TIP3    H269921   5.654   5.649   1.320  1.4055 -2.6371 -1.4624
16144TIP3   OH269922   3.349   0.627   5.635  0.0477 -0.0098 -0.4337
16144TIP3    H169923   3.396   0.544   5.639  0.6987  0.3943  0.6763
16144TIP3    H269924   3.381   0.676   5.711 -1.9956  0.3620  0.2445
16145TIP3   OH269925   0.254   0.853  11.875 -0.3914 -0.0202 -0.6548
16145TIP3    H169926   0.335   0.807  11.854 -0.3958  0.4662 -1.7719
16145TIP3    H269927   0.278   0.914  11.945 -0.2154 -1.1442  0.2937
16146TIP3   OH269928   5.698   2.083   0.589  0.0771  0.0794 -0.4710
16146TIP3    H169929   5.635   2.100   0.519 -1.6399 -1.0149  0.7199
16146TIP3    H269930   5.643   2.063   0.665  1.8924 -0.9594  0.6124
16147TIP3   OH269931   4.218   4.410  13.209 -0.2369  0.2555  0.0832
16147TIP3    H169932   4.226   4.402  13.114 -1.0510 -0.4841  0.0625
16147TIP3    H269933   4.171   4.492  13.222 -1.5764 -0.4352 -0.2429
16148TIP3   OH269934   2.017   1.460   4.358 -0.6792 -0.1709  0.1325
16148TIP3    H169935   2.087   1.525   4.367 -1.7818  1.1057 -0.3188
16148TIP3    H269936   2.063   1.376   4.353  0.7226  0.4106  2.1310
16149TIP3   OH269937   2.399   0.722   2.121  0.0698  0.1677 -0.0370
16149TIP3    H169938   2.490   0.715   2.150  0.4826 -0.0174 -1.2898
16149TIP3    H269939   2.368   0.632   2.116 -0.6866  0.2843  1.7915
16150TIP3   OH269940   5.946   4.408  15.701  0.6568  0.2258  0.6756
16150TIP3    H169941   5.863   4.366  15.678  1.3873 -0.5757 -0.6339
16150TIP3    H269942   5.942   4.420  15.796 -0.8508  0.0029  0.6609
16151TIP3   OH269943   3.841   4.334  11.511 -0.4837  0.4101  0.0263
16151TIP3    H169944   3.876   4.406  11.564  2.7687 -0.0287 -1.2341
16151TIP3    H269945   3.845   4.367  11.421 -2.8432  0.0147 -0.2774
16152TIP3   OH269946   4.687   0.408   4.434  0.3610 -0.6643  0.1982
16152TIP3    H169947   4.663   0.495   4.403 -3.1726 -1.7491 -0.6213
16152TIP3    H269948   4.782   0.405   4.425  0.3074  1.6800 -3.7523
16153TIP3   OH269949   0.583   5.222  17.097  0.2395  0.7289  0.0753
16153TIP3    H169950   0.674   5.198  17.113  0.4940  0.9548 -0.9460
16153TIP3    H269951   0.547   5.148  17.048  0.3501  1.3335 -0.9533
16154TIP3   OH269952   0.636   3.413  13.640  0.1452 -0.5654 -0.3555
16154TIP3    H169953   0.700   3.478  13.671  1.7222 -2.4756  0.6132
16154TIP3    H269954   0.688   3.335  13.620 -1.8307 -2.0827  0.0538
16155TIP3   OH269955   6.424   1.218  15.064  0.2168  0.2464 -0.0233
16155TIP3    H169956   6.498   1.200  15.006  1.8590 -0.2862  2.1381
16155TIP3    H269957   6.433   1.156  15.136 -2.4063  0.1111  0.2935
16156TIP3   OH269958   4.470   3.061  14.337 -0.2653 -0.5403  0.0868
16156TIP3    H169959   4.437   3.056  14.248  0.0070 -0.7229 -0.0043
16156TIP3    H269960   4.560   3.094  14.328 -0.8488  1.2196  0.4233
16157TIP3   OH269961   6.828   0.251   3.676  0.5529 -0.1763 -0.4237
16157TIP3    H169962   6.879   0.273   3.754 -0.1574 -0.2174  0.0647
16157TIP3    H269963   6.892   0.213   3.616  1.2618  0.5746 -0.1718
16158TIP3   OH269964   4.294   5.642  16.537  0.3187  0.6887  0.1004
16158TIP3    H169965   4.225   5.576  16.544  0.8912  0.1253  0.6635
16158TIP3    H269966   4.263   5.715  16.590  0.8313 -0.1894  1.6671
16159TIP3   OH269967   6.520   3.624  16.382 -0.0253  0.0888  0.6592
16159TIP3    H169968   6.540   3.648  16.291  1.0733  0.0102  0.8726
16159TIP3    H269969   6.458   3.691  16.411 -0.4477  0.0740 -0.1660
16160TIP3   OH269970   4.541   3.952   0.108 -0.7690  0.4624  0.0626
16160TIP3    H169971   4.603   3.986   0.173  0.8700  0.0376 -1.2206
16160TIP3    H269972   4.480   4.024   0.093  0.0065  1.2599  0.6358
16161TIP3   OH269973   0.351   0.847  16.424  0.5526 -0.0909  0.9624
16161TIP3    H169974   0.416   0.881  16.486 -0.3300  1.9748  0.8341
16161TIP3    H269975   0.269   0.848  16.473  0.3367 -1.2404  0.6503
16162TIP3   OH269976   4.951   6.405   0.485 -0.0421 -0.4249  0.5441
16162TIP3    H169977   4.952   6.311   0.467  0.3195 -0.2187 -0.5523
16162TIP3    H269978   4.872   6.437   0.443  0.5777 -0.0124 -0.3379
16163TIP3   OH269979   2.142   0.611  16.584 -0.0246  0.5400  0.5393
16163TIP3    H169980   2.095   0.566  16.654  0.0386 -1.3906 -0.5756
16163TIP3    H269981   2.216   0.652  16.627 -0.3674 -0.0228  1.7080
16164TIP3   OH269982   5.108   6.193  12.571 -0.1268  0.3700  0.1313
16164TIP3    H169983   5.143   6.165  12.487 -0.0614 -1.3171  0.6742
16164TIP3    H269984   5.089   6.111  12.617  2.6499  1.1418  2.9459
16165TIP3   OH269985   4.753   4.275   3.138  0.2806 -0.6971  0.4124
16165TIP3    H169986   4.700   4.252   3.214 -1.0232  1.1633  0.1184
16165TIP3    H269987   4.751   4.370   3.134  0.1831 -0.7202 -2.0257
16166TIP3   OH269988   6.085   0.880   2.569 -0.3686  0.6392 -0.0061
16166TIP3    H169989   5.990   0.895   2.570 -0.5883 -0.2616 -2.2032
16166TIP3    H269990   6.121   0.964   2.540 -0.6512  0.5013 -0.7898
16167TIP3   OH269991   2.211   6.160   2.094 -0.1779  0.3568 -0.2524
16167TIP3    H169992   2.215   6.252   2.119  1.7457 -0.3320  2.3785
16167TIP3    H269993   2.138   6.125   2.144  0.7411 -0.0495  0.8465
16168TIP3   OH269994   4.546   2.094  15.308 -0.4682 -0.2830  0.6653
16168TIP3    H169995   4.485   2.022  15.295 -2.3413  1.5097 -1.1584
16168TIP3    H269996   4.595   2.100  15.225  0.2189  0.0510  1.0800
16169TIP3   OH269997   1.701   2.551  10.923 -0.1249 -0.2900 -0.1996
16169TIP3    H169998   1.702   2.455  10.912  1.4677 -0.3631  0.3837
16169TIP3    H269999   1.760   2.584  10.855  1.1159  0.0734  1.0059
16170TIP3   OH270000   5.992   4.958   2.027  0.0173 -0.0111  0.1929
16170TIP3    H170001   6.066   5.002   1.986  0.2127 -1.4644 -1.0812
16170TIP3    H270002   6.011   4.962   2.121  0.8385  1.1362 -0.0082
16171TIP3   OH270003   2.491   3.653  16.738  0.0849 -0.6602  0.5433
16171TIP3    H170004   2.397   3.638  16.737  0.0116 -0.1933  0.0426
16171TIP3    H270005   2.514   3.666  16.646  0.7102 -1.1838  0.6178
16172TIP3   OH270006   2.620   5.132   5.537 -0.7413  0.4926  0.3666
16172TIP3    H170007   2.693   5.163   5.482 -0.8938 -1.3067 -0.9377
16172TIP3    H270008   2.663   5.090   5.611 -0.4524 -0.1210 -0.1417
16173TIP3   OH270009   1.855   2.392  14.489  0.2481  0.6252 -0.1104
16173TIP3    H170010   1.877   2.485  14.496  0.9454  0.4316  0.3718
16173TIP3    H270011   1.847   2.377  14.395  0.3764  1.1194 -0.2050
16174TIP3   OH270012   1.413   4.237  12.019 -0.2622 -0.2148 -0.2773
16174TIP3    H170013   1.453   4.150  12.010  2.4927  1.0276 -1.1142
16174TIP3    H270014   1.404   4.269  11.929  0.5830  1.0719  0.0642
16175TIP3   OH270015   0.506   0.449  15.931 -0.4575  0.1130 -0.5671
16175TIP3    H170016   0.451   0.510  15.883 -0.8791 -0.1267 -0.3983
16175TIP3    H270017   0.447   0.411  15.997 -0.2920 -0.7134 -0.8848
16176TIP3   OH270018   5.482   1.095  13.327 -0.6845 -0.2375 -0.6225
16176TIP3    H170019   5.518   1.182  13.342  1.3149 -0.6562 -2.4727
16176TIP3    H270020   5.471   1.058  13.414 -0.7128  1.4907  0.1608
16177TIP3   OH270021   0.331   2.735   5.355  0.0159 -0.3485  0.0055
16177TIP3    H170022   0.254   2.716   5.409  0.2892  0.5925  0.7481
16177TIP3    H270023   0.337   2.831   5.355  0.9766 -0.4027 -0.3449
16178TIP3   OH270024   1.176   2.739   2.334  0.1109 -0.1835 -0.5404
16178TIP3    H170025   1.190   2.800   2.406  0.8087  1.1167 -1.7035
16178TIP3    H270026   1.088   2.758   2.303 -0.0565 -0.4940 -0.2581
16179TIP3   OH270027   1.686   6.263   0.279 -0.9588 -0.0257 -0.5644
16179TIP3    H170028   1.762   6.275   0.223 -0.3281 -2.1882 -0.2480
16179TIP3    H270029   1.719   6.272   0.368 -0.8161 -1.8789 -0.3853
16180TIP3   OH270030   6.572   4.738   0.564  0.3133  0.4758  0.2246
16180TIP3    H170031   6.487   4.713   0.600 -0.0298  2.6885  1.1005
16180TIP3    H270032   6.618   4.780   0.637  2.0399 -0.3628 -0.3314
16181TIP3   OH270033   5.613   3.653   5.575  0.3182 -0.6319 -0.2015
16181TIP3    H170034   5.559   3.728   5.550  0.1570 -0.0798  1.6394
16181TIP3    H270035   5.551   3.592   5.616  0.7803 -0.8171  0.2272
16182TIP3   OH270036   2.121   6.678  12.581  0.1513  0.2639  0.5556
16182TIP3    H170037   2.197   6.736  12.569 -0.3268  0.6074 -1.1641
16182TIP3    H270038   2.061   6.703  12.511 -0.2456 -2.0529 -0.0170
16183TIP3   OH270039   0.665   6.210   0.200  0.1163 -0.1121 -0.0489
16183TIP3    H170040   0.588   6.265   0.190  0.6125  1.4788  3.4140
16183TIP3    H270041   0.653   6.167   0.285  2.0229 -1.5475 -0.4460
16184TIP3   OH270042   1.072   4.421   4.811 -0.7113  0.0461 -0.5452
16184TIP3    H170043   1.134   4.350   4.793  0.8785  1.5548 -1.2683
16184TIP3    H270044   1.017   4.425   4.732  0.2771  0.6745 -1.2169
16185TIP3   OH270045   6.102   3.285   2.322  0.3317  0.3232  0.2219
16185TIP3    H170046   6.078   3.246   2.406  0.2683  0.2282  0.1599
16185TIP3    H270047   6.101   3.212   2.260  2.4172 -0.0065  0.5232
16186TIP3   OH270048   0.435   3.818   3.363  0.1794 -0.9263  0.1372
16186TIP3    H170049   0.428   3.859   3.450  0.5430 -0.3640 -0.0969
16186TIP3    H270050   0.529   3.813   3.347  0.1492 -2.1530  0.2974
16187TIP3   OH270051   3.278   5.209   3.443  0.2295  0.3943 -0.3431
16187TIP3    H170052   3.370   5.196   3.465 -0.1310 -1.5820  0.1609
16187TIP3    H270053   3.269   5.174   3.354 -0.6001 -2.4928  0.7524
16188TIP3   OH270054   1.997   3.050   3.508 -0.3980  0.0770 -0.0553
16188TIP3    H170055   2.002   3.129   3.562  1.7889 -0.5688  0.8344
16188TIP3    H270056   1.966   2.982   3.568  0.7155 -0.3489  0.0750
16189TIP3   OH270057   4.119   3.612   1.243 -0.1752 -0.0141  0.2311
16189TIP3    H170058   4.206   3.636   1.275  0.7131 -0.2809 -1.8647
16189TIP3    H270059   4.104   3.523   1.276  1.4404 -0.9444 -1.3639
16190TIP3   OH270060   0.108   2.838   1.675  0.5784  0.2056  0.5932
16190TIP3    H170061   0.077   2.776   1.742  3.1291 -1.7848  0.0902
16190TIP3    H270062   0.064   2.810   1.595  0.6300 -0.0232  0.6446
16191TIP3   OH270063   2.397   6.755  14.952  0.1024 -0.1525 -0.0601
16191TIP3    H170064   2.382   6.839  14.909  1.7738  0.2789  0.1352
16191TIP3    H270065   2.357   6.691  14.894  0.0468  0.6524 -0.9297
16192TIP3   OH270066   3.105   4.499  14.487  0.4590  0.5749 -0.4683
16192TIP3    H170067   3.085   4.545  14.406  0.7394 -0.4780 -1.1448
16192TIP3    H270068   3.082   4.408  14.470 -2.2825  0.7312  1.5797
16193TIP3   OH270069   1.114   4.691  11.209  0.1500  0.1134  0.3088
16193TIP3    H170070   1.106   4.599  11.234 -0.2086 -0.0309 -0.3211
16193TIP3    H270071   1.028   4.729  11.230  0.5073  0.4707  1.1950
16194TIP3   OH270072   6.153   4.866   4.602  0.3900  0.1665 -0.1760
16194TIP3    H170073   6.162   4.961   4.602  0.4535  0.1730  1.2504
16194TIP3    H270074   6.061   4.850   4.622  1.0950 -0.0540  3.5425
16195TIP3   OH270075   2.412   6.579  16.212  0.3540  0.3467 -0.1310
16195TIP3    H170076   2.398   6.527  16.132  0.6335 -0.4976  0.3523
16195TIP3    H270077   2.326   6.616  16.231 -0.4530 -1.7895  0.7555
16196TIP3   OH270078   1.866   6.388  13.545 -0.2218  0.4794 -0.6525
16196TIP3    H170079   1.800   6.456  13.543 -0.1444  0.8574  2.7098
16196TIP3    H270080   1.887   6.371  13.454 -1.6141  3.5848 -1.6754
16197TIP3   OH270081   6.855   5.936  16.267 -0.1750  0.1299  0.6475
16197TIP3    H170082   6.765   5.911  16.249  0.7239 -3.1389  0.0071
16197TIP3    H270083   6.884   5.873  16.333  2.1751 -0.2579 -0.6410
16198TIP3   OH270084   0.958   1.279  12.869  0.4937  0.3520  0.5416
16198TIP3    H170085   0.896   1.319  12.931  2.0322  0.6649  1.9377
16198TIP3    H270086   1.025   1.239  12.925  1.9860  0.7210 -0.9118
16199TIP3   OH270087   1.953   5.691   3.928  0.1500 -0.3665 -0.0209
16199TIP3    H170088   2.040   5.724   3.950 -0.8269  0.9954  2.0961
16199TIP3    H270089   1.893   5.744   3.981 -2.1525  0.1510 -2.8684
16200TIP3   OH270090   1.098   2.931   0.412  0.6976  0.0437  0.4454
16200TIP3    H170091   1.029   2.903   0.352  1.0505 -1.1303  0.5744
16200TIP3    H270092   1.137   2.850   0.444  1.2198  0.6709  1.4516
16201TIP3   OH270093   5.238   5.194   3.301 -0.2333 -0.1283  0.1897
16201TIP3    H170094   5.242   5.125   3.368 -1.1825  0.2547  0.6640
16201TIP3    H270095   5.145   5.204   3.284 -0.0477  0.4860 -0.4649
16202TIP3   OH270096   3.461   5.660   2.676 -0.4209  0.0316 -0.0656
16202TIP3    H170097   3.437   5.707   2.756  5.6081  1.2156  1.5798
16202TIP3    H270098   3.435   5.719   2.606  0.2349  2.4062  1.5388
16203TIP3   OH270099   4.426   4.070  14.136  0.3511  0.1382 -0.3618
16203TIP3    H170100   4.417   4.020  14.055 -0.0915  0.1618 -0.3288
16203TIP3    H270101   4.471   4.150  14.110  1.1055 -0.2948 -0.4060
16204TIP3   OH270102   5.014   0.662  15.530 -0.2204 -0.2060  0.4901
16204TIP3    H170103   4.928   0.690  15.499  0.6844 -1.4994 -3.9222
16204TIP3    H270104   5.059   0.743  15.555 -1.2040  1.0867 -1.6674
16205TIP3   OH270105   1.584   3.514  15.825  0.4751 -0.2513 -0.9410
16205TIP3    H170106   1.617   3.571  15.756 -0.8270  1.0984 -0.5109
16205TIP3    H270107   1.525   3.569  15.876 -0.9000 -1.9939 -0.5188
16206TIP3   OH270108   0.385   4.018  15.732 -0.6041  0.2144  0.1104
16206TIP3    H170109   0.311   4.060  15.776 -0.7186  0.0019  0.1202
16206TIP3    H270110   0.348   3.942  15.688 -0.6679  0.9741 -1.1842
16207TIP3   OH270111   0.823   0.931  11.904 -0.2724 -0.3034 -0.0600
16207TIP3    H170112   0.858   0.954  11.990 -1.8928  0.6597  0.3919
16207TIP3    H270113   0.790   1.014  11.868 -0.9377 -0.9404 -0.9818
16208TIP3   OH270114   4.256   5.801   1.755 -0.4772  0.5559 -0.5464
16208TIP3    H170115   4.252   5.758   1.840 -0.2374 -0.6537 -1.1358
16208TIP3    H270116   4.343   5.842   1.752  0.5131 -1.4919 -1.1781
16209TIP3   OH270117   1.861   5.903  14.323  0.3882  0.1066 -0.0080
16209TIP3    H170118   1.770   5.926  14.309  0.5854  1.3980  0.6631
16209TIP3    H270119   1.890   5.867  14.239 -0.7680 -0.4604 -0.1790
16210TIP3   OH270120   6.855   5.970   6.067 -0.5171  0.4764  0.0067
16210TIP3    H170121   6.849   6.063   6.087 -0.8238  0.6225 -0.7057
16210TIP3    H270122   6.935   5.962   6.015  0.4223  0.0618  1.4694
16211TIP3   OH270123   2.378   1.957   3.516  0.2273 -0.2779  0.4146
16211TIP3    H170124   2.312   2.021   3.541 -1.1010 -1.5727  0.4093
16211TIP3    H270125   2.443   1.960   3.586 -0.3065  0.3874  0.8960
16212TIP3   OH270126   2.782   0.409  14.217 -0.0453 -0.6615  0.2591
16212TIP3    H170127   2.695   0.380  14.244 -0.4559  0.8828  0.7251
16212TIP3    H270128   2.768   0.448  14.131  0.5531 -2.0969 -0.5093
16213TIP3   OH270129   2.211   1.617  11.934  0.2567 -0.6664  0.1374
16213TIP3    H170130   2.157   1.689  11.967 -0.3498 -1.2641  0.4753
16213TIP3    H270131   2.210   1.630  11.839 -2.8624 -2.2148 -0.1736
16214TIP3   OH270132   2.309   4.430  13.833  0.3230 -0.2369 -0.7018
16214TIP3    H170133   2.321   4.341  13.800  2.9326  0.1971 -1.1621
16214TIP3    H270134   2.286   4.418  13.925 -2.5855 -1.3813 -1.4734
16215TIP3   OH270135   3.493   3.844   1.349 -0.1457  0.1024  0.3075
16215TIP3    H170136   3.435   3.895   1.293 -0.2889 -0.3571  0.0335
16215TIP3    H270137   3.452   3.846   1.435 -0.1125  0.5108  0.3134
16216TIP3   OH270138   0.942   3.236   1.423 -0.5357  0.1906 -0.6194
16216TIP3    H170139   0.849   3.229   1.442 -0.3259 -0.1967  0.3446
16216TIP3    H270140   0.977   3.291   1.494 -0.1761  1.1209 -1.4912
16217TIP3   OH270141   2.098   0.004  12.823  0.5487  0.0704 -0.0642
16217TIP3    H170142   2.029   0.071  12.816  0.3409 -0.1821 -0.5273
16217TIP3    H270143   2.068  -0.066  12.765 -0.1148 -1.2035  1.7543
16218TIP3   OH270144   6.415   3.910   4.407  0.8791 -0.3750  0.3149
16218TIP3    H170145   6.414   3.985   4.466  0.4695 -0.2768  0.1913
16218TIP3    H270146   6.354   3.935   4.337  0.4888 -0.9541  0.4442
16219TIP3   OH270147   0.641   6.000  11.973  0.0781 -0.0395 -0.1389
16219TIP3    H170148   0.604   5.958  11.896 -1.2427 -1.4326  1.1693
16219TIP3    H270149   0.608   6.090  11.969 -0.4645 -0.2621 -0.9025
16220TIP3   OH270150   2.016   6.309   0.274 -0.0338 -0.1492 -0.0756
16220TIP3    H170151   1.991   6.293   0.183  4.1410  0.9652 -1.6424
16220TIP3    H270152   2.000   6.225   0.318 -3.6690 -0.2648 -1.2764
16221TIP3   OH270153   0.249   2.425   1.199 -0.0464 -0.4483  0.8159
16221TIP3    H170154   0.252   2.365   1.124  0.1991 -0.8351  1.1327
16221TIP3    H270155   0.244   2.512   1.159  2.3479 -0.4925  0.3020
16222TIP3   OH270156   1.788   2.760   5.387  0.2457 -0.4930  0.4421
16222TIP3    H170157   1.849   2.689   5.406  1.4667  0.4783  0.2648
16222TIP3    H270158   1.768   2.751   5.294  0.7486 -0.3361  0.3191
16223TIP3   OH270159   5.001   1.766   1.532  0.1422  0.2445  0.1542
16223TIP3    H170160   5.032   1.684   1.570  1.4707  0.2049 -0.9472
16223TIP3    H270161   5.071   1.793   1.473 -1.3324  0.9288 -1.3486
16224TIP3   OH270162   3.642   4.769  16.651 -0.1165  0.5683 -0.1284
16224TIP3    H170163   3.575   4.772  16.582  1.5382  1.5668 -1.8113
16224TIP3    H270164   3.643   4.858  16.687 -0.3592  0.2871  0.5879
16225TIP3   OH270165   2.225   6.169   1.076  0.3778  0.1708  0.6914
16225TIP3    H170166   2.174   6.250   1.072 -2.7649 -1.6958 -2.0175
16225TIP3    H270167   2.169   6.108   1.123  0.9677 -1.4422 -0.6266
16226TIP3   OH270168   3.618   6.671   5.115 -0.3770 -0.2385 -0.3439
16226TIP3    H170169   3.611   6.764   5.138  0.0971  0.7114 -3.4845
16226TIP3    H270170   3.700   6.643   5.156  0.5807  1.3575 -1.0483
16227TIP3   OH270171   4.039   3.270  10.830  0.2181  0.0587  0.4561
16227TIP3    H170172   3.998   3.196  10.875  1.2982 -0.0252  1.3301
16227TIP3    H270173   4.128   3.273  10.864  1.0095  0.1425 -1.5274
16228TIP3   OH270174   3.269   6.685   5.075  0.3505  0.3241 -0.4150
16228TIP3    H170175   3.317   6.624   5.018 -0.0949  0.8325 -1.3539
16228TIP3    H270176   3.293   6.772   5.043  1.9313  0.7466  1.6700
16229TIP3   OH270177   0.086   6.191  13.474 -0.0959 -0.5280  0.0113
16229TIP3    H170178   0.008   6.174  13.528 -1.5277  0.5158 -1.6055
16229TIP3    H270179   0.146   6.119  13.494 -1.9003 -1.9416  0.5900
16230TIP3   OH270180   2.921   2.703   6.505 -0.4818 -0.5317  0.1168
16230TIP3    H170181   2.968   2.786   6.498  0.6787 -1.2755 -1.5138
16230TIP3    H270182   2.831   2.728   6.525 -0.2716  1.1543 -0.8669
16231TIP3   OH270183   4.828   5.890   5.118  0.2450  0.2837  0.2115
16231TIP3    H170184   4.845   5.799   5.144 -1.6896  0.0277  0.7330
16231TIP3    H270185   4.862   5.943   5.190 -0.6206 -0.1696  0.9757
16232TIP3   OH270186   1.485   4.946  12.212 -0.5959 -0.1121  0.2711
16232TIP3    H170187   1.506   4.909  12.127  1.7949 -0.2786  0.8649
16232TIP3    H270188   1.431   5.023  12.192 -1.8178 -1.2859 -1.2195
16233TIP3   OH270189   0.257   1.404  13.731 -0.2229  0.5918 -0.4358
16233TIP3    H170190   0.307   1.476  13.692  0.5926 -0.0460 -0.6133
16233TIP3    H270191   0.325   1.345  13.767 -0.9016  0.4889  0.7387
16234TIP3   OH270192   1.991   2.627  11.835 -0.0105  0.1798  0.0064
16234TIP3    H170193   1.991   2.577  11.753  1.1114 -0.4088  0.3351
16234TIP3    H270194   1.902   2.619  11.869  0.0214 -1.2240 -0.1896
16235TIP3   OH270195   2.399   1.136   3.030  0.2296  0.0072 -0.0030
16235TIP3    H170196   2.431   1.065   2.975 -2.0046  0.6526 -2.3108
16235TIP3    H270197   2.304   1.124   3.032 -0.2562  2.9924 -0.6319
16236TIP3   OH270198   0.948   0.785   1.712  0.4807  0.6045  0.1108
16236TIP3    H170199   0.976   0.867   1.753  3.4764  0.9475 -2.2455
16236TIP3    H270200   1.005   0.776   1.636  0.7093 -3.9660  0.5548
16237TIP3   OH270201   5.356   6.731   0.726  0.1269  0.6180  0.5135
16237TIP3    H170202   5.277   6.720   0.672 -0.1512 -0.3462  1.0986
16237TIP3    H270203   5.390   6.816   0.700 -0.9940  0.9643  0.0992
16238TIP3   OH270204   0.814   5.214  13.111 -0.2193 -0.1560 -0.3989
16238TIP3    H170205   0.751   5.197  13.041 -0.8681 -1.9490  0.5478
16238TIP3    H270206   0.804   5.140  13.171  1.0916  0.7560  1.0360
16239TIP3   OH270207   2.324   2.193  16.646  0.4883  0.2088 -0.0788
16239TIP3    H170208   2.261   2.186  16.718 -0.0957  0.7716 -0.5364
16239TIP3    H270209   2.272   2.214  16.569  1.3149  1.4475 -0.3222
16240TIP3   OH270210   1.823   6.514  12.205  0.2058  0.3528 -0.4654
16240TIP3    H170211   1.795   6.526  12.296  1.8758  0.8805  0.0287
16240TIP3    H270212   1.896   6.451  12.211  1.0447  1.2083 -1.2853
16241TIP3   OH270213   0.729   5.500   1.807  0.2972  0.1044  0.1155
16241TIP3    H170214   0.726   5.592   1.780 -0.1970 -0.2393 -1.0525
16241TIP3    H270215   0.645   5.464   1.780 -0.1934 -0.3177  2.0581
16242TIP3   OH270216   1.111   1.909   0.365 -0.4228  0.2966  0.2951
16242TIP3    H170217   1.172   1.854   0.316  0.4193 -1.3587  2.9982
16242TIP3    H270218   1.165   1.979   0.400 -0.6637  0.4713  0.3171
16243TIP3   OH270219   6.366   5.601  16.849  0.2183 -0.4673  0.6345
16243TIP3    H170220   6.432   5.589  16.917 -1.6050 -0.4935  2.4838
16243TIP3    H270221   6.283   5.583  16.893 -1.3315  2.5134 -0.7930
16244TIP3   OH270222   3.264   6.185  16.366  0.8903  0.0073  0.9230
16244TIP3    H170223   3.195   6.237  16.407  0.4775 -0.0363  0.2857
16244TIP3    H270224   3.251   6.196  16.272  0.8958 -1.1015  0.7724
16245TIP3   OH270225   0.328   5.895   2.778  0.5059  0.3357  0.0545
16245TIP3    H170226   0.246   5.940   2.756  0.1023 -0.5561 -0.3055
16245TIP3    H270227   0.360   5.860   2.694 -0.3094 -1.8710  0.5912
16246TIP3   OH270228   1.076   6.138  11.742  0.2524 -0.2479  0.1043
16246TIP3    H170229   1.160   6.113  11.781  0.4284 -1.3221 -0.9325
16246TIP3    H270230   1.023   6.059  11.747  0.5594 -0.7010 -2.5266
16247TIP3   OH270231   1.604   4.170   2.420 -0.3610 -0.0343 -0.1684
16247TIP3    H170232   1.550   4.152   2.343  2.1937 -0.4097 -1.9818
16247TIP3    H270233   1.647   4.087   2.440  1.3946  0.7840 -0.3482
16248TIP3   OH270234   3.785   2.084   5.547 -0.5918  0.0103 -0.4212
16248TIP3    H170235   3.806   2.153   5.485  1.9253  0.6193  0.9584
16248TIP3    H270236   3.738   2.129   5.618  1.3960  0.5077  0.6697
16249TIP3   OH270237   3.402   0.227   1.310  0.4115  0.2491 -0.0180
16249TIP3    H170238   3.395   0.267   1.223 -0.4198 -1.8934 -1.0026
16249TIP3    H270239   3.315   0.193   1.328  0.5280  0.7960  1.7747
16250TIP3   OH270240   1.459   0.649  14.814 -0.1887 -0.5204 -0.8985
16250TIP3    H170241   1.448   0.616  14.903 -0.7802 -0.8725 -1.0974
16250TIP3    H270242   1.543   0.696  14.816 -1.2244  1.3989  0.4200
16251TIP3   OH270243   3.937   4.860  10.324  0.0777  0.0043  0.1273
16251TIP3    H170244   3.896   4.946  10.332 -0.6550 -0.2898 -0.4240
16251TIP3    H270245   4.005   4.860  10.392  1.1249  1.5896 -0.8593
16252TIP3   OH270246   0.729   6.330  15.650 -0.2383  0.2574 -0.4125
16252TIP3    H170247   0.686   6.380  15.720  1.0799 -0.1823  0.7690
16252TIP3    H270248   0.692   6.242  15.658 -1.7314  0.7175 -1.7652
16253TIP3   OH270249   0.102   0.782   5.985  0.4093  0.2885  0.3580
16253TIP3    H170250   0.133   0.829   5.908 -1.7542  2.4775  0.7110
16253TIP3    H270251   0.015   0.752   5.961  0.2627 -0.2412  1.4745
16254TIP3   OH270252   3.912   1.760   4.120  0.3180 -0.5594  0.4820
16254TIP3    H170253   3.834   1.815   4.130  0.3224 -0.0615 -1.6750
16254TIP3    H270254   3.898   1.713   4.037  1.1826 -2.3946  1.3190
16255TIP3   OH270255   6.650   2.221   5.590 -0.0760 -0.4074  0.3289
16255TIP3    H170256   6.699   2.190   5.666 -0.7254 -1.8755  0.1795
16255TIP3    H270257   6.675   2.162   5.519  0.9247  1.2564 -0.7830
16256TIP3   OH270258   0.956   0.584   0.971  0.1875 -0.0489 -0.3096
16256TIP3    H170259   1.039   0.580   1.018  0.2786  0.1500 -0.4543
16256TIP3    H270260   0.922   0.671   0.988  0.6257  0.3224 -1.2922
16257TIP3   OH270261   3.674   2.397  11.818  0.2373  0.0051  0.2416
16257TIP3    H170262   3.634   2.366  11.899  0.3265 -0.8489 -0.0316
16257TIP3    H270263   3.766   2.412  11.841 -0.0653  1.3117  0.6945
16258TIP3   OH270264   2.081   4.797  15.208  0.5129 -0.0040  0.0895
16258TIP3    H170265   1.989   4.776  15.228  0.0465  0.9405 -0.9180
16258TIP3    H270266   2.129   4.776  15.288 -0.8781  1.3729  1.3448
16259TIP3   OH270267   5.485   1.766   5.192 -0.4630  0.1479 -0.7760
16259TIP3    H170268   5.492   1.717   5.274  1.0305 -0.5597 -1.2830
16259TIP3    H270269   5.477   1.699   5.125 -2.9159  0.7336 -1.1789
16260TIP3   OH270270   1.126   0.893   4.968 -0.1568 -0.0842  0.1513
16260TIP3    H170271   1.054   0.836   4.942  0.3710  0.0709 -1.8923
16260TIP3    H270272   1.085   0.962   5.019 -1.7209  0.7090 -2.0286
16261TIP3   OH270273   4.108   0.526   1.885 -0.1127 -0.0469  0.3686
16261TIP3    H170274   4.050   0.498   1.956 -0.0277 -0.3961  0.3029
16261TIP3    H270275   4.196   0.521   1.923  0.0193 -1.1705 -0.0489
16262TIP3   OH270276   4.439   3.164   1.904 -0.0122 -0.3076  0.3131
16262TIP3    H170277   4.415   3.247   1.863  1.2752  0.3622  0.8467
16262TIP3    H270278   4.525   3.143   1.867 -0.2516 -1.3277  0.3058
16263TIP3   OH270279   3.939   4.530   0.782  0.0387 -0.4868 -0.0624
16263TIP3    H170280   4.001   4.578   0.728 -0.4753 -0.1433 -0.3571
16263TIP3    H270281   3.919   4.590   0.855  0.2369 -0.6892  0.1574
16264TIP3   OH270282   6.561   2.433   5.325 -0.1790 -0.3338  0.0484
16264TIP3    H170283   6.528   2.346   5.302  1.1057 -1.0044  0.6456
16264TIP3    H270284   6.634   2.416   5.384  0.1158  1.1627  0.1523
16265TIP3   OH270285   3.751   1.502   3.493  0.8381  0.4393 -0.1840
16265TIP3    H170286   3.790   1.414   3.492  1.7353  0.8160 -1.4026
16265TIP3    H270287   3.744   1.525   3.401 -2.5854  0.3138 -0.0689
16266TIP3   OH270288   0.663   3.451   5.943 -0.2523 -0.0741 -0.3645
16266TIP3    H170289   0.574   3.485   5.946 -0.6371 -0.9564 -1.0920
16266TIP3    H270290   0.691   3.467   5.853  0.5626  0.7599  0.0258
16267TIP3   OH270291   0.155   5.163   5.286 -0.1471  0.4545 -0.2085
16267TIP3    H170292   0.079   5.124   5.242  1.1992 -3.4283  0.4967
16267TIP3    H270293   0.139   5.147   5.379  0.7633  1.1344  0.0741
16268TIP3   OH270294   6.594   2.733   0.873 -0.5165 -0.3358  0.0607
16268TIP3    H170295   6.679   2.777   0.881 -0.8158 -0.1079  3.3014
16268TIP3    H270296   6.615   2.641   0.862  0.1212 -0.1634 -0.2382
16269TIP3   OH270297   1.129   4.858  14.231 -0.3534  0.4240 -0.6988
16269TIP3    H170298   1.135   4.804  14.152 -2.4082 -0.2825 -0.4202
16269TIP3    H270299   1.218   4.861  14.265  0.4746  0.2806 -2.7378
16270TIP3   OH270300   0.385   6.711   2.063  0.2996 -0.1057  0.2762
16270TIP3    H170301   0.290   6.721   2.059  0.2846  0.5096  1.5498
16270TIP3    H270302   0.403   6.681   2.152  1.2879 -0.4058 -0.0035
16271TIP3   OH270303   2.656   6.475   5.978 -0.0404 -0.2233  0.2054
16271TIP3    H170304   2.592   6.479   6.048 -0.2275 -1.6578  0.1375
16271TIP3    H270305   2.738   6.453   6.021  0.6288  2.2581  0.3844
16272TIP3   OH270306   4.313   1.634   0.499 -0.0593  0.4952  0.1077
16272TIP3    H170307   4.366   1.705   0.535 -2.5675  2.1874  0.8082
16272TIP3    H270308   4.315   1.649   0.405  1.2971  0.0504  0.0520
16273TIP3   OH270309   4.433   4.619   2.767  0.3282  0.0390  0.1755
16273TIP3    H170310   4.474   4.605   2.682  1.3659  0.0728  0.6583
16273TIP3    H270311   4.474   4.697   2.802  1.5210 -1.1638  1.6255
16274TIP3   OH270312   1.355   1.132  15.403  0.6809 -0.3442 -0.3020
16274TIP3    H170313   1.442   1.127  15.363 -0.1750  0.2714 -2.3735
16274TIP3    H270314   1.300   1.079  15.345 -0.4477 -0.2423  0.6574
16275TIP3   OH270315   6.808   3.031  13.823  0.1326 -0.0114  0.3146
16275TIP3    H170316   6.790   2.962  13.759  0.2192  0.9204 -0.7575
16275TIP3    H270317   6.722   3.062  13.850  0.0869 -0.8841  1.2060
16276TIP3   OH270318   4.200   2.606   0.666 -0.4407 -0.0020  0.2928
16276TIP3    H170319   4.132   2.556   0.711 -1.2169  0.3530 -0.4585
16276TIP3    H270320   4.243   2.655   0.736  0.5011 -1.8713  1.0717
16277TIP3   OH270321   1.278   3.528  12.890 -0.7624 -1.0033 -0.3791
16277TIP3    H170322   1.300   3.496  12.802 -1.2377  1.6701 -1.5656
16277TIP3    H270323   1.304   3.457  12.949 -0.6583 -2.9871 -2.6788
16278TIP3   OH270324   2.507   6.145   6.180 -0.0071 -0.6904  0.1239
16278TIP3    H170325   2.562   6.083   6.227  1.3429 -0.5165 -1.1238
16278TIP3    H270326   2.529   6.230   6.219 -0.2140 -0.7444  0.3594
16279TIP3   OH270327   0.048   6.842   0.114 -0.6568  0.3106 -0.1628
16279TIP3    H170328   0.101   6.919   0.093 -0.5294  0.8653  1.9584
16279TIP3    H270329   0.051   6.789   0.035 -0.2191  2.1821 -1.4702
16280TIP3   OH270330   6.076   2.036  12.864  0.0158 -0.6287  0.5998
16280TIP3    H170331   6.011   2.079  12.920 -0.3026 -0.1682 -0.1134
16280TIP3    H270332   6.081   2.091  12.786  0.1745 -1.4655  0.0102
16281TIP3   OH270333   2.829   4.754   3.942 -0.3455 -0.0693  0.2171
16281TIP3    H170334   2.735   4.760   3.958 -0.5415 -0.2245 -0.8307
16281TIP3    H270335   2.866   4.730   4.027 -1.2538 -0.0825  0.6212
16282TIP3   OH270336   1.628   6.855  16.194 -0.1477  0.0713 -0.1675
16282TIP3    H170337   1.669   6.895  16.270  1.8041 -1.4889 -0.3078
16282TIP3    H270338   1.537   6.887  16.195  0.0749  0.7786  2.2574
16283TIP3   OH270339   5.912   3.373   4.389 -0.8255 -0.3093  0.2649
16283TIP3    H170340   6.003   3.349   4.371 -1.3454 -0.5865 -2.2587
16283TIP3    H270341   5.882   3.307   4.452  0.8648  0.1632  1.6242
16284TIP3   OH270342   1.772   6.635  16.296  0.5702  0.0039 -0.0622
16284TIP3    H170343   1.822   6.647  16.216 -0.6111  3.0090 -0.4824
16284TIP3    H270344   1.688   6.678  16.279 -0.3260 -0.6374  2.2546
16285TIP3   OH270345   6.516   5.113  15.381 -0.3607 -0.0737 -0.1827
16285TIP3    H170346   6.442   5.080  15.432 -1.0610  1.0290 -0.4576
16285TIP3    H270347   6.592   5.067  15.417 -0.6954  1.2510  2.4477
16286TIP3   OH270348   1.833   3.557  14.775 -0.3734 -0.0250 -0.1783
16286TIP3    H170349   1.830   3.549  14.680 -1.3687  2.1689 -0.3897
16286TIP3    H270350   1.876   3.641  14.791  1.0517 -0.9936  1.3819
16287TIP3   OH270351   5.175   4.201  13.992  0.2053  0.7021 -0.4950
16287TIP3    H170352   5.158   4.249  14.073 -2.0627 -0.9919  0.1633
16287TIP3    H270353   5.096   4.217  13.939  1.8569  2.2044 -2.6906
16288TIP3   OH270354   3.383   1.828   2.938 -0.0259  0.5053 -0.5428
16288TIP3    H170355   3.451   1.776   2.896 -0.2547 -1.1679  1.0060
16288TIP3    H270356   3.426   1.910   2.962  1.8910 -0.9865  1.5418
16289TIP3   OH270357   1.103   2.623   4.955 -0.2272 -0.0073  0.1434
16289TIP3    H170358   1.109   2.528   4.948  1.6376  0.2019 -2.5278
16289TIP3    H270359   1.152   2.644   5.035 -1.2606 -1.2698  1.1550
16290TIP3   OH270360   3.687   4.897  14.516 -0.0145  0.5907  0.2165
16290TIP3    H170361   3.627   4.946  14.573  0.7125  2.4606 -0.5454
16290TIP3    H270362   3.771   4.900  14.561 -0.7769 -4.2939  2.6267
16291TIP3   OH270363   4.508   1.823  13.993  0.4835 -0.3446  0.1114
16291TIP3    H170364   4.464   1.899  14.031  0.7268  0.7716 -1.7040
16291TIP3    H270365   4.586   1.859  13.952  0.0127 -1.3584 -1.7932
16292TIP3   OH270366   3.443   4.109  14.769 -0.2143  0.0913  0.1527
16292TIP3    H170367   3.394   4.046  14.822  0.5422 -1.1430 -0.5911
16292TIP3    H270368   3.397   4.112  14.685  1.3642 -1.6575 -0.8272
16293TIP3   OH270369   5.676   1.786   0.925  0.4055  0.4527  0.5118
16293TIP3    H170370   5.664   1.692   0.939 -1.4400  0.4138 -0.9330
16293TIP3    H270371   5.770   1.800   0.936  0.8368 -1.7030  0.0683
16294TIP3   OH270372   2.815   4.980   2.564 -0.0478 -0.1165  0.5361
16294TIP3    H170373   2.838   4.986   2.657  0.2365 -0.2508  0.4746
16294TIP3    H270374   2.841   4.892   2.539  2.3329  0.7710 -0.3314
16295TIP3   OH270375   4.436   0.730  12.876  0.2299 -0.1990 -0.0189
16295TIP3    H170376   4.357   0.688  12.909  0.0473 -0.4329 -0.7605
16295TIP3    H270377   4.438   0.710  12.783  1.0865 -0.0724 -0.0356
16296TIP3   OH270378   2.271   5.862  12.479  0.3182  0.1830 -0.2567
16296TIP3    H170379   2.235   5.906  12.555  1.6193  1.4616 -0.3354
16296TIP3    H270380   2.355   5.827  12.509  1.0747  1.1271 -1.1904
16297TIP3   OH270381   5.963   2.808  13.849 -0.4207  0.9182 -0.5479
16297TIP3    H170382   5.941   2.810  13.756 -0.3296 -1.5074 -0.6826
16297TIP3    H270383   6.004   2.893  13.866 -0.8629  1.5945 -2.5912
16298TIP3   OH270384   6.600   1.945  10.300  0.2810 -0.3225 -0.9373
16298TIP3    H170385   6.689   1.931  10.332 -0.6373 -0.1883  2.0086
16298TIP3    H270386   6.596   2.039  10.284  0.8902 -0.4521 -1.9364
16299TIP3   OH270387   2.699   1.826   2.097 -0.5011  0.0682  0.1495
16299TIP3    H170388   2.683   1.858   2.186  0.4322  0.0966  0.3171
16299TIP3    H270389   2.655   1.741   2.094 -1.1360  0.3791  0.4057
16300TIP3   OH270390   2.849   3.665  11.956 -0.0480 -0.2031 -1.3370
16300TIP3    H170391   2.876   3.627  11.873  2.2806  1.6253 -1.5218
16300TIP3    H270392   2.931   3.685  12.001 -1.1672 -2.4901  2.1496
16301TIP3   OH270393   2.041   2.602  10.716 -0.6428 -0.1232  0.9387
16301TIP3    H170394   2.105   2.659  10.758  0.3213  0.0230 -0.6614
16301TIP3    H270395   1.962   2.655  10.708  0.3206  1.1612 -0.7820
16302TIP3   OH270396   0.815   5.397  12.715 -0.4927 -0.1360 -0.0064
16302TIP3    H170397   0.877   5.369  12.783  0.6447  1.0884 -0.5104
16302TIP3    H270398   0.859   5.378  12.633 -1.2630 -0.2575 -0.4065
16303TIP3   OH270399   3.080   0.901   2.024  0.8838  0.8441  0.9938
16303TIP3    H170400   2.991   0.876   2.048  0.0543  0.5040 -2.0199
16303TIP3    H270401   3.136   0.841   2.073 -0.7625 -1.7892 -0.1546
16304TIP3   OH270402   0.452   6.698   3.834  0.2414  0.4882  0.1852
16304TIP3    H170403   0.382   6.757   3.861  1.0033  0.7664  1.6276
16304TIP3    H270404   0.505   6.686   3.912  2.9846  1.9004 -1.2826
16305TIP3   OH270405   2.935   3.926   2.870  0.4200 -0.1170  0.2708
16305TIP3    H170406   2.984   3.848   2.898  0.6016 -0.7391 -1.6237
16305TIP3    H270407   2.843   3.900   2.875  0.4370 -0.1405  0.4854
16306TIP3   OH270408   4.278   2.179   1.758 -0.3153 -0.1391 -0.3068
16306TIP3    H170409   4.286   2.254   1.817 -1.2125 -1.1229  1.1705
16306TIP3    H270410   4.353   2.124   1.780  0.8363  0.6853 -2.0099
16307TIP3   OH270411   1.436   3.459  14.670  1.1779  0.3165 -0.1316
16307TIP3    H170412   1.501   3.436  14.604  1.1633 -0.1198  0.0046
16307TIP3    H270413   1.442   3.389  14.735  0.2888  0.0645 -0.3210
16308TIP3   OH270414   2.756   2.383   5.428 -0.4205  0.0398  0.2150
16308TIP3    H170415   2.742   2.468   5.387 -2.0907 -1.0367 -1.6534
16308TIP3    H270416   2.701   2.323   5.378  2.2560 -2.5461  0.1262
16309TIP3   OH270417   6.307   0.477  10.971  1.0592  0.2332 -0.1659
16309TIP3    H170418   6.288   0.457  11.062  1.7620  2.2378  0.4854
16309TIP3    H270419   6.402   0.492  10.969  1.1449 -0.3260 -1.3523
16310TIP3   OH270420   0.033   4.030  16.077 -0.6889  0.7436 -0.2048
16310TIP3    H170421   0.060   4.103  16.020  0.4742  0.6624  0.2131
16310TIP3    H270422  -0.032   3.983  16.025 -0.3987  1.2512 -1.0661
16311TIP3   OH270423   0.665   3.510  10.514 -0.4405  0.0567  0.0313
16311TIP3    H170424   0.596   3.509  10.580 -0.0349  0.5716  0.4637
16311TIP3    H270425   0.621   3.538  10.433 -0.4488  1.9065  0.6370
16312TIP3   OH270426   5.061   3.632   4.695  0.0189 -0.1676 -0.1667
16312TIP3    H170427   5.009   3.598   4.768 -2.3681 -0.7076 -2.0056
16312TIP3    H270428   5.140   3.578   4.695  0.3777  0.2025  2.2814
16313TIP3   OH270429   1.276   5.313  12.177  0.3616 -0.0892 -0.0243
16313TIP3    H170430   1.335   5.284  12.108 -0.0807  0.1217 -0.4986
16313TIP3    H270431   1.188   5.303  12.139  0.1513  0.6894  0.2509
16314TIP3   OH270432   2.452   0.968  15.655  0.6975 -0.0535  0.3702
16314TIP3    H170433   2.480   0.941  15.567 -0.4919 -1.5286  0.4119
16314TIP3    H270434   2.371   0.920  15.670  0.1545  1.2373  1.7474
16315TIP3   OH270435   6.034   0.545   4.312  0.8167 -0.0635 -0.0912
16315TIP3    H170436   6.020   0.454   4.285  1.2171 -0.3593  0.6375
16315TIP3    H270437   5.948   0.586   4.304  0.8154 -0.2646 -1.2692
16316TIP3   OH270438   5.499   5.273   6.167 -0.1989 -0.2201  0.1826
16316TIP3    H170439   5.417   5.258   6.121  0.2650  0.8508 -1.0353
16316TIP3    H270440   5.562   5.215   6.125 -0.2493 -0.8161  0.9117
16317TIP3   OH270441   4.653   5.818   2.983 -0.0013  0.1664 -0.0889
16317TIP3    H170442   4.659   5.882   2.912 -0.5806  1.7769  1.2559
16317TIP3    H270443   4.712   5.852   3.051  1.8867 -2.2400 -0.3799
16318TIP3   OH270444   5.226   4.323  14.753  0.0940 -0.1786 -0.5677
16318TIP3    H170445   5.308   4.348  14.796 -1.0327 -1.6703  2.8415
16318TIP3    H270446   5.187   4.405  14.724  0.3491  1.2274  2.6583
16319TIP3   OH270447   6.173   6.832  15.739 -0.1786  0.4486  0.2128
16319TIP3    H170448   6.220   6.886  15.803 -0.5903  1.2130 -0.1187
16319TIP3    H270449   6.197   6.869  15.654  0.6190 -0.7631 -0.1191
16320TIP3   OH270450   3.158   5.495   1.678 -0.1255  0.6785  0.3809
16320TIP3    H170451   3.144   5.578   1.631  1.0725  1.0922  0.7191
16320TIP3    H270452   3.191   5.435   1.611 -3.0700 -0.2394 -0.3734
16321TIP3   OH270453   3.251   0.913  14.132  0.3971 -0.4640 -0.2273
16321TIP3    H170454   3.191   0.944  14.064 -0.1465  0.5900  0.6882
16321TIP3    H270455   3.309   0.852  14.087 -1.6304 -1.8832 -1.0508
16322TIP3   OH270456   0.315   6.498  12.685  0.0427 -0.3852 -0.2545
16322TIP3    H170457   0.277   6.491  12.773  0.6012  1.2819  0.1646
16322TIP3    H270458   0.334   6.408  12.660  0.5817 -0.8666  1.6784
16323TIP3   OH270459   3.904   0.516  15.155 -0.4317 -0.2718  0.2339
16323TIP3    H170460   3.863   0.559  15.080 -1.7190 -1.2278  0.3589
16323TIP3    H270461   3.895   0.422  15.137 -1.3829 -0.5312  1.8710
16324TIP3   OH270462   4.972   0.339  16.509  0.2637  0.5502 -0.3879
16324TIP3    H170463   4.981   0.422  16.557 -0.3611 -0.1457  1.0007
16324TIP3    H270464   5.020   0.276  16.563  0.7440 -0.0124 -1.4387
16325TIP3   OH270465   2.692   6.706   3.502  0.2962  0.0847 -0.0306
16325TIP3    H170466   2.624   6.769   3.527  1.1715  1.1434 -0.2864
16325TIP3    H270467   2.690   6.705   3.407 -0.5187 -1.1987 -0.0316
16326TIP3   OH270468   6.107   6.366  14.521  0.1026  0.6055  0.4202
16326TIP3    H170469   6.054   6.290  14.497  0.1326  0.9644 -0.8018
16326TIP3    H270470   6.044   6.430  14.553 -0.1387  0.7782 -0.3825
16327TIP3   OH270471   1.477   0.275   4.214 -0.1949  0.1997  0.2970
16327TIP3    H170472   1.478   0.305   4.123 -2.3764  0.4714  0.3138
16327TIP3    H270473   1.489   0.355   4.265  2.3317 -0.1009  0.3075
16328TIP3   OH270474   2.128   6.787   2.294  0.1287 -0.2164  0.9309
16328TIP3    H170475   2.066   6.782   2.221 -0.1235  1.6089  0.9603
16328TIP3    H270476   2.092   6.857   2.350  1.6365  0.1324  1.4999
16329TIP3   OH270477   4.137   5.002  16.011  0.1396 -0.4960 -0.0829
16329TIP3    H170478   4.065   5.051  15.971 -0.1415  0.3197  1.3703
16329TIP3    H270479   4.134   4.917  15.968  0.2300  0.4969 -2.2179
16330TIP3   OH270480   2.995   4.729  12.473 -0.3344 -0.1351 -0.2385
16330TIP3    H170481   2.995   4.689  12.560  0.1736  1.1390  0.3753
16330TIP3    H270482   2.918   4.785  12.472 -0.9790 -1.0047 -1.0485
16331TIP3   OH270483   6.531   1.161  11.222  0.1125  0.0327  0.7455
16331TIP3    H170484   6.568   1.183  11.137 -0.4384 -0.3203  0.4096
16331TIP3    H270485   6.558   1.070  11.238  2.0040  0.7426  1.9263
16332TIP3   OH270486   4.313   4.503  14.614  0.6245  0.1907  0.0462
16332TIP3    H170487   4.328   4.408  14.619  2.6509  0.3369 -1.8981
16332TIP3    H270488   4.365   4.538  14.686 -1.5344 -0.2045  1.9155
16333TIP3   OH270489   6.768   5.471   1.538  0.0056 -0.5488  0.1419
16333TIP3    H170490   6.723   5.387   1.541 -0.0155 -0.6553 -1.8122
16333TIP3    H270491   6.752   5.503   1.449 -0.6626  1.8981  1.0599
16334TIP3   OH270492   0.600   5.043   2.006  0.4991  0.1972 -0.4496
16334TIP3    H170493   0.639   5.067   1.922  1.8472 -2.3533 -0.6711
16334TIP3    H270494   0.666   4.989   2.049 -0.6976  0.2766  1.6650
16335TIP3   OH270495   6.674   6.208  15.974  0.0297 -0.3611  0.5666
16335TIP3    H170496   6.611   6.148  15.935  2.7561 -2.7556 -0.4557
16335TIP3    H270497   6.632   6.238  16.055 -3.0610 -0.4221 -0.8592
16336TIP3   OH270498   4.934   2.216   1.273  0.0249 -0.6781 -0.5764
16336TIP3    H170499   4.954   2.123   1.258  0.9561 -0.7962  1.1264
16336TIP3    H270500   4.841   2.216   1.295  0.0937 -1.2766 -0.2372
16337TIP3   OH270501   1.525   5.758  11.544 -0.0319 -0.0934  0.5430
16337TIP3    H170502   1.515   5.793  11.632  0.7770  1.7831 -0.0734
16337TIP3    H270503   1.448   5.791  11.496  0.4597  0.4151  0.0917
16338TIP3   OH270504   2.542   6.111  12.018  0.0775  0.1317  0.2417
16338TIP3    H170505   2.598   6.069  12.084  0.6504  1.1240  0.3992
16338TIP3    H270506   2.482   6.041  11.990  2.8455 -1.6779 -1.6598
16339TIP3   OH270507   5.515   0.959  12.266 -0.0722 -0.0772 -0.2551
16339TIP3    H170508   5.554   0.895  12.326 -1.4117 -1.6879 -1.0065
16339TIP3    H270509   5.426   0.970  12.298 -0.3279  0.2154 -1.0412
16340TIP3   OH270510   0.153   5.066   2.532 -0.3420 -0.4769 -0.0081
16340TIP3    H170511   0.172   5.095   2.621 -1.8110 -2.7067  1.1282
16340TIP3    H270512   0.235   5.024   2.503  0.1893  0.3917  0.2010
16341TIP3   OH270513   0.518   1.347   0.741  0.1468 -0.5496 -0.4506
16341TIP3    H170514   0.491   1.292   0.815 -1.0406  0.2741 -0.2474
16341TIP3    H270515   0.606   1.377   0.765  0.3312 -1.3958 -0.0233
16342TIP3   OH270516   0.361   4.257  11.243 -0.1855  0.6862  0.1651
16342TIP3    H170517   0.309   4.248  11.322 -0.9270 -1.4957 -0.4964
16342TIP3    H270518   0.331   4.186  11.186  1.8976  0.7854 -1.1703
16343TIP3   OH270519   3.176   1.759   3.193 -0.0221 -0.3609 -0.1062
16343TIP3    H170520   3.146   1.813   3.266  0.0432  0.2227 -0.5071
16343TIP3    H270521   3.217   1.820   3.132 -0.0111 -0.8502 -0.6044
16344TIP3   OH270522   2.981   3.892  12.759  0.2410  0.2369  0.1800
16344TIP3    H170523   3.067   3.935  12.759 -0.1696  1.0761  1.3031
16344TIP3    H270524   2.924   3.952  12.711  0.0012  0.2518  0.4828
16345TIP3   OH270525   5.796   0.317   5.822 -0.1195  0.7549  0.2269
16345TIP3    H170526   5.838   0.343   5.904  1.9151 -1.8968  0.1589
16345TIP3    H270527   5.751   0.235   5.843  0.1401  0.2187 -1.2364
16346TIP3   OH270528   1.553   1.001  11.572  0.1214 -0.2954 -0.0905
16346TIP3    H170529   1.577   0.917  11.534  2.6068  0.7542 -1.0206
16346TIP3    H270530   1.632   1.030  11.618 -0.9696  1.1405  0.9751
16347TIP3   OH270531   2.660   3.237  10.645 -0.4765 -0.1993 -0.0325
16347TIP3    H170532   2.738   3.183  10.630 -0.4418 -0.3061  0.5053
16347TIP3    H270533   2.695   3.327  10.651 -0.5902 -0.0527 -1.3910
16348TIP3   OH270534   4.958   3.897   2.183 -0.3566  0.1316 -0.3332
16348TIP3    H170535   5.026   3.962   2.167 -0.6588  0.7096  0.6456
16348TIP3    H270536   4.965   3.836   2.109  0.0694  1.1481 -1.1453
16349TIP3   OH270537   1.831   3.834   5.367  0.0711  0.4374 -0.2310
16349TIP3    H170538   1.743   3.869   5.377 -0.0447  0.2885 -0.7054
16349TIP3    H270539   1.868   3.883   5.294 -0.3122 -0.8313 -1.3157
16350TIP3   OH270540   6.509   5.469  12.881  0.3965  0.4303 -0.3985
16350TIP3    H170541   6.421   5.500  12.859  0.8423  0.2979 -2.5583
16350TIP3    H270542   6.532   5.518  12.960 -1.3480  0.9472 -0.1600
16351TIP3   OH270543   1.256   6.103  13.114  0.0041  0.9842  0.2417
16351TIP3    H170544   1.224   6.171  13.173  0.8050  0.9819  0.6793
16351TIP3    H270545   1.334   6.068  13.156  0.3234  0.6568 -0.5951
16352TIP3   OH270546   4.358   5.973  14.656  0.0242 -0.1547 -0.0626
16352TIP3    H170547   4.304   5.957  14.733 -0.3528  0.9882 -0.0708
16352TIP3    H270548   4.306   5.941  14.582 -0.4483  0.4790 -0.0186
16353TIP3   OH270549   5.075   2.993  10.525  0.6134  0.2810  1.3487
16353TIP3    H170550   5.060   2.918  10.583 -0.1789  0.2021  1.0565
16353TIP3    H270551   5.065   3.069  10.581  1.7198  0.1842  1.7151
16354TIP3   OH270552   3.227   0.000   2.648  0.1187  0.0856  0.2553
16354TIP3    H170553   3.306   0.016   2.595 -0.3542  0.2712 -0.3999
16354TIP3    H270554   3.261  -0.022   2.735  0.9027 -0.1412 -0.0995
16355TIP3   OH270555   3.790   0.841   2.693  0.3286 -1.0013 -0.0312
16355TIP3    H170556   3.850   0.812   2.625  0.0228 -0.1287 -0.7039
16355TIP3    H270557   3.837   0.911   2.738  1.2206 -2.7342  1.8379
16356TIP3   OH270558   5.833   0.700   1.697 -0.3970  0.2556 -0.2114
16356TIP3    H170559   5.903   0.750   1.655 -0.4218  1.0357  0.6461
16356TIP3    H270560   5.853   0.704   1.790 -2.7017  2.2928  0.2876
16357TIP3   OH270561   6.575   5.350   4.216  0.7103  0.5066 -0.5730
16357TIP3    H170562   6.628   5.398   4.152  1.0179  0.9955  0.0356
16357TIP3    H270563   6.501   5.407   4.234  0.7541  0.4837 -0.3111
16358TIP3   OH270564   0.791   0.298  15.402 -0.0448 -0.0352 -0.4455
16358TIP3    H170565   0.782   0.206  15.379 -1.5436  0.0620 -0.3685
16358TIP3    H270566   0.875   0.304  15.448 -0.1485 -1.4503 -0.0366
16359TIP3   OH270567   3.016   2.111   3.136 -0.0751  0.3303 -0.1372
16359TIP3    H170568   2.986   2.075   3.219  0.7187 -1.1815 -0.4735
16359TIP3    H270569   2.956   2.076   3.071  0.9619 -0.7888 -0.5232
16360TIP3   OH270570   4.727   2.233  12.873 -0.4800  0.1513 -0.0380
16360TIP3    H170571   4.666   2.304  12.855  0.1179  0.8864  0.7963
16360TIP3    H270572   4.703   2.164  12.810 -4.0436 -0.7774  2.1110
16361TIP3   OH270573   5.541   0.832   4.893 -0.2743  0.4918  0.4603
16361TIP3    H170574   5.590   0.823   4.812  0.5933 -1.1093  1.1200
16361TIP3    H270575   5.449   0.835   4.865  0.0417  0.5235 -0.6082
16362TIP3   OH270576   0.844   3.219  13.593  0.1546  0.2883 -0.0955
16362TIP3    H170577   0.859   3.242  13.501  2.5549  1.7145  0.5786
16362TIP3    H270578   0.887   3.135  13.604 -0.6860 -0.1981 -0.3800
16363TIP3   OH270579   0.541   3.490   5.118 -0.6477 -0.3560  0.1916
16363TIP3    H170580   0.463   3.516   5.167 -1.1406  0.9949 -1.2107
16363TIP3    H270581   0.538   3.544   5.039  1.2202 -0.9593 -0.3361
16364TIP3   OH270582   0.808   3.707   2.608 -0.6489 -0.5303 -0.1626
16364TIP3    H170583   0.729   3.670   2.647 -0.3606 -0.6315  0.3286
16364TIP3    H270584   0.813   3.667   2.522 -0.5289 -1.3731  0.2248
16365TIP3   OH270585   5.568   0.190   5.719 -0.3418 -0.0758  0.1278
16365TIP3    H170586   5.620   0.132   5.774 -0.4870  0.0130  0.3589
16365TIP3    H270587   5.626   0.264   5.699 -0.5505  0.2794  0.8201
16366TIP3   OH270588   6.149   5.358   0.714  0.8518 -0.3597 -0.1287
16366TIP3    H170589   6.152   5.262   0.711 -0.0624 -0.5781  2.6496
16366TIP3    H270590   6.151   5.378   0.808  0.8123  2.3531 -0.6453
16367TIP3   OH270591   5.057   3.476   6.457  0.1462  0.0495  0.9203
16367TIP3    H170592   5.147   3.496   6.481  0.7182 -1.2083 -0.0424
16367TIP3    H270593   5.049   3.382   6.471 -0.4772 -0.1566 -0.6150
16368TIP3   OH270594   2.624   5.209   2.345 -0.0249  0.7876 -0.3044
16368TIP3    H170595   2.571   5.280   2.307 -0.2727 -0.1055 -1.6994
16368TIP3    H270596   2.568   5.132   2.339 -0.0115  0.5497  1.7953
16369TIP3   OH270597   3.846   2.772   1.454 -0.2312 -0.1417  0.5119
16369TIP3    H170598   3.774   2.719   1.419 -0.3025 -0.0388  0.5008
16369TIP3    H270599   3.911   2.708   1.483 -0.1877 -0.2269  0.2238
16370TIP3   OH270600   1.448   0.442   4.476 -0.5543  0.6748 -0.0742
16370TIP3    H170601   1.401   0.504   4.532  0.3069 -0.5655  2.1291
16370TIP3    H270602   1.522   0.492   4.442 -0.3836  1.1278  0.9236
16371TIP3   OH270603   0.929   6.701  15.215 -0.4426  0.1914 -0.5081
16371TIP3    H170604   0.872   6.732  15.145 -1.3817  2.6615  1.1912
16371TIP3    H270605   0.870   6.670  15.283  0.3921 -0.7046 -0.1640
16372TIP3   OH270606   2.044   3.626  12.607  0.1475 -0.2249  0.1856
16372TIP3    H170607   2.010   3.679  12.536  4.0804  1.3943 -0.7695
16372TIP3    H270608   1.996   3.655  12.684  0.3247  2.9734 -0.7667
16373TIP3   OH270609   4.402   0.361   0.741  0.2260  0.2312  0.5281
16373TIP3    H170610   4.410   0.266   0.751 -0.8765 -0.1998 -1.8909
16373TIP3    H270611   4.480   0.396   0.783  1.2413 -1.8385  0.5070
16374TIP3   OH270612   1.145   5.748   3.449 -0.4057  0.4590 -0.1910
16374TIP3    H170613   1.154   5.805   3.525  0.0250  0.2960 -0.1171
16374TIP3    H270614   1.050   5.746   3.432 -0.5320  0.2910  0.4961
16375TIP3   OH270615   6.544   6.306   1.780  0.4391 -0.6926 -0.2875
16375TIP3    H170616   6.544   6.211   1.766  0.6974 -0.7747  0.2310
16375TIP3    H270617   6.625   6.336   1.739  0.8563 -0.8410  0.3947
16376TIP3   OH270618   1.694   3.867  10.846  0.1803  0.4228 -0.2969
16376TIP3    H170619   1.685   3.796  10.783 -1.6547 -0.6547  1.0869
16376TIP3    H270620   1.608   3.909  10.847 -0.1417 -0.1369  2.0473
16377TIP3   OH270621   3.283   4.789   5.526  0.4493 -0.1482 -0.5994
16377TIP3    H170622   3.194   4.796   5.561  0.4956  0.3463 -0.5847
16377TIP3    H270623   3.332   4.742   5.594  0.1071 -0.7935 -0.7815
16378TIP3   OH270624   2.785   3.113  11.937  0.0808  0.0169 -0.0973
16378TIP3    H170625   2.751   3.190  11.983  2.2099 -1.0158  3.5593
16378TIP3    H270626   2.707   3.067  11.906 -1.3647  1.9448  0.5001
16379TIP3   OH270627   6.258   5.204   1.571 -0.7056  0.3528  0.6676
16379TIP3    H170628   6.271   5.195   1.477 -2.4311 -1.5116  0.5360
16379TIP3    H270629   6.166   5.228   1.580 -1.0095 -1.0864  1.8795
16380TIP3   OH270630   0.974   0.536  11.431 -0.0157  0.3775 -0.9022
16380TIP3    H170631   0.963   0.631  11.424  2.3351  0.7778 -0.1593
16380TIP3    H270632   1.068   0.524  11.444 -0.6091 -1.7075  3.4673
16381TIP3   OH270633   2.186   1.967  11.886 -0.5195  0.2334 -0.1938
16381TIP3    H170634   2.128   1.902  11.926 -2.5517  0.0183 -3.1785
16381TIP3    H270635   2.262   1.917  11.856 -1.0953 -0.4150 -0.5968
16382TIP3   OH270636   6.284   5.532   6.151 -0.1063 -0.1842  0.0802
16382TIP3    H170637   6.260   5.565   6.238  0.7733 -1.9595  1.0534
16382TIP3    H270638   6.207   5.484   6.122 -0.0297 -0.4721  0.3488
16383TIP3   OH270639   6.689   6.761   1.314 -0.6852 -0.2575 -0.0976
16383TIP3    H170640   6.665   6.674   1.346 -1.9584  0.3511  0.7110
16383TIP3    H270641   6.734   6.802   1.387  0.5808 -0.4650 -0.7289
16384TIP3   OH270642   4.965   5.829   2.390  0.0788  0.0111 -0.0699
16384TIP3    H170643   4.920   5.913   2.389  1.7752  1.0359  1.7056
16384TIP3    H270644   5.038   5.840   2.329  1.6019  0.7023  1.7634
16385TIP3   OH270645   2.090   3.104  13.433  0.1863  0.3753  0.2866
16385TIP3    H170646   2.018   3.152  13.393  0.3727  1.1458  0.8711
16385TIP3    H270647   2.159   3.105  13.366 -1.1083 -2.4693 -1.3092
16386TIP3   OH270648   3.319   0.267   2.486 -0.0818  0.0544 -0.1176
16386TIP3    H170649   3.354   0.287   2.399  1.3743 -1.6864 -0.0034
16386TIP3    H270650   3.367   0.325   2.545  0.6430 -0.3844 -0.2586
16387TIP3   OH270651   2.716   6.419  16.058 -0.1885 -0.0134  0.0123
16387TIP3    H170652   2.739   6.512  16.060 -0.2733 -0.0085  1.7291
16387TIP3    H270653   2.698   6.396  16.149  1.5571 -2.1471 -0.0776
16388TIP3   OH270654   3.246   1.762  12.066  0.7002 -0.7120 -0.3756
16388TIP3    H170655   3.199   1.812  12.132 -0.6966 -0.0380 -1.7936
16388TIP3    H270656   3.334   1.750  12.102  0.0784 -0.1218  1.4379
16389TIP3   OH270657   3.628   3.686  11.725 -0.4183  0.1600 -0.4590
16389TIP3    H170658   3.690   3.653  11.660 -0.1582 -1.6585  0.6683
16389TIP3    H270659   3.553   3.627  11.720 -1.7983  1.8609 -1.2427
16390TIP3   OH270660   2.300   2.633  12.770  0.1086 -0.3370  0.4106
16390TIP3    H170661   2.230   2.686  12.733 -0.5061 -1.0929  0.4568
16390TIP3    H270662   2.308   2.664  12.861  0.3278  0.2323  0.2014
16391TIP3   OH270663   2.919   5.660   3.456  0.3897  0.2151  0.3103
16391TIP3    H170664   2.835   5.672   3.412 -0.0738  1.5656  1.4878
16391TIP3    H270665   2.912   5.574   3.499  0.2025 -0.3389 -0.7825
16392TIP3   OH270666   0.586   4.142  12.804  0.0542 -0.3765 -0.3196
16392TIP3    H170667   0.506   4.177  12.844  0.6762 -0.5670  1.1207
16392TIP3    H270668   0.566   4.050  12.787  0.0797 -0.5062  0.3468
16393TIP3   OH270669   3.082   0.791  15.304 -0.1143 -0.5993  0.3802
16393TIP3    H170670   3.117   0.823  15.221  0.0380 -1.8055 -0.0461
16393TIP3    H270671   3.083   0.867  15.362 -0.3539  0.2958 -0.7624
16394TIP3   OH270672   1.961   4.146  16.999  0.2162 -0.0177 -0.5957
16394TIP3    H170673   2.040   4.123  17.048  0.1433  0.2748 -0.3425
16394TIP3    H270674   1.939   4.066  16.950 -0.0866 -0.5285  0.3518
16395TIP3   OH270675   5.962   2.214  13.016 -0.1151 -0.2649  0.2024
16395TIP3    H170676   5.877   2.172  13.011  0.5704 -1.9216  1.7179
16395TIP3    H270677   5.944   2.306  12.996 -1.9934 -0.8345 -1.0164
16396TIP3   OH270678   6.229   2.027  13.679  0.4651  0.3299  0.0220
16396TIP3    H170679   6.202   2.084  13.606  0.4797  0.9409  0.4847
16396TIP3    H270680   6.258   2.088  13.747  2.3191 -0.2740 -0.1639
16397TIP3   OH270681   4.228   2.017  11.628  0.0002 -0.4927 -0.8239
16397TIP3    H170682   4.315   2.012  11.587  0.2047  1.5074 -0.7394
16397TIP3    H270683   4.168   1.984  11.561  0.5252  0.9562 -2.0709
16398TIP3   OH270684   3.657   1.818  14.645 -0.5876 -0.2753  0.0183
16398TIP3    H170685   3.634   1.743  14.700 -2.2079  1.1389  1.3229
16398TIP3    H270686   3.619   1.894  14.688 -0.0758  1.1853 -1.9384
16399TIP3   OH270687   6.850   1.924   5.973 -0.6824 -0.3246  0.3243
16399TIP3    H170688   6.796   1.845   5.972 -1.1144 -0.0646  1.4309
16399TIP3    H270689   6.873   1.936   6.065  0.5722  0.0493 -0.0156
16400TIP3   OH270690   0.529   0.962  10.889  0.3714 -0.1813 -0.0244
16400TIP3    H170691   0.570   0.879  10.867  0.1475 -0.9872  2.2979
16400TIP3    H270692   0.468   0.941  10.960 -0.1898  1.8506  0.1810
16401TIP3   OH270693   4.286   3.241   0.544 -0.1254  0.0421  0.0891
16401TIP3    H170694   4.375   3.206   0.540  1.1073  2.8059  0.5826
16401TIP3    H270695   4.298   3.336   0.532 -3.2900  0.2584 -2.6149
16402TIP3   OH270696   6.366   6.673  13.413  0.4945 -0.0961  0.3063
16402TIP3    H170697   6.394   6.606  13.476  0.3225 -1.0553 -0.6008
16402TIP3    H270698   6.431   6.742  13.422  1.0165 -0.6354  0.8652
16403TIP3   OH270699   1.101   0.445   1.831  0.0162 -0.6960 -0.0295
16403TIP3    H170700   1.125   0.378   1.895  0.8472 -1.2316 -0.8599
16403TIP3    H270701   1.138   0.526   1.866  2.4838 -1.3674 -0.8712
16404TIP3   OH270702   3.357   1.994   5.104  0.0248 -0.7871  0.1398
16404TIP3    H170703   3.312   2.017   5.023  0.0580 -1.6938 -0.1513
16404TIP3    H270704   3.411   1.918   5.080  1.0695 -0.2328  0.6827
16405TIP3   OH270705   5.549   5.921  13.854  0.3377 -0.6802  0.2228
16405TIP3    H170706   5.464   5.895  13.891 -0.4045  0.1627 -0.8222
16405TIP3    H270707   5.556   5.873  13.772  1.0901 -1.0819  0.5152
16406TIP3   OH270708   4.758   2.079  10.453  0.1999 -0.4268  0.2711
16406TIP3    H170709   4.816   2.099  10.379  0.5152 -0.9746  0.3645
16406TIP3    H270710   4.687   2.028  10.414  1.6182 -2.8893  0.6926
16407TIP3   OH270711   3.639   5.106  11.594  0.2637  0.0134  0.0347
16407TIP3    H170712   3.600   5.111  11.506 -1.9583  0.1849  0.9588
16407TIP3    H270713   3.715   5.050  11.583 -0.9969 -1.5048 -1.6818
16408TIP3   OH270714   0.944   4.487  13.334  0.7340 -0.1881 -0.0421
16408TIP3    H170715   0.965   4.508  13.425  1.1351 -0.9068  0.0408
16408TIP3    H270716   0.906   4.399  13.338  1.8110 -0.6976 -0.6906
16409TIP3   OH270717   0.498   2.092  11.530 -0.2413 -0.4396 -0.8084
16409TIP3    H170718   0.432   2.053  11.473 -1.8681  0.8848  0.0769
16409TIP3    H270719   0.480   2.186  11.527  1.1890 -0.1114 -0.0225
16410TIP3   OH270720   0.515   1.572   1.290  0.2052 -0.4026 -0.1183
16410TIP3    H170721   0.552   1.629   1.222 -1.8953 -0.1917 -1.1853
16410TIP3    H270722   0.519   1.625   1.370 -0.0015  0.5413 -0.7103
16411TIP3   OH270723   1.616   0.711   2.840  0.3734 -0.1723 -0.5565
16411TIP3    H170724   1.647   0.673   2.922  1.2162 -1.5965 -1.4964
16411TIP3    H270725   1.520   0.704   2.845  0.4666 -3.3938 -1.0486
16412TIP3   OH270726   1.545   6.141   4.821  0.4616  0.0885  0.2592
16412TIP3    H170727   1.521   6.083   4.749  0.7082  1.5080 -1.0403
16412TIP3    H270728   1.494   6.110   4.896 -0.5375 -0.8594 -0.7824
16413TIP3   OH270729   5.649   4.373   4.286 -0.1256  0.4606  0.3915
16413TIP3    H170730   5.669   4.391   4.378  1.8062 -0.2407  0.1512
16413TIP3    H270731   5.733   4.378   4.242 -0.4861 -2.3592 -0.8027
16414TIP3   OH270732   4.882   5.732   5.716  0.7558 -0.7041 -0.6588
16414TIP3    H170733   4.905   5.736   5.623  0.0178 -0.4575 -0.8354
16414TIP3    H270734   4.842   5.816   5.735  1.1379 -0.6556 -0.0474
16415TIP3   OH270735   6.405   3.419   0.909  0.1526 -0.2193  0.3397
16415TIP3    H170736   6.315   3.394   0.889  0.7070 -0.8561 -1.7005
16415TIP3    H270737   6.449   3.336   0.927  0.4873  0.0037  0.5509
16416TIP3   OH270738   5.931   0.792  13.615 -0.2438  0.1165  0.4698
16416TIP3    H170739   5.873   0.784  13.540  0.1017 -0.0740  0.2172
16416TIP3    H270740   5.886   0.851  13.675 -0.7683 -0.1636  0.3505
16417TIP3   OH270741   3.844   4.342   2.454  0.0189 -0.3500  0.0569
16417TIP3    H170742   3.839   4.430   2.492  0.8283  0.0750 -0.7749
16417TIP3    H270743   3.930   4.340   2.410  0.3209 -1.7973  0.6529
16418TIP3   OH270744   4.227   0.414  15.036 -0.2265 -0.3957 -0.7402
16418TIP3    H170745   4.225   0.364  14.954 -1.3068 -2.0346  0.2202
16418TIP3    H270746   4.200   0.351  15.103  1.2490  0.7053  0.9995
16419TIP3   OH270747   0.613   5.350  15.996 -0.1875  0.6610  0.3397
16419TIP3    H170748   0.707   5.357  16.011 -0.2168 -1.1123  1.8129
16419TIP3    H270749   0.575   5.349  16.084 -1.3109 -1.2721 -0.1039
16420TIP3   OH270750   1.313   2.189   2.960  0.3057  0.5811  0.0917
16420TIP3    H170751   1.383   2.186   3.026  0.4370  0.8490 -0.0349
16420TIP3    H270752   1.234   2.165   3.008  0.1410  2.2034  0.6942
16421TIP3   OH270753   1.416   4.150   1.693  0.1654 -0.5655  0.9201
16421TIP3    H170754   1.455   4.125   1.776 -0.8276 -1.5346  1.1233
16421TIP3    H270755   1.363   4.075   1.668 -0.0059 -0.0669 -0.3152
16422TIP3   OH270756   4.840   3.936  11.247 -0.3795  0.3943  0.3836
16422TIP3    H170757   4.864   3.854  11.203  0.2807  1.3142 -1.0537
16422TIP3    H270758   4.902   3.942  11.321  1.2978  0.7982 -0.9873
16423TIP3   OH270759   6.543   4.404  11.449 -0.1110  0.0695  0.1451
16423TIP3    H170760   6.563   4.446  11.533 -1.1340 -1.5884  1.2809
16423TIP3    H270761   6.448   4.393  11.450 -0.2371  0.7328 -1.6207
16424TIP3   OH270762   3.169   0.901  12.059 -0.0316 -0.1428 -0.1877
16424TIP3    H170763   3.185   0.927  11.968 -0.0521  0.7215  0.0446
16424TIP3    H270764   3.107   0.829  12.053  2.1762 -2.1174 -1.0043
16425TIP3   OH270765   2.364   3.199  17.074 -0.0173 -0.5189 -0.0175
16425TIP3    H170766   2.402   3.167  17.155 -0.1036 -0.4650  0.0433
16425TIP3    H270767   2.272   3.172  17.077  0.2097 -1.3658 -0.5402
16426TIP3   OH270768   4.709   5.451   4.947 -0.2694  0.1102  0.2100
16426TIP3    H170769   4.760   5.408   4.878 -0.3701  1.3782 -0.6944
16426TIP3    H270770   4.649   5.384   4.978 -0.3307 -0.4529 -1.0657
16427TIP3   OH270771   4.559   2.336   3.237  0.7765 -0.0594  0.1244
16427TIP3    H170772   4.533   2.367   3.324 -0.4663  0.5648 -0.4353
16427TIP3    H270773   4.475   2.320   3.192  1.3296 -3.1741 -0.0161
16428TIP3   OH270774   2.674   0.090  14.625 -0.5289  0.1382 -0.5869
16428TIP3    H170775   2.652   0.009  14.671 -0.9455 -1.0830 -2.8036
16428TIP3    H270776   2.640   0.160  14.682  1.4510 -1.0430  2.2962
16429TIP3   OH270777   3.037   3.039  11.955 -0.0308  0.4826 -0.1976
16429TIP3    H170778   2.941   3.042  11.952 -0.0448 -0.0983 -0.8667
16429TIP3    H270779   3.062   3.004  11.869  0.8865  2.5943 -0.8590
16430TIP3   OH270780   3.652   0.053   0.057 -0.1034 -0.3855 -0.2832
16430TIP3    H170781   3.560   0.068   0.078 -0.3443 -2.0526 -0.0340
16430TIP3    H270782   3.676  -0.026   0.106  1.7121  0.4953  0.3542
16431TIP3   OH270783   2.324   4.837  11.710 -0.2996 -0.2554  0.4405
16431TIP3    H170784   2.235   4.802  11.699 -0.5243 -0.0883  1.5579
16431TIP3    H270785   2.329   4.860  11.803  1.1218 -0.8054  0.5193
16432TIP3   OH270786   4.341   2.941  12.708  0.4122  0.1288  0.1405
16432TIP3    H170787   4.324   3.005  12.639 -0.3667 -0.1936  0.0212
16432TIP3    H270788   4.287   2.970  12.781  0.1411 -0.3164  0.1239
16433TIP3   OH270789   0.740   0.301  12.447  0.1013 -0.3896  0.0578
16433TIP3    H170790   0.740   0.384  12.494  2.2314  0.0446 -0.6247
16433TIP3    H270791   0.652   0.295  12.409  0.1455  1.9315 -0.5520
16434TIP3   OH270792   5.521   4.147   5.272  0.0126 -0.0746 -0.1602
16434TIP3    H170793   5.578   4.224   5.266  1.5286 -1.1480 -0.2729
16434TIP3    H270794   5.433   4.181   5.258  0.5339  1.7652  0.6453
16435TIP3   OH270795   2.264   4.661  12.928  0.3306  0.0489 -0.3013
16435TIP3    H170796   2.180   4.638  12.969  1.0623 -0.8430  0.7370
16435TIP3    H270797   2.318   4.692  13.000  1.0107  0.3126 -0.9157
16436TIP3   OH270798   3.855   0.538   3.603  0.3115  0.4694 -0.2702
16436TIP3    H170799   3.766   0.533   3.569  0.3580 -0.4341 -0.2849
16436TIP3    H270800   3.847   0.589   3.683 -0.2096  0.4477 -0.3043
16437TIP3   OH270801   3.110   2.960   2.262 -0.3344 -0.0154  0.4957
16437TIP3    H170802   3.076   3.044   2.291  2.4487  1.3637  0.0507
16437TIP3    H270803   3.153   2.924   2.340 -1.4405 -1.0347  0.6637
16438TIP3   OH270804   2.084   1.495  17.078 -0.0609 -0.0532 -0.3441
16438TIP3    H170805   2.178   1.506  17.093 -0.1566 -0.4143  0.5369
16438TIP3    H270806   2.042   1.534  17.154 -0.6058 -0.4124 -0.4536
16439TIP3   OH270807   5.255   6.138   0.858  0.0066 -0.1877  0.7386
16439TIP3    H170808   5.253   6.220   0.808 -0.6021 -0.0886  0.9152
16439TIP3    H270809   5.330   6.147   0.916 -0.4511  0.5378  1.2385
16440TIP3   OH270810   0.811   5.026   0.244  0.6585 -0.2417  0.1851
16440TIP3    H170811   0.770   4.962   0.186 -0.1274 -1.1119  1.6529
16440TIP3    H270812   0.781   5.002   0.332  2.1847  0.7587  1.0188
16441TIP3   OH270813   6.725   0.284   0.254 -0.1521  0.2071 -0.1803
16441TIP3    H170814   6.818   0.261   0.251 -0.0244  0.5792  0.5966
16441TIP3    H270815   6.712   0.320   0.342 -1.2371 -0.7503  0.0804
16442TIP3   OH270816   1.666   2.211   2.216 -0.0001 -0.3373  0.3493
16442TIP3    H170817   1.676   2.195   2.122 -2.5645 -0.5382  0.0249
16442TIP3    H270818   1.740   2.167   2.256  0.2207 -1.7576 -1.4674
16443TIP3   OH270819   6.470   2.598   0.301 -0.0098  0.6957  0.2412
16443TIP3    H170820   6.455   2.529   0.366  2.1601  1.0043  1.1530
16443TIP3    H270821   6.448   2.557   0.218  0.6807 -0.9549  0.8141
16444TIP3   OH270822   0.052   3.002  10.413  0.3604 -0.2921  0.0300
16444TIP3    H170823   0.072   2.909  10.425  0.2657 -0.2583  0.4622
16444TIP3    H270824   0.137   3.045  10.414  0.4070 -0.3776 -0.2062
16445TIP3   OH270825   5.878   2.180   6.957 -0.0718  0.4247 -0.0393
16445TIP3    H170826   5.925   2.210   6.879 -0.1716 -0.2270 -0.3616
16445TIP3    H270827   5.884   2.253   7.018  4.0773 -0.6376  1.1417
16446TIP3   OH270828   2.309   4.899  14.611 -0.1416  0.0415 -0.2503
16446TIP3    H170829   2.314   4.918  14.705 -0.0353  0.1575 -0.2799
16446TIP3    H270830   2.302   4.803  14.607  3.5571 -0.4111 -0.2204
16447TIP3   OH270831   0.915   2.830   4.968 -0.6613  0.0185 -0.2641
16447TIP3    H170832   0.939   2.847   4.877 -1.9688 -0.6350 -0.7519
16447TIP3    H270833   0.939   2.738   4.982  1.5038  0.6777  0.7392
16448TIP3   OH270834   0.553   6.748  12.044 -0.5020  0.0997  0.0022
16448TIP3    H170835   0.606   6.689  12.097 -1.0763 -0.5390 -0.1311
16448TIP3    H270836   0.465   6.712  12.047 -0.8733  0.9724 -0.0533
16449TIP3   OH270837   3.321   2.302  13.808 -0.6968 -0.4801  0.1654
16449TIP3    H170838   3.305   2.250  13.729 -0.5712 -0.8702  0.3930
16449TIP3    H270839   3.377   2.247  13.862  0.6222  0.4707 -0.1884
16450TIP3   OH270840   3.726   4.417  10.323  0.7420 -0.2650  0.2881
16450TIP3    H170841   3.656   4.479  10.341 -0.7349 -2.4693  2.7620
16450TIP3    H270842   3.681   4.338  10.293  2.1562 -1.5838  1.4655
16451TIP3   OH270843   5.584   3.725  11.732 -0.2884  0.5784 -0.0942
16451TIP3    H170844   5.578   3.640  11.689  1.1297  0.8413 -0.8643
16451TIP3    H270845   5.555   3.788  11.667 -2.6434  0.6266  0.9067
16452TIP3   OH270846   0.189   3.314  15.385 -0.1033 -0.0343  0.2511
16452TIP3    H170847   0.210   3.384  15.324  0.4355 -2.8537 -3.1235
16452TIP3    H270848   0.268   3.304  15.438  0.5172  0.6799 -0.5073
16453TIP3   OH270849   2.549   1.202  15.350  0.9409 -0.5730 -0.1415
16453TIP3    H170850   2.495   1.134  15.311  1.3744 -0.5334 -0.8127
16453TIP3    H270851   2.624   1.211  15.292  1.9408 -0.9761  1.0445
16454TIP3   OH270852   1.137   1.511   2.678 -1.0399 -0.1533  0.0462
16454TIP3    H170853   1.050   1.550   2.680 -0.5700  1.0271  2.8127
16454TIP3    H270854   1.192   1.574   2.726  0.6486 -2.3375  1.1324
16455TIP3   OH270855   3.696   1.706   0.077  0.0995 -0.1392 -0.0838
16455TIP3    H170856   3.770   1.740   0.027  0.6688 -1.1886  0.0347
16455TIP3    H270857   3.715   1.729   0.168  0.2387 -0.3277 -0.0649
16456TIP3   OH270858   2.632   5.845  14.274 -0.3665 -0.5876  0.2256
16456TIP3    H170859   2.559   5.800  14.316 -1.1746  0.7901  0.3594
16456TIP3    H270860   2.655   5.915  14.335  2.5464 -2.2465  1.2442
16457TIP3   OH270861   4.762   5.021  16.026 -0.3143 -0.6844  0.6748
16457TIP3    H170862   4.740   5.065  15.944 -0.2820  0.2150  1.1324
16457TIP3    H270863   4.761   4.928  16.005  0.4041 -0.4438 -0.5212
16458TIP3   OH270864   4.444   0.630  13.419 -0.4874 -0.6158 -0.4489
16458TIP3    H170865   4.493   0.656  13.341 -0.6485 -1.2043 -0.7526
16458TIP3    H270866   4.432   0.712  13.468  2.1516 -0.6430  0.4297
16459TIP3   OH270867   5.203   0.985  16.270  0.4017 -0.0490  0.4267
16459TIP3    H170868   5.133   0.930  16.306 -0.2914  1.4173  1.4505
16459TIP3    H270869   5.246   0.931  16.204 -2.1553 -0.7894 -0.7513
16460TIP3   OH270870   0.462   6.493  14.284 -0.8030 -0.0944  0.1503
16460TIP3    H170871   0.401   6.533  14.346  2.7004  2.3817  2.3245
16460TIP3    H270872   0.497   6.417  14.330 -1.1358 -0.6952 -0.5500
16461TIP3   OH270873   3.795   0.488   1.629  0.2168 -0.0002 -0.7978
16461TIP3    H170874   3.731   0.417   1.638  1.3642 -0.9900 -0.0409
16461TIP3    H270875   3.763   0.556   1.688  0.8011 -1.2325  1.0238
16462TIP3   OH270876   4.611   5.326  16.065 -0.3372 -0.6567 -0.0391
16462TIP3    H170877   4.554   5.401  16.051 -2.3943 -2.5563 -2.9198
16462TIP3    H270878   4.683   5.338  16.002 -0.2638 -0.7183  0.0325
16463TIP3   OH270879   5.130   1.641  17.009  0.2351  0.0657 -0.0171
16463TIP3    H170880   5.084   1.657  17.092  0.2894  1.3927 -0.2166
16463TIP3    H270881   5.081   1.691  16.944  0.8921  0.0023 -0.5749
16464TIP3   OH270882   1.211   2.317  12.584  0.3560  0.2045 -0.4443
16464TIP3    H170883   1.202   2.226  12.556  1.1619 -0.2139  0.5793
16464TIP3    H270884   1.303   2.338  12.567  0.1136  0.9277 -0.9306
16465TIP3   OH270885   5.424   6.685  16.785 -0.1791  0.4651  0.1710
16465TIP3    H170886   5.377   6.715  16.707 -0.5389 -1.5945 -0.4642
16465TIP3    H270887   5.369   6.616  16.822  1.7973 -1.3348 -0.0282
16466TIP3   OH270888   6.460   3.119  12.679  0.2265  0.3234 -0.4614
16466TIP3    H170889   6.452   3.060  12.754  0.5860  0.7108 -0.1131
16466TIP3    H270890   6.412   3.198  12.705  2.9706  1.7481  0.7075
16467TIP3   OH270891   5.171   2.377   4.056  0.2485 -0.6866  0.0896
16467TIP3    H170892   5.171   2.444   4.125 -0.0948 -0.6970  0.1028
16467TIP3    H270893   5.186   2.425   3.975 -0.3548 -0.5463  0.0577
16468TIP3   OH270894   0.247   2.913  15.025 -0.6612 -0.0066 -0.1580
16468TIP3    H170895   0.231   2.953  14.939 -0.5819  0.0508 -0.1453
16468TIP3    H270896   0.305   2.974  15.069 -2.9298  1.4599  1.0316
16469TIP3   OH270897   1.906   0.556   4.511 -0.3182  0.2112  0.3948
16469TIP3    H170898   1.959   0.598   4.579 -1.0143  0.8396  0.5575
16469TIP3    H270899   1.816   0.561   4.544 -0.5639 -0.2421 -0.1906
16470TIP3   OH270900   4.554   3.095  16.000 -0.4773 -0.2726  0.3051
16470TIP3    H170901   4.487   3.044  16.046 -0.5784  0.3458  0.8660
16470TIP3    H270902   4.536   3.185  16.026  1.0046 -0.1581  1.0385
16471TIP3   OH270903   1.412   4.612   0.815 -0.3178  0.0684 -0.1974
16471TIP3    H170904   1.494   4.623   0.767  0.3585 -0.3210  0.8427
16471TIP3    H270905   1.348   4.660   0.763  0.6413  0.7266 -0.8097
16472TIP3   OH270906   2.200   4.774   2.853  0.4050 -0.7384 -0.4237
16472TIP3    H170907   2.285   4.736   2.835 -0.0572 -0.9140 -2.4634
16472TIP3    H270908   2.198   4.856   2.803  0.7222  1.2129  2.5126
16473TIP3   OH270909   2.916   2.662   0.380  0.3122 -0.2154 -0.0223
16473TIP3    H170910   2.834   2.642   0.335  0.6510 -1.9350  0.0408
16473TIP3    H270911   2.976   2.592   0.352  2.3421  1.9727 -1.4815
16474TIP3   OH270912   3.062   6.835   4.887  0.2143 -0.1535 -0.0827
16474TIP3    H170913   3.104   6.799   4.809 -1.7711 -0.8770 -0.8904
16474TIP3    H270914   3.043   6.759   4.942 -0.0665  0.1522  0.2539
16475TIP3   OH270915   0.037   3.111   3.025 -0.1255 -0.0135  0.0634
16475TIP3    H170916   0.130   3.108   3.006 -0.3127 -0.6014 -0.8260
16475TIP3    H270917   0.026   3.052   3.100  0.1749 -0.2028 -0.0398
16476TIP3   OH270918   1.494   3.858  13.841  0.1715 -0.0996 -0.4153
16476TIP3    H170919   1.505   3.793  13.910 -0.3218  0.1562 -0.0956
16476TIP3    H270920   1.440   3.815  13.775  0.0859 -0.1169 -0.3347
16477TIP3   OH270921   5.964   2.100   3.070 -0.0899 -0.2696 -0.7633
16477TIP3    H170922   6.055   2.128   3.077 -0.3905  0.3582  1.3379
16477TIP3    H270923   5.964   2.010   3.101 -0.4239  0.3594  1.2156
16478TIP3   OH270924   4.770   4.078  16.124  0.2596 -0.2468  0.1762
16478TIP3    H170925   4.681   4.087  16.088  0.4498  0.2463 -0.1891
16478TIP3    H270926   4.757   4.045  16.213 -0.2829 -0.3173  0.0736
16479TIP3   OH270927   0.007   4.879   0.867 -0.1074 -0.6716 -0.0592
16479TIP3    H170928  -0.086   4.856   0.867 -0.7526  1.6014  0.9007
16479TIP3    H270929   0.018   4.931   0.947  1.6584  0.3678 -0.9275
16480TIP3   OH270930   4.844   0.682   0.656  0.1463 -0.1417  0.2449
16480TIP3    H170931   4.820   0.598   0.617  0.0197  1.1332 -2.6280
16480TIP3    H270932   4.938   0.674   0.675 -0.1851 -1.4343  1.5561
16481TIP3   OH270933   4.698   5.188   5.849  0.1384 -0.9944  0.4158
16481TIP3    H170934   4.604   5.180   5.860  0.0716  0.6709  1.3948
16481TIP3    H270935   4.731   5.210   5.936  1.5558 -2.3796  0.2764
16482TIP3   OH270936   3.465   0.035  11.342 -0.2562 -0.2928  0.0880
16482TIP3    H170937   3.499   0.065  11.258  0.5918  0.4101  0.6522
16482TIP3    H270938   3.401  -0.033  11.320  0.9512 -1.1058 -1.0668
16483TIP3   OH270939   5.027   1.568   0.414 -0.1113  0.6956 -0.2350
16483TIP3    H170940   5.056   1.552   0.504 -3.3955 -0.8165  0.7010
16483TIP3    H270941   4.955   1.506   0.400 -0.7224  1.9249 -3.3915
16484TIP3   OH270942   6.275   1.248  13.598 -0.1603 -0.2121  0.1126
16484TIP3    H170943   6.188   1.283  13.577 -0.2329  0.3792  1.3336
16484TIP3    H270944   6.336   1.306  13.551 -0.3998 -0.3772 -0.4118
16485TIP3   OH270945   6.598   4.667   6.236 -0.1499  0.2748 -0.6100
16485TIP3    H170946   6.578   4.614   6.159 -1.1813 -0.8786  0.4048
16485TIP3    H270947   6.623   4.753   6.200 -1.6392  0.1088 -2.2051
16486TIP3   OH270948   3.453   2.554   2.461  0.0874  0.1583 -0.4590
16486TIP3    H170949   3.541   2.558   2.500 -0.1457  1.7630 -0.0420
16486TIP3    H270950   3.464   2.497   2.385  1.4072  0.0274 -0.1981
16487TIP3   OH270951   6.082   4.257   4.825  0.4262 -0.2834 -0.0431
16487TIP3    H170952   6.122   4.325   4.878  1.6836 -0.5102 -0.6436
16487TIP3    H270953   5.990   4.282   4.818  0.9481  1.6474 -0.6730
16488TIP3   OH270954   3.732   3.032  11.368 -0.1097  1.3366 -0.6345
16488TIP3    H170955   3.710   3.123  11.348  1.3950  1.5986 -1.2298
16488TIP3    H270956   3.804   3.011  11.308 -0.3448 -0.2106 -0.4205
16489TIP3   OH270957   5.560   3.050  14.710  0.4220  0.3453  0.7465
16489TIP3    H170958   5.635   3.042  14.770  0.9776  1.2697  0.2020
16489TIP3    H270959   5.590   3.111  14.643 -0.0314 -0.9550 -0.7034
16490TIP3   OH270960   5.776   2.594  12.303  0.5416  0.0698  0.3258
16490TIP3    H170961   5.693   2.553  12.278 -2.0116  3.6844  2.0917
16490TIP3    H270962   5.819   2.529  12.358 -0.4565 -2.3878 -1.6178
16491TIP3   OH270963   5.244   5.304   5.324  0.0807  0.4824 -0.1083
16491TIP3    H170964   5.184   5.230   5.329  1.2258 -0.5978 -1.4503
16491TIP3    H270965   5.219   5.351   5.245 -2.8883  3.7106  2.4379
16492TIP3   OH270966   3.659   1.701  16.761 -0.1082  0.3502  0.7352
16492TIP3    H170967   3.692   1.654  16.837 -0.9852 -0.3506  0.7044
16492TIP3    H270968   3.565   1.682  16.760 -0.2989  1.2490  0.1068
16493TIP3   OH270969   6.159   5.754   4.140  0.0550 -0.0304 -0.0726
16493TIP3    H170970   6.194   5.736   4.053  1.4444  2.8005 -0.2250
16493TIP3    H270971   6.227   5.807   4.182 -1.2306 -0.0756  2.1909
16494TIP3   OH270972   3.463   5.098   2.715 -0.1884  0.0903 -0.1400
16494TIP3    H170973   3.545   5.091   2.764  0.0215 -1.7094 -0.6656
16494TIP3    H270974   3.456   5.191   2.694  2.3618  0.1468 -1.1321
16495TIP3   OH270975   2.298   0.527  13.086 -0.9898  0.5107  0.0487
16495TIP3    H170976   2.285   0.605  13.140 -1.5280  1.8432 -1.9166
16495TIP3    H270977   2.387   0.498  13.107  0.0615  2.9381 -0.6981
16496TIP3   OH270978   6.398   2.406   3.354  0.3869 -0.0424  0.3689
16496TIP3    H170979   6.309   2.375   3.372  0.4977 -0.0512  0.9254
16496TIP3    H270980   6.389   2.502   3.350  0.3047 -0.0591  0.1420
16497TIP3   OH270981   0.584   4.954  12.593 -0.1118 -0.3104 -0.3323
16497TIP3    H170982   0.592   4.994  12.507 -1.2444  1.4548  0.3380
16497TIP3    H270983   0.668   4.969  12.635 -0.7420  2.2302  0.1999
16498TIP3   OH270984   0.414   4.501   1.803 -0.6297 -0.3814 -0.0492
16498TIP3    H170985   0.341   4.440   1.797 -1.9951  0.8859  2.1871
16498TIP3    H270986   0.429   4.512   1.897  3.8720 -2.1156 -0.3193
16499TIP3   OH270987   4.413   5.367  11.656  0.6458 -0.7086 -0.2156
16499TIP3    H170988   4.353   5.375  11.581  0.9608  0.6801 -0.3401
16499TIP3    H270989   4.358   5.382  11.733  0.6227 -0.5965 -0.2545
16500TIP3   OH270990   4.315   2.383   4.594  0.4720  0.1640  0.4024
16500TIP3    H170991   4.241   2.350   4.543  0.7630  0.0155  0.0670
16500TIP3    H270992   4.314   2.331   4.675  0.4664 -0.1382  0.2108
16501TIP3   OH270993   1.257   5.221   4.243  0.2402 -0.0209 -0.3591
16501TIP3    H170994   1.178   5.274   4.259  0.1404 -0.1513 -0.4202
16501TIP3    H270995   1.313   5.240   4.318  0.0929 -0.0334 -0.2440
16502TIP3   OH270996   4.440   6.102   1.440  0.0945 -0.4592  0.2778
16502TIP3    H170997   4.514   6.070   1.492  0.0432 -2.2804 -0.6631
16502TIP3    H270998   4.466   6.189   1.410  1.8365 -1.0284  0.0296
16503TIP3   OH270999   3.471   4.985   1.821  0.3117  0.0295  0.1251
16503TIP3    H171000   3.448   5.077   1.830 -1.0585 -0.4521  2.2477
16503TIP3    H271001   3.541   4.971   1.886  0.5885 -0.4082 -0.2617
16504TIP3   OH271002   0.362   5.534   5.980 -0.5976  0.0876 -0.2159
16504TIP3    H171003   0.346   5.608   5.921 -1.9045 -0.3425 -0.4211
16504TIP3    H271004   0.319   5.559   6.062  0.9883  0.5695  0.5163
16505TIP3   OH271005   0.965   0.327  11.616  0.2941  0.4493 -0.1852
16505TIP3    H171006   0.980   0.355  11.707 -1.4254  0.0412  0.2538
16505TIP3    H271007   0.951   0.409  11.568 -0.0498  0.5945  0.1634
16506TIP3   OH271008   3.920   3.096  16.499 -0.0436  0.7666  0.0693
16506TIP3    H171009   3.858   3.165  16.520  1.1307  1.3938  1.7284
16506TIP3    H271010   4.002   3.125  16.539  0.4810 -1.5839  0.8483
16507TIP3   OH271011   6.523   5.796  14.201  0.2367 -0.0921 -0.2431
16507TIP3    H171012   6.486   5.732  14.262 -1.3980  2.0493  1.1895
16507TIP3    H271013   6.614   5.771  14.191 -0.5367 -3.1615 -0.5303
16508TIP3   OH271014   4.613   1.371   6.340  0.2041 -0.2338 -0.2776
16508TIP3    H171015   4.546   1.323   6.389 -0.5405  0.6283 -0.4204
16508TIP3    H271016   4.591   1.357   6.248  1.2740 -1.3884 -0.3938
16509TIP3   OH271017   2.997   2.924  15.103 -0.6498 -0.6520  0.1025
16509TIP3    H171018   3.049   2.961  15.032  0.5479 -0.8521  0.8368
16509TIP3    H271019   3.011   2.984  15.177  1.4443 -2.5456  1.3637
16510TIP3   OH271020   6.518   4.000  11.078  0.6605 -0.3771 -0.0028
16510TIP3    H171021   6.550   4.077  11.127  1.0450  0.2091 -1.1521
16510TIP3    H271022   6.515   4.029  10.987 -0.0865 -1.4474 -0.3315
16511TIP3   OH271023   5.085   0.356   3.457 -0.8322  0.4850  0.6614
16511TIP3    H171024   5.078   0.447   3.427  1.5695  0.7959  0.8124
16511TIP3    H271025   5.179   0.342   3.468 -0.7650 -3.0142 -2.4394
16512TIP3   OH271026   1.410   5.961  12.918  0.4752  0.0219  0.6202
16512TIP3    H171027   1.482   5.915  12.961  1.9591  0.8353 -0.9099
16512TIP3    H271028   1.368   6.010  12.988 -0.4421 -2.6653  2.0894
16513TIP3   OH271029   6.159   3.766  14.790  0.0616  0.3516  0.1096
16513TIP3    H171030   6.177   3.694  14.851 -0.4563  0.7530  0.7573
16513TIP3    H271031   6.166   3.727  14.703  0.1641 -0.3910  0.4466
16514TIP3   OH271032   5.185   4.190  15.544 -0.5599 -0.7502  0.1688
16514TIP3    H171033   5.260   4.238  15.510 -0.1862 -1.4499  0.0052
16514TIP3    H271034   5.196   4.101  15.512 -1.3795 -0.8981  0.2686
16515TIP3   OH271035   4.733   1.275   0.157 -0.3747 -0.1671  0.1034
16515TIP3    H171036   4.645   1.247   0.135 -1.1476  2.2738 -0.2092
16515TIP3    H271037   4.770   1.202   0.206 -2.4871 -1.3083  0.1118
16516TIP3   OH271038   6.374   2.275   5.558  0.0831 -0.4390 -0.0526
16516TIP3    H171039   6.466   2.270   5.583 -0.0370 -2.2638  0.1464
16516TIP3    H271040   6.343   2.356   5.598  1.0941 -0.8316  1.6149
16517TIP3   OH271041   4.420   1.830  11.883  1.3647 -0.2866  0.5388
16517TIP3    H171042   4.445   1.826  11.791  1.0127  0.3471  0.4105
16517TIP3    H271043   4.494   1.790  11.930  1.9809  0.2791  0.0581
16518TIP3   OH271044   2.850   2.722  11.272 -0.0944  0.1370  0.0155
16518TIP3    H171045   2.841   2.638  11.227 -0.3979  0.4406 -0.4978
16518TIP3    H271046   2.792   2.781  11.225 -1.4976  0.1371  1.6373
16519TIP3   OH271047   2.791   0.459   3.226 -0.6622  0.3512  0.0734
16519TIP3    H171048   2.860   0.487   3.166 -0.6588 -1.6881 -0.9560
16519TIP3    H271049   2.838   0.409   3.293 -1.0174 -0.0492  0.0219
16520TIP3   OH271050   2.054   6.259  14.579 -0.1892 -0.0675 -0.2063
16520TIP3    H171051   2.030   6.167  14.584 -0.5161 -0.0988 -1.9662
16520TIP3    H271052   2.056   6.279  14.486  1.7581  1.2300  0.0475
16521TIP3   OH271053   5.672   6.802   1.034 -0.5720  0.6733 -0.5104
16521TIP3    H171054   5.725   6.745   0.978 -0.5047 -0.8086  0.9986
16521TIP3    H271055   5.582   6.774   1.018 -0.6390  0.9443 -0.6190
16522TIP3   OH271056   0.361   1.758   0.100  0.1342  0.4198 -0.2697
16522TIP3    H171057   0.345   1.841   0.057 -0.5920 -0.1526 -1.1496
16522TIP3    H271058   0.275   1.717   0.105  0.6141 -0.6958 -0.7656
16523TIP3   OH271059   4.579   1.373   6.065 -0.0116 -0.2427  0.3893
16523TIP3    H171060   4.649   1.437   6.050 -0.3521 -0.3465 -1.8519
16523TIP3    H271061   4.499   1.419   6.043 -0.2929 -1.3077 -0.9030
16524TIP3   OH271062   3.787   2.854   4.142 -0.4381 -0.6451 -0.2161
16524TIP3    H171063   3.765   2.869   4.234  0.1450 -0.8444 -0.0356
16524TIP3    H271064   3.839   2.773   4.143  0.6913  0.0480 -0.5518
16525TIP3   OH271065   5.038   6.192   1.023 -0.2931 -0.1952 -1.0496
16525TIP3    H171066   5.130   6.181   0.998  0.0326 -1.8429  0.6735
16525TIP3    H271067   5.039   6.269   1.080  0.1215 -0.5469 -0.5744
16526TIP3   OH271068   6.158   3.261   4.465  0.2259 -0.3599 -0.6659
16526TIP3    H171069   6.180   3.214   4.546 -0.7574 -1.0773 -0.7999
16526TIP3    H271070   6.241   3.298   4.436  0.5788  0.0093  0.7357
16527TIP3   OH271071   5.989   3.164   1.210  0.4544 -0.2706  0.8273
16527TIP3    H171072   5.927   3.137   1.143 -0.8555  0.2251  1.8063
16527TIP3    H271073   6.051   3.221   1.163  1.7714 -2.7718 -0.7023
16528TIP3   OH271074   0.979   1.232  15.516 -0.1390 -0.0723 -0.1042
16528TIP3    H171075   1.014   1.256  15.430  0.4467 -1.1475 -0.1761
16528TIP3    H271076   1.043   1.172  15.553 -0.4576  0.2572  1.0342
16529TIP3   OH271077   5.392   3.708   4.972  0.2404 -0.2658  0.1769
16529TIP3    H171078   5.300   3.686   4.991  0.4438 -0.5184  0.8877
16529TIP3    H271079   5.424   3.746   5.053  0.8985 -0.6090  0.0812
16530TIP3   OH271080   6.740   5.471  13.957 -0.0476  0.1850 -0.0971
16530TIP3    H171081   6.657   5.517  13.969 -0.7969 -0.6106 -1.8870
16530TIP3    H271082   6.720   5.399  13.898  1.2218 -2.1533  2.0970
16531TIP3   OH271083   4.503   2.570  16.761 -0.3455  0.3178 -0.4034
16531TIP3    H171084   4.583   2.518  16.763  0.1989  1.1632  1.6022
16531TIP3    H271085   4.482   2.578  16.668 -0.1401 -2.9447 -0.8339
16532TIP3   OH271086   2.178   4.697   0.079  0.1126  0.3227 -0.1685
16532TIP3    H171087   2.246   4.705   0.012  1.0225  0.9771  0.7862
16532TIP3    H271088   2.101   4.737   0.040  0.8585  1.4497 -0.5358
16533TIP3   OH271089   6.838   2.694   4.992 -0.6316 -0.2083 -0.1658
16533TIP3    H171090   6.784   2.627   4.948  0.0714  0.6635 -2.4736
16533TIP3    H271091   6.777   2.738   5.052 -2.0352 -0.4775 -1.3489
16534TIP3   OH271092   3.445   3.023  11.720 -0.8101 -0.6734 -0.3662
16534TIP3    H171093   3.369   2.972  11.748 -0.9326 -0.2569  0.0827
16534TIP3    H271094   3.465   2.991  11.632 -1.0455 -1.3050 -0.1985
16535TIP3   OH271095   1.335   1.736  16.768  0.2835  0.3326 -0.3676
16535TIP3    H171096   1.336   1.681  16.690 -2.1168  1.4059 -1.2710
16535TIP3    H271097   1.410   1.794  16.758 -0.1730  0.6880 -2.1217
16536TIP3   OH271098   1.427   5.830  15.204  0.1456 -0.1088  0.0381
16536TIP3    H171099   1.503   5.887  15.216 -0.2534  0.4695 -0.1605
16536TIP3    H271100   1.447   5.752  15.256  2.1985 -1.2643 -2.2400
16537TIP3   OH271101   1.708   0.305  12.302 -0.5643  0.1266 -0.4539
16537TIP3    H171102   1.787   0.347  12.266  0.5084 -0.8521  0.6570
16537TIP3    H271103   1.643   0.375  12.305  0.5731  1.2203 -0.4786
16538TIP3   OH271104   1.676   3.355  12.920  0.0088  0.5043 -0.1331
16538TIP3    H171105   1.654   3.317  12.835 -0.1557  0.6725 -0.1660
16538TIP3    H271106   1.772   3.358  12.921  0.0476 -0.4813  0.1189
16539TIP3   OH271107   6.815   4.085  15.469  0.3783  0.4344 -0.6341
16539TIP3    H171108   6.812   3.989  15.462  0.8992  0.3779 -0.2131
16539TIP3    H271109   6.778   4.117  15.387  0.1708 -0.1303 -0.7652
16540TIP3   OH271110   4.156   0.010   0.683  0.0449 -0.1826  0.5034
16540TIP3    H171111   4.240   0.031   0.723 -0.2331 -1.2368  1.6753
16540TIP3    H271112   4.115  -0.053   0.742  0.0709 -2.6857 -1.9120
16541TIP3   OH271113   0.044   3.432  14.683 -0.8664 -0.3689  0.6468
16541TIP3    H171114   0.024   3.476  14.765 -0.3456 -0.7931  1.0085
16541TIP3    H271115   0.003   3.346  14.690 -0.1227 -0.7196  0.8163
16542TIP3   OH271116   1.272   2.263   5.801 -0.6401 -0.0399 -0.6073
16542TIP3    H171117   1.270   2.235   5.892 -0.2503  0.6023 -0.3928
16542TIP3    H271118   1.193   2.224   5.762 -1.8043  1.1514  0.4586
16543TIP3   OH271119   0.696   0.367   3.647 -0.6098 -0.0428  0.3127
16543TIP3    H171120   0.768   0.429   3.654 -0.5406 -0.1978  1.1390
16543TIP3    H271121   0.689   0.328   3.734 -1.2926 -0.4790  0.0785
16544TIP3   OH271122   1.248   1.755   0.193 -0.0456 -0.5591 -0.0428
16544TIP3    H171123   1.165   1.773   0.150 -0.7182  0.1401  1.4902
16544TIP3    H271124   1.263   1.662   0.180 -0.7722 -0.5726 -0.8209
16545TIP3   OH271125   5.973   5.994  13.334 -0.0938  0.1242  0.2365
16545TIP3    H171126   5.906   5.961  13.395 -0.5658  0.2402 -0.2132
16545TIP3    H271127   5.943   6.082  13.312 -2.0450 -1.1806 -3.1128
16546TIP3   OH271128   0.906   5.134   4.109 -0.4092 -0.3141  0.0880
16546TIP3    H171129   0.921   5.142   4.015 -1.7871  0.6670 -0.0860
16546TIP3    H271130   0.932   5.219   4.145  0.7388 -0.9025  0.7157
16547TIP3   OH271131   5.922   0.968  12.348  0.1039  0.5087  0.1303
16547TIP3    H171132   5.983   0.917  12.295 -0.1947 -1.1021  1.2638
16547TIP3    H271133   5.975   1.003  12.419  0.1649  1.1530 -0.2311
16548TIP3   OH271134   3.635   4.696  12.295  0.5457 -0.3004 -0.5746
16548TIP3    H171135   3.713   4.751  12.288  1.7164 -1.3420  2.5164
16548TIP3    H271136   3.656   4.618  12.244  2.8950 -1.7897  2.2984
16549TIP3   OH271137   1.389   2.666  15.120 -0.8925  0.3201  0.0113
16549TIP3    H171138   1.317   2.680  15.181 -2.6935  2.7165 -2.4539
16549TIP3    H271139   1.350   2.620  15.046 -0.2200  2.5253 -1.8223
16550TIP3   OH271140   1.302   1.642  12.121  0.3431  0.1346 -0.2008
16550TIP3    H171141   1.225   1.690  12.091 -0.7597 -1.2080  0.3933
16550TIP3    H271142   1.368   1.710  12.136 -1.1478  1.4709  0.5995
16551TIP3   OH271143   6.807   5.552   4.625 -0.1104  0.2895 -0.2328
16551TIP3    H171144   6.774   5.497   4.697 -0.0937 -0.9019 -1.1072
16551TIP3    H271145   6.888   5.509   4.598 -1.1697 -0.5295 -2.3372
16552TIP3   OH271146   6.792   4.211   0.734  0.2673 -0.6393 -0.1569
16552TIP3    H171147   6.844   4.134   0.710 -0.3660 -1.2872  0.5216
16552TIP3    H271148   6.701   4.184   0.720 -0.0234 -0.4040  1.1616
16553TIP3   OH271149   0.993   1.303  14.479 -0.9402  0.4441 -0.0787
16553TIP3    H171150   0.990   1.377  14.540  0.3393 -0.6348  1.3734
16553TIP3    H271151   1.003   1.226  14.535 -0.3882 -0.6655 -1.6317
16554TIP3   OH271152   0.391   2.673  12.342 -0.4583  0.0401 -0.0828
16554TIP3    H171153   0.462   2.608  12.344  0.3210  0.8365  2.4845
16554TIP3    H271154   0.419   2.736  12.275  0.7304 -0.2382  0.1219
16555TIP3   OH271155   6.717   5.048  11.818  0.3965  0.4747 -0.3998
16555TIP3    H171156   6.800   5.095  11.816  0.3596  0.6649  0.9403
16555TIP3    H271157   6.687   5.047  11.728  1.6391  0.7867 -0.8350
16556TIP3   OH271158   3.906   6.730  12.810 -0.2205  0.1873  0.0470
16556TIP3    H171159   3.937   6.812  12.772 -2.8055  0.6993 -1.1938
16556TIP3    H271160   3.919   6.665  12.741  3.0160 -0.8974  1.4551
16557TIP3   OH271161   0.650   5.963   0.098 -0.5204 -0.4690  0.3566
16557TIP3    H171162   0.636   6.054   0.125  3.2310  0.7891 -1.3277
16557TIP3    H271163   0.707   5.926   0.165  0.0898 -0.7429 -0.3050
16558TIP3   OH271164   3.774   6.762  16.133  0.4274  0.1401  0.2406
16558TIP3    H171165   3.719   6.840  16.147  1.1531  0.4945  1.2361
16558TIP3    H271166   3.766   6.744  16.039  2.6096  3.2476 -0.7217
16559TIP3   OH271167   2.143   6.790  13.667 -0.0676  0.4077 -0.1310
16559TIP3    H171168   2.181   6.726  13.727 -0.7558 -2.7137 -2.7576
16559TIP3    H271169   2.049   6.771  13.666 -0.0395  0.0670 -2.3774
16560TIP3   OH271170   3.519   0.178  15.707  0.3119 -0.6625  0.3988
16560TIP3    H171171   3.584   0.232  15.664 -1.8145  1.8366  0.0398
16560TIP3    H271172   3.465   0.144  15.636 -0.5653 -0.1632  0.8074
16561TIP3   OH271173   1.502   4.233  12.481  0.1892  0.0873  0.4917
16561TIP3    H171174   1.423   4.245  12.428  1.2908 -0.5449 -1.3949
16561TIP3    H271175   1.528   4.322  12.505  0.1162  0.4719 -0.7657
16562TIP3   OH271176   2.469   5.876  13.955 -0.0139 -0.0395 -0.3271
16562TIP3    H171177   2.427   5.858  14.038  1.1863 -2.0768 -0.0994
16562TIP3    H271178   2.546   5.929  13.978 -1.1201  1.7164 -0.4930
16563TIP3   OH271179   1.354   2.021  15.840  0.3120 -0.0038 -0.0857
16563TIP3    H171180   1.395   1.939  15.813 -1.0174  0.0913 -2.6562
16563TIP3    H271181   1.307   1.999  15.921  0.7486 -1.5246 -0.2205
16564TIP3   OH271182   2.823   5.104  12.256  0.8504  0.1157 -0.1090
16564TIP3    H171183   2.786   5.088  12.170  0.9858 -0.0133 -0.1448
16564TIP3    H271184   2.912   5.135  12.239 -0.0670  3.0599 -0.1250
16565TIP3   OH271185   2.145   1.066  17.106  0.3346  0.2382 -0.5671
16565TIP3    H171186   2.114   1.086  17.018  0.4641  1.7308 -0.3129
16565TIP3    H271187   2.241   1.073  17.099  0.3096  1.1798 -0.1553
16566TIP3   OH271188   4.183   6.846  11.715 -0.1265 -0.4818 -0.2102
16566TIP3    H171189   4.176   6.771  11.774  0.1397  0.7188  1.3909
16566TIP3    H271190   4.094   6.861  11.685 -0.9430  1.0301  2.6672
16567TIP3   OH271191   2.486   6.626  17.115 -0.0323 -0.5891  0.3630
16567TIP3    H171192   2.467   6.652  17.024 -0.7790 -2.2922  0.0078
16567TIP3    H271193   2.486   6.531  17.113 -0.2050 -0.6490  2.2034
16568TIP3   OH271194   2.531   3.583  17.053  0.9554  0.3411 -0.2713
16568TIP3    H171195   2.437   3.589  17.037  0.5789  1.4022  1.9099
16568TIP3    H271196   2.571   3.609  16.970 -0.6522 -0.1098 -1.2452
16569TIP3   OH271197   0.994   6.172   3.614  0.5887 -0.1851  0.2003
16569TIP3    H171198   1.052   6.169   3.690  0.3321 -0.0868  0.4009
16569TIP3    H271199   1.047   6.136   3.543  0.9871  0.1483  0.3193
16570TIP3   OH271200   3.598   3.463  10.992 -0.3907 -0.1927 -0.3152
16570TIP3    H171201   3.505   3.453  10.970 -0.5913 -0.0947  0.4727
16570TIP3    H271202   3.639   3.384  10.956 -0.3014  1.0248 -3.1142
16571TIP3   OH271203   3.563   5.399   2.663  0.3641 -0.4491 -0.3137
16571TIP3    H171204   3.522   5.484   2.677  1.2337 -0.1759  0.6919
16571TIP3    H271205   3.546   5.379   2.570 -1.8507 -0.2920  0.0136
16572TIP3   OH271206   4.556   1.900  12.448  0.2608 -0.2249 -0.1765
16572TIP3    H171207   4.602   1.902  12.365 -0.4715  0.1767 -0.5843
16572TIP3    H271208   4.475   1.948  12.432  0.1349 -0.0907  0.7867
16573TIP3   OH271209   1.100   5.741   1.647  0.0790  0.4191  0.3544
16573TIP3    H171210   1.085   5.646   1.648 -0.3800  0.4952  1.0580
16573TIP3    H271211   1.042   5.773   1.578  1.2390  0.0470 -0.8544
16574TIP3   OH271212   3.083   1.184   5.220 -0.0008 -0.4013 -0.5818
16574TIP3    H171213   3.068   1.089   5.223  0.9259 -0.5458  0.3279
16574TIP3    H271214   3.010   1.221   5.269 -0.1441 -0.6740 -0.5836
16575TIP3   OH271215   0.930   3.988   4.460  0.2707 -0.3199  0.2806
16575TIP3    H171216   0.840   3.978   4.427  1.0319 -3.6521 -1.2640
16575TIP3    H271217   0.927   3.952   4.549  0.0422 -0.4381  0.2278
16576TIP3   OH271218   4.110   1.696   5.907 -0.2575  0.4494 -0.4150
16576TIP3    H171219   4.191   1.700   5.958  0.3155  0.0209 -1.2663
16576TIP3    H271220   4.063   1.622   5.944 -0.7814  1.3686  0.8100
16577TIP3   OH271221   6.195   1.841   3.226  0.3846  0.2239  0.4347
16577TIP3    H171222   6.155   1.895   3.294  0.6964  1.0642 -0.0213
16577TIP3    H271223   6.284   1.824   3.258  0.2950 -0.0058  0.5657
16578TIP3   OH271224   0.799   5.811   5.205 -0.1497  0.0250 -0.4701
16578TIP3    H171225   0.838   5.724   5.200 -0.6713 -0.2878  0.7597
16578TIP3    H271226   0.783   5.835   5.113  1.8248 -0.3167 -0.9569
16579TIP3   OH271227   2.373   1.743   6.175  0.6177 -0.2222  0.1782
16579TIP3    H171228   2.462   1.722   6.150  0.7649  1.0628 -0.4518
16579TIP3    H271229   2.363   1.836   6.154 -1.0080 -0.4454 -0.1764
16580TIP3   OH271230   5.607   4.781  15.702 -0.3562  0.1886  0.0762
16580TIP3    H171231   5.629   4.713  15.766  0.9681 -0.6670 -1.2500
16580TIP3    H271232   5.656   4.858  15.731 -0.1817 -0.0332  0.3809
16581TIP3   OH271233   4.564   0.331   2.507 -0.5359 -0.1029 -0.4474
16581TIP3    H171234   4.499   0.262   2.494  1.4792 -2.5424  1.3742
16581TIP3    H271235   4.639   0.303   2.454  0.9233 -0.3130  1.5844
16582TIP3   OH271236   5.564   6.480  15.827 -0.1568  0.3090 -0.1159
16582TIP3    H171237   5.584   6.399  15.873 -1.2533  0.3631  0.4781
16582TIP3    H271238   5.650   6.512  15.796  0.2739 -1.1237 -0.4755
16583TIP3   OH271239   2.639   5.159   3.624  0.6756  0.2723  0.5254
16583TIP3    H171240   2.730   5.186   3.638  0.6918  0.5783 -0.0964
16583TIP3    H271241   2.613   5.205   3.544  0.4770 -1.0192 -0.1822
16584TIP3   OH271242   1.545   3.133   1.278  0.6891 -0.2916 -0.5223
16584TIP3    H171243   1.518   3.198   1.214 -2.0419 -1.5646 -0.7810
16584TIP3    H271244   1.472   3.129   1.340  1.8728 -1.3953  0.8622
16585TIP3   OH271245   2.024   5.813  12.106  0.0831 -0.1975  0.0572
16585TIP3    H171246   2.104   5.773  12.071 -0.1055 -0.7307  0.2264
16585TIP3    H271247   1.993   5.751  12.172 -1.0436 -0.5133 -0.7428
16586TIP3   OH271248   6.118   5.201  16.165  0.1807 -0.3086 -0.4886
16586TIP3    H171249   6.069   5.281  16.144 -0.6493 -0.8997 -0.9181
16586TIP3    H271250   6.125   5.201  16.260  0.1319  0.2418 -0.4803
16587TIP3   OH271251   4.865   4.681   2.351 -0.0531  0.3340  0.2542
16587TIP3    H171252   4.952   4.718   2.333 -0.2353  0.2218 -0.8908
16587TIP3    H271253   4.828   4.663   2.265 -0.6171 -1.0422  0.7635
16588TIP3   OH271254   2.042   2.824  14.333 -0.1413 -0.4630 -0.3470
16588TIP3    H171255   1.958   2.862  14.361  0.7579  0.2896  1.4344
16588TIP3    H271256   2.092   2.898  14.299  0.9460 -0.2908  1.4955
16589TIP3   OH271257   5.404   0.777   2.543 -0.3954 -0.7433  0.3228
16589TIP3    H171258   5.393   0.827   2.623 -2.5027 -0.8760  0.1743
16589TIP3    H271259   5.317   0.775   2.503  0.8116  0.4229 -2.6507
16590TIP3   OH271260   5.866   0.098   2.320  0.1496  0.3075  0.0644
16590TIP3    H171261   5.945   0.150   2.309  1.6138 -1.5020  1.3789
16590TIP3    H271262   5.892   0.009   2.295 -1.8885 -0.0947 -0.8238
16591TIP3   OH271263   4.348   6.124  15.216  0.3677 -0.0032 -0.2729
16591TIP3    H171264   4.306   6.160  15.294 -2.5534  0.9889 -2.1244
16591TIP3    H271265   4.314   6.035  15.209  0.1998  0.0855 -0.6500
16592TIP3   OH271266   5.602   2.696  13.290  0.2540  0.4558 -0.5241
16592TIP3    H171267   5.593   2.777  13.240 -0.9352  1.4500  1.2074
16592TIP3    H271268   5.554   2.631  13.240  3.4954  0.0013 -3.4142
16593TIP3   OH271269   2.332   0.110  16.226 -0.3344  0.2467  0.3526
16593TIP3    H171270   2.368   0.198  16.212  0.3074  0.3084  2.0693
16593TIP3    H271271   2.237   0.123  16.228 -0.6683  0.0953 -4.1903
16594TIP3   OH271272   2.897   6.716  15.050  0.0578  0.0411  0.3431
16594TIP3    H171273   2.928   6.801  15.079 -0.0957 -0.1649  1.1403
16594TIP3    H271274   2.969   6.680  14.999  1.4114 -0.6546  2.6104
16595TIP3   OH271275   5.153   4.248  12.016  0.5840  0.2702  0.5365
16595TIP3    H171276   5.206   4.325  12.038 -0.4233  1.0405  0.3398
16595TIP3    H271277   5.118   4.219  12.101  0.4728  0.3967  0.5336
16596TIP3   OH271278   3.491   5.750  17.103  0.6457  0.5614 -0.3016
16596TIP3    H171279   3.549   5.826  17.111 -0.3644  1.3318 -0.0364
16596TIP3    H271280   3.403   5.788  17.098  0.3105 -0.3559 -3.8435
16597TIP3   OH271281   5.467   3.667  11.337 -0.4716 -0.3310 -0.3448
16597TIP3    H171282   5.555   3.700  11.355 -0.8729  0.5105  0.1368
16597TIP3    H271283   5.481   3.591  11.280  0.5036  0.5465 -1.3331
16598TIP3   OH271284   2.843   2.984  16.942 -0.6224 -0.0977  0.0032
16598TIP3    H171285   2.914   2.919  16.936 -0.9323 -0.3430 -1.2404
16598TIP3    H271286   2.841   3.025  16.855 -1.9563 -0.0398  0.0520
16599TIP3   OH271287   6.031   2.993   4.290 -0.0514 -0.3758 -0.0571
16599TIP3    H171288   6.120   2.966   4.269  0.0119  0.1326 -0.4814
16599TIP3    H271289   6.041   3.048   4.368 -0.0661 -0.7736  0.2296
16600TIP3   OH271290   4.614   4.017   5.285  0.3335 -0.4708  0.1529
16600TIP3    H171291   4.628   3.996   5.193  1.5283  0.3623  0.1270
16600TIP3    H271292   4.573   3.939   5.321 -1.2671 -0.3606 -1.3321
16601TIP3   OH271293   6.711   2.672   2.028  0.2066  0.6443  0.0171
16601TIP3    H171294   6.692   2.761   2.058 -0.5075  0.5006  0.0226
16601TIP3    H271295   6.678   2.616   2.099 -0.1843  0.3484 -0.3941
16602TIP3   OH271296   4.143   1.424  11.884 -0.0357 -0.2605 -0.2997
16602TIP3    H171297   4.071   1.371  11.851 -0.8333  0.7935 -0.3170
16602TIP3    H271298   4.132   1.509  11.841 -1.0838  1.1669  2.5429
16603TIP3   OH271299   0.660   1.451   3.495  0.0343  0.1421 -0.3698
16603TIP3    H171300   0.676   1.378   3.436 -1.1613 -0.5297  0.0923
16603TIP3    H271301   0.604   1.511   3.445  0.6993  0.5569 -0.6175
16604TIP3   OH271302   1.486   6.186   1.865  0.0962 -0.6611 -0.0512
16604TIP3    H171303   1.396   6.190   1.898  0.5838  0.6928  1.2053
16604TIP3    H271304   1.479   6.216   1.774 -0.6682 -0.0581  0.1921
16605TIP3   OH271305   4.843   3.783  11.001 -0.5712 -0.2462  0.1438
16605TIP3    H171306   4.865   3.860  10.948 -0.7762  0.4008  0.9808
16605TIP3    H271307   4.767   3.745  10.957 -0.3064 -0.1214 -0.4248
16606TIP3   OH271308   5.625   1.956   1.886 -0.0203  0.1821 -0.2874
16606TIP3    H171309   5.532   1.934   1.892  0.3040 -1.2812 -0.2693
16606TIP3    H271310   5.665   1.911   1.960  0.9012 -0.3284 -1.0780
16607TIP3   OH271311   2.060   5.465   3.605 -0.0673 -0.1743  0.3116
16607TIP3    H171312   2.097   5.548   3.633  0.0606 -0.4857  1.0873
16607TIP3    H271313   2.072   5.464   3.510 -3.7005  2.5068 -0.4131
16608TIP3   OH271314   5.626   2.096  16.493  0.1740 -0.0401 -0.5816
16608TIP3    H171315   5.640   2.174  16.439  0.1068 -0.0794 -0.6555
16608TIP3    H271316   5.586   2.131  16.573  0.2804  0.0187 -0.5537
16609TIP3   OH271317   1.193   5.188   1.651 -0.0503 -0.0748  0.1493
16609TIP3    H171318   1.255   5.176   1.722 -0.1560  2.6207  0.7787
16609TIP3    H271319   1.210   5.276   1.618 -0.7348 -0.8398 -2.4785
16610TIP3   OH271320   5.389   1.113  16.872 -0.1012 -0.2191  0.1549
16610TIP3    H171321   5.313   1.169  16.885  0.3910  0.3664  0.5964
16610TIP3    H271322   5.453   1.145  16.935  0.1351 -1.4039  0.5342
16611TIP3   OH271323   1.929   1.143   0.154  0.3583  0.0043  0.8729
16611TIP3    H171324   1.887   1.057   0.161 -1.2998  0.5573 -1.0967
16611TIP3    H271325   2.005   1.127   0.097  0.8613 -0.3914  1.6449
16612TIP3   OH271326   1.516   1.572  13.734 -0.4286 -0.1742  0.1257
16612TIP3    H171327   1.487   1.597  13.822  0.2688  0.9447  0.0687
16612TIP3    H271328   1.608   1.601  13.731 -0.1992 -0.9519 -0.6876
16613TIP3   OH271329   2.230   2.726  11.570 -0.0733 -0.2445 -0.2279
16613TIP3    H171330   2.164   2.778  11.615 -0.1658  0.8011 -1.5500
16613TIP3    H271331   2.300   2.715  11.636 -1.5750 -1.5348  1.2532
16614TIP3   OH271332   3.022   2.570   1.616  1.1641 -0.1062  0.0889
16614TIP3    H171333   2.968   2.511   1.669  0.7887 -0.5424 -0.7649
16614TIP3    H271334   3.106   2.525   1.607  1.3624  0.1453  0.6259
16615TIP3   OH271335   3.724   5.226  12.110 -0.0602 -0.3377 -0.1722
16615TIP3    H171336   3.647   5.178  12.080 -0.1054 -0.3078 -0.1055
16615TIP3    H271337   3.765   5.258  12.029  0.9818 -2.0091 -0.3504
16616TIP3   OH271338   6.625   1.914  10.919  0.3552  0.3841 -0.1789
16616TIP3    H171339   6.609   1.820  10.914 -0.6983  0.5950 -2.5053
16616TIP3    H271340   6.686   1.925  10.992  2.2143 -2.3264 -1.1570
16617TIP3   OH271341   3.084   5.679   5.826 -0.5991 -0.0825  0.0336
16617TIP3    H171342   3.109   5.771   5.835 -2.1396  0.2387  1.5832
16617TIP3    H271343   3.158   5.631   5.863  0.3229  0.4873 -0.9976
16618TIP3   OH271344   5.656   0.181  14.597 -0.0046 -0.2957 -0.3013
16618TIP3    H171345   5.745   0.216  14.590 -0.0596 -0.5160 -3.1411
16618TIP3    H271346   5.601   0.248  14.557 -1.1627 -0.2159  1.3263
16619TIP3   OH271347   2.999   3.461  12.413 -0.0843  0.0236 -0.0106
16619TIP3    H171348   3.026   3.541  12.457  0.8401 -0.1372 -0.2566
16619TIP3    H271349   2.971   3.402  12.483 -0.9048  0.5989  0.1606
16620TIP3   OH271350   4.922   0.622   1.465 -0.0589  0.1415 -0.2581
16620TIP3    H171351   4.833   0.613   1.432 -0.1436 -0.3828  0.0970
16620TIP3    H271352   4.977   0.596   1.391 -0.1831  0.7437 -0.5718
16621TIP3   OH271353   3.139   0.387   0.571 -0.1130 -0.3766 -0.2002
16621TIP3    H171354   3.114   0.388   0.663  1.3206 -1.5338  0.2567
16621TIP3    H271355   3.159   0.295   0.553  0.3875 -0.0489 -1.4486
16622TIP3   OH271356   4.067   5.905  15.952 -0.5182  0.3016 -0.0773
16622TIP3    H171357   3.996   5.925  15.890  0.2626 -1.6800 -1.7365
16622TIP3    H271358   4.055   5.813  15.973  0.6863  0.3335  0.8196
16623TIP3   OH271359   2.634   3.677   5.172 -0.5290 -0.1438 -0.0129
16623TIP3    H171360   2.723   3.711   5.162 -0.7051  0.8202  1.4515
16623TIP3    H271361   2.645   3.588   5.204 -0.0961 -0.6384 -1.4432
16624TIP3   OH271362   5.934   2.654  12.707  0.0201  0.7401 -0.1700
16624TIP3    H171363   6.015   2.670  12.756 -0.9762  0.5625  1.5759
16624TIP3    H271364   5.884   2.735  12.717 -1.2704 -0.1866  1.2941
16625TIP3   OH271365   2.389   4.664   4.505 -0.2866 -0.0352  0.4597
16625TIP3    H171366   2.320   4.617   4.459  0.9081 -0.7177 -0.6893
16625TIP3    H271367   2.342   4.720   4.567 -1.8353 -0.9334  0.1518
16626TIP3   OH271368   0.200   1.407  12.620  0.1532 -0.1046 -0.3152
16626TIP3    H171369   0.250   1.345  12.567  0.8479  0.2204 -0.0513
16626TIP3    H271370   0.165   1.354  12.691  0.4069 -0.2758 -0.3151
16627TIP3   OH271371   2.259   0.637   5.632  0.2900 -0.9276 -0.4084
16627TIP3    H171372   2.224   0.725   5.618  0.3700 -0.3576  2.3027
16627TIP3    H271373   2.181   0.583   5.644  0.2399 -0.7283  0.2375
16628TIP3   OH271374   0.680   2.182   5.995 -0.3705 -0.5031 -0.4721
16628TIP3    H171375   0.775   2.191   6.001 -0.1366 -1.7117 -1.8613
16628TIP3    H271376   0.656   2.118   6.062 -0.2448 -0.0456  0.0151
16629TIP3   OH271377   4.895   0.157   4.378 -0.6347 -0.2247 -0.5695
16629TIP3    H171378   4.867   0.103   4.304 -0.2082 -0.9772 -0.1797
16629TIP3    H271379   4.890   0.247   4.344 -2.7028 -0.3768 -0.7794
16630TIP3   OH271380   6.847   2.620   6.511  0.3463  0.7843  0.1939
16630TIP3    H171381   6.831   2.605   6.605  1.4641  0.1288  0.2954
16630TIP3    H271382   6.847   2.533   6.472  1.0451  0.9627 -0.2179
16631TIP3   OH271383   3.137   0.098   5.303  0.2723 -0.1202  0.3690
16631TIP3    H171384   3.114   0.080   5.394  0.7882  2.2371  1.0611
16631TIP3    H271385   3.224   0.059   5.293 -0.8410 -2.6631  0.0175
16632TIP3   OH271386   4.994   4.940   3.973 -0.1032 -0.3964 -0.1502
16632TIP3    H171387   4.976   5.020   4.023 -1.2982 -0.9322  0.3248
16632TIP3    H271388   4.928   4.878   4.004  0.7923 -1.5663 -0.5208
16633TIP3   OH271389   0.263   1.657   6.034 -0.2733  0.3649  0.3758
16633TIP3    H171390   0.270   1.732   5.974 -1.0020 -0.7714 -1.2269
16633TIP3    H271391   0.238   1.584   5.977  3.2247 -1.8412  1.3137
16634TIP3   OH271392   2.656   5.263  14.378 -0.5124 -0.0755 -0.0411
16634TIP3    H171393   2.743   5.283  14.344 -0.0739  0.0822  1.1009
16634TIP3    H271394   2.608   5.345  14.370 -0.1663  0.1772  0.4277
16635TIP3   OH271395   4.654   4.741   5.416  0.7320 -0.2971  0.5158
16635TIP3    H171396   4.587   4.716   5.479  0.3704  1.1493  0.7145
16635TIP3    H271397   4.635   4.832   5.394 -0.0105 -1.1047 -2.7536
16636TIP3   OH271398   3.576   6.257  13.769 -0.2876 -0.6555  0.7325
16636TIP3    H171399   3.536   6.297  13.846  0.0542 -1.1857  1.1983
16636TIP3    H271400   3.656   6.217  13.802 -0.3608 -1.2729  0.1827
16637TIP3   OH271401   6.630   6.679   0.373  0.5253  0.0060 -0.0934
16637TIP3    H171402   6.694   6.620   0.332  1.1885  1.1007 -0.6907
16637TIP3    H271403   6.654   6.680   0.466  1.5747  0.6219 -0.3568
16638TIP3   OH271404   1.586   1.981  13.929  0.1896  0.1221 -0.2709
16638TIP3    H171405   1.628   1.952  13.848  0.2468  0.8379 -0.4983
16638TIP3    H271406   1.655   2.029  13.976  1.1783 -2.8953  1.6850
16639TIP3   OH271407   1.521   2.401   0.836 -0.1777 -0.2699 -0.0517
16639TIP3    H171408   1.585   2.330   0.845 -2.7632 -2.7820 -0.2341
16639TIP3    H271409   1.466   2.394   0.914 -0.6955  1.4160 -0.2171
16640TIP3   OH271410   5.162   6.155   2.512  0.4031 -0.2413  0.2752
16640TIP3    H171411   5.203   6.141   2.427  1.0479 -0.0599  0.5513
16640TIP3    H271412   5.122   6.242   2.506 -0.1626 -0.5178 -0.0758
16641TIP3   OH271413   5.243   1.419   2.606 -0.4470  0.0606  1.0588
16641TIP3    H171414   5.151   1.410   2.584 -1.6473  1.8210  4.6929
16641TIP3    H271415   5.261   1.513   2.599  1.4853 -0.3426 -0.6395
16642TIP3   OH271416   0.192   5.573  12.397  0.0248 -0.3189 -0.1317
16642TIP3    H171417   0.236   5.641  12.447  0.5245  0.6358 -1.7786
16642TIP3    H271418   0.196   5.495  12.452  0.7241  0.6227  1.1905
16643TIP3   OH271419   3.405   2.971  16.309  0.7710  0.2773  0.0576
16643TIP3    H171420   3.481   2.928  16.346 -0.3613 -2.3354 -0.4521
16643TIP3    H271421   3.433   3.000  16.222  1.2701 -0.4279 -0.0233
16644TIP3   OH271422   3.352   4.179  16.263 -0.0410  0.6187 -0.4366
16644TIP3    H171423   3.333   4.101  16.315  1.1281  0.0519 -0.8307
16644TIP3    H271424   3.271   4.230  16.267 -1.1736 -1.0426 -0.9211
16645TIP3   OH271425   0.137   0.157  11.681  0.5595  0.1321 -0.8795
16645TIP3    H171426   0.076   0.089  11.713  2.1888 -0.9255  0.1233
16645TIP3    H271427   0.155   0.211  11.758  0.7623  0.5554 -1.2215
16646TIP3   OH271428   2.475   3.018  13.834 -0.0852  0.0764  0.1630
16646TIP3    H171429   2.415   2.943  13.839 -1.2203  1.0518  2.1293
16646TIP3    H271430   2.557   2.984  13.870 -0.2681 -0.5184  0.0346
16647TIP3   OH271431   6.045   1.585  15.239  0.1074  0.0019 -0.2180
16647TIP3    H171432   6.104   1.585  15.315  1.0220  1.1520 -0.8976
16647TIP3    H271433   6.019   1.677  15.230 -2.1161 -0.5166  0.2766
16648TIP3   OH271434   3.930   5.802  10.982  0.1245  0.3321 -0.0324
16648TIP3    H171435   3.851   5.748  10.986 -0.9235  1.5737 -2.0930
16648TIP3    H271436   3.988   5.755  10.922  0.4591  0.0166  0.5360
16649TIP3   OH271437   0.925   5.755  13.845  0.1380  0.2491 -0.0532
16649TIP3    H171438   0.845   5.800  13.818 -0.0927 -0.7756 -1.1458
16649TIP3    H271439   0.897   5.701  13.919 -0.1094  0.1433 -0.2205
16650TIP3   OH271440   0.504   6.356   2.390 -0.1716  0.2137 -0.7978
16650TIP3    H171441   0.489   6.282   2.448  0.2085 -0.3454 -1.3919
16650TIP3    H271442   0.598   6.372   2.394 -0.2254  0.5458 -0.8126
16651TIP3   OH271443   1.248   1.891   5.118 -0.0079 -0.2243 -0.3351
16651TIP3    H171444   1.203   1.972   5.095 -0.7729 -0.6038 -0.2236
16651TIP3    H271445   1.235   1.882   5.213  0.1753 -0.4127 -0.3274
16652TIP3   OH271446   4.712   6.386  10.873 -0.3041  0.4611  0.0163
16652TIP3    H171447   4.624   6.422  10.860 -0.7653 -0.7591 -0.3777
16652TIP3    H271448   4.738   6.354  10.786 -0.2905 -0.9337  0.4976
16653TIP3   OH271449   6.602   4.194  12.437 -0.0063  0.2496 -0.0516
16653TIP3    H171450   6.580   4.148  12.518 -0.9798  0.2162 -0.3192
16653TIP3    H271451   6.553   4.148  12.369 -0.1436  1.0144 -0.4821
16654TIP3   OH271452   6.253   2.428  16.709  0.1817  0.1492  0.5840
16654TIP3    H171453   6.318   2.493  16.735  0.5429  0.1874 -0.3805
16654TIP3    H271454   6.232   2.382  16.790  0.4828  0.9635  1.1362
16655TIP3   OH271455   2.173   1.496  15.769  0.3964 -0.1075  0.4953
16655TIP3    H171456   2.242   1.519  15.707 -0.3413  0.0097 -0.2985
16655TIP3    H271457   2.128   1.579  15.787  0.1643 -0.2639  0.6383
16656TIP3   OH271458   1.784   5.230  12.795 -0.8886  0.0619  0.4327
16656TIP3    H171459   1.693   5.203  12.777 -1.3407  1.2284  0.9024
16656TIP3    H271460   1.805   5.187  12.878 -1.3345  0.5147  0.7858
16657TIP3   OH271461   4.282   4.240  12.959 -0.2798  0.2518  0.1676
16657TIP3    H171462   4.360   4.194  12.989 -0.7824  0.4974  1.9451
16657TIP3    H271463   4.228   4.171  12.918  0.3632 -0.1230 -0.0615
16658TIP3   OH271464   6.613   4.922  12.263  1.2404 -0.1492 -0.2924
16658TIP3    H171465   6.631   4.998  12.318 -1.3440 -0.1948  0.7209
16658TIP3    H271466   6.689   4.916  12.206  2.1530  2.3431  0.5300
16659TIP3   OH271467   4.170   1.204   5.441  0.3787 -0.2928  0.8137
16659TIP3    H171468   4.102   1.233   5.381  1.3901  1.0239  0.2371
16659TIP3    H271469   4.170   1.269   5.511 -0.7587 -1.7890  2.2745
16660TIP3   OH271470   2.980   6.019  15.390 -0.2130  0.3712 -0.0519
16660TIP3    H171471   3.032   5.942  15.364 -0.1805  0.4205 -0.1318
16660TIP3    H271472   3.036   6.064  15.454 -1.5209 -1.3948  2.5020
16661TIP3   OH271473   4.836   2.347   6.094  0.2023 -0.9082 -0.0403
16661TIP3    H171474   4.807   2.305   6.013 -1.1109 -1.6650  0.7797
16661TIP3    H271475   4.872   2.275   6.146 -1.3550 -0.9304  1.0706
16662TIP3   OH271476   2.021   5.702  12.469  0.5200 -0.3915  0.2193
16662TIP3    H171477   2.044   5.657  12.388  1.4762  0.4561  0.0004
16662TIP3    H271478   2.091   5.766  12.481 -1.8848  2.6956 -0.7607
16663TIP3   OH271479   0.070   3.715  12.955 -0.1795 -0.3912  0.5259
16663TIP3    H171480   0.031   3.774  12.890  0.3574  0.0634  0.6129
16663TIP3    H271481   0.069   3.629  12.913  0.0086 -0.1311 -0.0177
16664TIP3   OH271482   3.973   6.172   5.772 -0.2119  0.2103 -0.1185
16664TIP3    H171483   3.918   6.149   5.697  0.6976 -1.4388 -0.3286
16664TIP3    H271484   3.913   6.210   5.836 -0.8239  3.0430 -2.1708
16665TIP3   OH271485   4.882   3.325  13.846 -0.1917 -0.2552  0.0801
16665TIP3    H171486   4.951   3.371  13.894 -0.9572 -0.5677  1.5371
16665TIP3    H271487   4.882   3.237  13.884 -1.2465 -0.3194 -0.0384
16666TIP3   OH271488   4.597   0.780   3.014  0.1295 -0.4469 -0.6007
16666TIP3    H171489   4.512   0.742   3.039 -1.0411  1.6698 -1.1056
16666TIP3    H271490   4.614   0.746   2.926 -0.6312 -0.2422 -0.8375
16667TIP3   OH271491   0.858   3.579  13.732  0.1762  0.4019  0.3783
16667TIP3    H171492   0.892   3.583  13.643  1.0411  0.4791  0.6965
16667TIP3    H271493   0.936   3.571  13.787 -0.3096  0.8917  1.1631
16668TIP3   OH271494   1.694   6.200   0.758  0.6093  0.1016  0.0735
16668TIP3    H171495   1.642   6.131   0.718 -0.6195  1.3111 -0.4579
16668TIP3    H271496   1.630   6.260   0.796  1.4014  3.0413 -2.8713
16669TIP3   OH271497   4.678   1.735   3.551 -0.3916 -0.1139 -0.6765
16669TIP3    H171498   4.756   1.757   3.500 -1.4388  0.2787 -2.1725
16669TIP3    H271499   4.710   1.727   3.641  1.4311 -0.3544 -1.3076
16670TIP3   OH271500   0.040   6.839  14.924  0.1540 -0.6787 -0.7963
16670TIP3    H171501  -0.010   6.758  14.938  0.2189 -0.6350 -0.2796
16670TIP3    H271502   0.053   6.874  15.012  0.8310 -0.5320 -0.9520
16671TIP3   OH271503   0.375   5.158  11.137  0.4826 -0.1113  0.1766
16671TIP3    H171504   0.358   5.178  11.045 -1.9563  0.6574  0.7269
16671TIP3    H271505   0.313   5.088  11.159  0.5955  0.1314  1.3695
16672TIP3   OH271506   5.008   5.698  12.201  0.0716 -0.2554  0.6887
16672TIP3    H171507   4.991   5.604  12.204  1.3731 -0.5555 -0.4908
16672TIP3    H271508   4.945   5.732  12.137  0.6647 -0.5842 -0.0755
16673TIP3   OH271509   1.837   5.883  16.040 -0.2061 -0.2385  0.1963
16673TIP3    H171510   1.812   5.960  15.989 -0.8344 -0.5918 -0.0510
16673TIP3    H271511   1.790   5.811  15.998  1.2557 -0.9394 -0.2709
16674TIP3   OH271512   4.774   4.208   5.774 -0.0401  0.3040  0.2663
16674TIP3    H171513   4.722   4.183   5.851  0.3442  1.1355  0.8003
16674TIP3    H271514   4.850   4.253   5.809  0.7405 -0.3390 -0.5500
16675TIP3   OH271515   3.411   3.519   0.037  0.2026 -0.3864 -0.5275
16675TIP3    H171516   3.399   3.424   0.039 -1.8986 -0.2042 -1.3183
16675TIP3    H271517   3.347   3.553   0.100 -0.4009  0.5469 -1.5918
16676TIP3   OH271518   6.297   0.124   0.574  0.6357  0.2298  0.5345
16676TIP3    H171519   6.384   0.120   0.534  0.9415 -0.7833  1.2856
16676TIP3    H271520   6.247   0.056   0.530 -0.7394  2.6542 -1.9989
16677TIP3   OH271521   3.765   1.174  13.458 -0.3939 -0.2520 -0.1763
16677TIP3    H171522   3.845   1.226  13.459 -0.5734  0.0209  0.2391
16677TIP3    H271523   3.729   1.184  13.546  0.2239 -2.1018  0.3407
16678TIP3   OH271524   2.278   6.421   0.064  0.3222 -0.1176 -0.0261
16678TIP3    H171525   2.205   6.479   0.087  1.1013  0.5938  0.7290
16678TIP3    H271526   2.310   6.389   0.149 -0.2701 -1.9097 -0.4346
16679TIP3   OH271527   5.664   0.263   1.972  0.4293 -0.3831 -0.5490
16679TIP3    H171528   5.742   0.238   1.922  0.5354  0.3750 -0.7743
16679TIP3    H271529   5.699   0.294   2.056  0.4594  0.8655 -1.0017
16680TIP3   OH271530   2.800   2.089   6.076 -0.1592  0.0486 -0.5726
16680TIP3    H171531   2.803   2.106   5.982 -0.1874  1.3223 -0.3548
16680TIP3    H271532   2.892   2.089   6.103 -0.1446 -0.4246 -0.6054
16681TIP3   OH271533   2.610   0.028   0.052 -0.3970  0.0083 -0.5188
16681TIP3    H171534   2.536   0.077   0.016 -1.0314 -1.4913 -1.3585
16681TIP3    H271535   2.572  -0.056   0.079  0.9086 -0.5973 -0.4995
16682TIP3   OH271536   6.561   1.386   2.257 -0.3657 -0.1496 -0.4179
16682TIP3    H171537   6.502   1.421   2.190  0.2248 -3.1266 -2.7072
16682TIP3    H271538   6.503   1.350   2.324 -1.1234 -1.1231 -1.5723
16683TIP3   OH271539   5.351   0.335  16.286 -0.7568 -0.1942 -0.0712
16683TIP3    H171540   5.334   0.257  16.233 -1.2657 -0.3970  0.3860
16683TIP3    H271541   5.429   0.374  16.245 -0.4588 -0.9674 -0.2765
16684TIP3   OH271542   3.636   2.639  16.659  0.1484  0.3319 -0.4150
16684TIP3    H171543   3.705   2.700  16.634 -0.0436 -0.2420 -2.5719
16684TIP3    H271544   3.682   2.566  16.699  0.7248  0.3591 -1.0063
16685TIP3   OH271545   6.619   6.514  11.295 -0.1992 -0.1494 -0.5764
16685TIP3    H171546   6.699   6.472  11.262  0.5690  0.0987  0.8724
16685TIP3    H271547   6.627   6.606  11.269 -0.5512 -0.3403 -1.3749
16686TIP3   OH271548   4.122   1.633   5.631 -0.0052  0.6657 -0.5371
16686TIP3    H171549   4.111   1.636   5.726 -1.7385 -1.2604 -0.6313
16686TIP3    H271550   4.109   1.724   5.603 -0.1510  1.1417  0.9896
16687TIP3   OH271551   4.905   4.422  14.478  0.2330 -0.5613  0.3127
16687TIP3    H171552   4.836   4.362  14.448 -0.1209 -0.8700  1.6994
16687TIP3    H271553   4.964   4.366  14.529  0.7944 -0.0368  0.2452
16688TIP3   OH271554   5.778   2.032   1.564 -0.3086  0.1242 -0.3553
16688TIP3    H171555   5.770   1.950   1.613 -1.3249  0.6384  0.3615
16688TIP3    H271556   5.857   2.020   1.510  0.0658 -0.9719  0.4072
16689TIP3   OH271557   3.865   0.955   3.971 -0.3587  0.2147 -0.5014
16689TIP3    H171558   3.901   1.029   3.923  0.7768 -0.7101 -1.1172
16689TIP3    H271559   3.869   0.982   4.063 -0.4977  1.1374 -0.7593
16690TIP3   OH271560   6.071   2.438   2.125 -0.0501  0.0996  0.0839
16690TIP3    H171561   6.021   2.357   2.135  0.8353 -0.3686  0.9030
16690TIP3    H271562   6.032   2.481   2.049 -1.6317 -0.2803  0.6399
16691TIP3   OH271563   0.655   2.643   3.599 -0.1725 -0.1864 -0.1679
16691TIP3    H171564   0.706   2.573   3.639 -0.3007 -0.2887 -0.1808
16691TIP3    H271565   0.624   2.605   3.517  1.1480  0.4451 -0.9874
16692TIP3   OH271566   2.858   2.351  12.599 -0.0319  0.0482 -0.2856
16692TIP3    H171567   2.878   2.418  12.535 -0.4853 -1.1391 -1.7238
16692TIP3    H271568   2.944   2.317  12.627  0.2353 -2.2294 -3.3843
16693TIP3   OH271569   3.581   0.331   0.817 -0.4145 -0.4191  0.0796
16693TIP3    H171570   3.644   0.260   0.804 -1.5605 -1.0638 -2.5418
16693TIP3    H271571   3.624   0.390   0.879  2.0666 -1.6330 -0.3603
16694TIP3   OH271572   5.216   4.581  14.450 -0.0604  0.0887  0.2162
16694TIP3    H171573   5.180   4.559  14.536 -1.9342 -0.9250 -0.7756
16694TIP3    H271574   5.311   4.586  14.465 -0.1993 -1.5451  2.0200
16695TIP3   OH271575   4.867   2.627   2.274  0.1603 -0.1091 -0.3374
16695TIP3    H171576   4.849   2.649   2.182  0.6419 -1.0395 -0.6632
16695TIP3    H271577   4.895   2.536   2.272  1.3539  0.2100  0.5830
16696TIP3   OH271578   1.240   4.030  14.878  0.1833  0.5327  0.1429
16696TIP3    H171579   1.302   4.085  14.829  0.8461  0.4061  0.8226
16696TIP3    H271580   1.189   3.986  14.810  2.5031 -1.2961 -0.5837
16697TIP3   OH271581   2.270   5.298  15.392  0.5263 -0.0282 -0.1737
16697TIP3    H171582   2.281   5.227  15.329  1.2480  1.2735 -1.6018
16697TIP3    H271583   2.235   5.256  15.471  1.2821 -1.9991 -0.8310
16698TIP3   OH271584   3.380   6.248  16.836 -0.1066  0.4030  0.5588
16698TIP3    H171585   3.351   6.284  16.919  2.8320  1.6754  1.1871
16698TIP3    H271586   3.439   6.176  16.860 -0.1189  0.0364 -0.4487
16699TIP3   OH271587   4.429   1.840   5.619  0.3190 -0.3801  0.1306
16699TIP3    H171588   4.455   1.831   5.710 -0.0685 -1.1097  0.1817
16699TIP3    H271589   4.415   1.750   5.589  2.1426 -0.3059 -1.1593
16700TIP3   OH271590   5.569   5.259  16.193 -0.0457 -0.2562  0.1738
16700TIP3    H171591   5.637   5.266  16.125  0.6433 -1.9023  0.6346
16700TIP3    H271592   5.489   5.289  16.150  0.9363  1.7696 -0.3763
16701TIP3   OH271593   3.250   4.680   3.953  0.1277  0.4128 -0.1804
16701TIP3    H171594   3.319   4.746   3.947 -0.6633  1.1538 -1.9630
16701TIP3    H271595   3.228   4.660   3.861  1.2702 -3.3827  0.1776
16702TIP3   OH271596   2.647   5.435   5.273  0.0357 -0.2288 -0.0375
16702TIP3    H171597   2.705   5.434   5.350  0.5842  1.9602 -0.3387
16702TIP3    H271598   2.564   5.468   5.306 -0.0978 -0.4279 -0.1740
16703TIP3   OH271599   2.212   3.402  12.389  0.1145 -0.1863 -0.1363
16703TIP3    H171600   2.205   3.468  12.458 -0.7762  0.9314 -1.2514
16703TIP3    H271601   2.227   3.452  12.309 -0.4439 -1.3344 -0.9967
16704TIP3   OH271602   4.413   5.518   3.855  0.2927  0.4413 -0.2196
16704TIP3    H171603   4.397   5.439   3.907  2.6527  0.5151  0.7236
16704TIP3    H271604   4.327   5.539   3.818 -0.8242 -1.4193  1.0963
16705TIP3   OH271605   1.998   5.153   2.921 -0.8545 -0.3527  0.1826
16705TIP3    H171606   2.024   5.078   2.866  0.4595  0.0696  0.2092
16705TIP3    H271607   1.931   5.198   2.869 -0.0152 -0.2640 -0.8522
16706TIP3   OH271608   3.036   1.484   4.570 -0.0689  0.2214 -0.5934
16706TIP3    H171609   3.097   1.510   4.501  0.2829  0.1725 -0.3069
16706TIP3    H271610   3.039   1.556   4.634 -0.8636  0.5575 -0.9228
16707TIP3   OH271611   4.421   0.569  16.073 -0.1710  0.3001 -0.0222
16707TIP3    H171612   4.347   0.512  16.052 -0.7342  0.3927  1.5606
16707TIP3    H271613   4.495   0.530  16.026 -0.8061 -0.9832 -0.0198
16708TIP3   OH271614   3.325   3.178   0.790 -0.1353  0.2295  0.8781
16708TIP3    H171615   3.249   3.147   0.838 -0.0068  0.0067  0.9417
16708TIP3    H271616   3.335   3.115   0.719  0.4814 -0.2201  1.3531
16709TIP3   OH271617   5.364   4.448  16.902 -0.2876 -0.4289  0.5202
16709TIP3    H171618   5.425   4.476  16.970 -0.2382  0.3313  0.1810
16709TIP3    H271619   5.334   4.530  16.862 -0.6219 -0.8460 -0.1044
16710TIP3   OH271620   2.805   6.146  12.179 -0.2230 -0.4573 -0.0680
16710TIP3    H171621   2.779   6.082  12.245  0.0608 -0.3627  0.1437
16710TIP3    H271622   2.879   6.106  12.134 -0.1228 -0.3331 -0.0170
16711TIP3   OH271623   5.980   4.178  16.084  0.2741  0.1530  0.1213
16711TIP3    H171624   6.069   4.151  16.107 -0.2028 -0.1289  1.8316
16711TIP3    H271625   5.992   4.255  16.028  1.5949  0.4891  0.8154
16712TIP3   OH271626   6.379   2.545   1.501  0.3636 -0.7227  0.6752
16712TIP3    H171627   6.308   2.503   1.451  0.6502 -1.3288  0.7729
16712TIP3    H271628   6.333   2.604   1.562  0.0226  0.5765 -0.7506
16713TIP3   OH271629   3.707   6.011  11.629 -0.6367  0.1852  0.0449
16713TIP3    H171630   3.636   6.073  11.613 -2.0262 -0.9679  1.3575
16713TIP3    H271631   3.716   5.963  11.547 -1.7521  0.0153 -0.0002
16714TIP3   OH271632   1.144   5.411   5.271 -1.1019 -0.4447  0.5247
16714TIP3    H171633   1.214   5.445   5.327 -3.2075 -0.9108  3.7259
16714TIP3    H271634   1.100   5.490   5.238  0.2982 -0.1623 -0.7851
16715TIP3   OH271635   3.879   4.804   4.699  0.7808 -0.7498 -0.1481
16715TIP3    H171636   3.876   4.821   4.793 -0.2340 -1.0800 -0.1124
16715TIP3    H271637   3.810   4.859   4.662  3.0195  1.6582 -1.1095
16716TIP3   OH271638   5.808   3.594   1.219 -0.0959 -0.3214  0.2316
16716TIP3    H171639   5.727   3.589   1.168 -0.0089  1.8338 -0.2129
16716TIP3    H271640   5.815   3.508   1.262 -0.8045 -1.7896 -2.3785
16717TIP3   OH271641   3.902   2.257  13.117 -0.0702 -0.7305 -0.4390
16717TIP3    H171642   3.857   2.202  13.181  0.2010 -0.5408 -0.0751
16717TIP3    H271643   3.871   2.227  13.032 -0.2016 -1.1946 -0.2268
16718TIP3   OH271644   0.913   0.314  11.104 -0.0226  0.3161 -0.0468
16718TIP3    H171645   0.831   0.340  11.146 -0.7511 -1.9334  0.0979
16718TIP3    H271646   0.972   0.388  11.117 -1.6075  1.4527  1.0374
16719TIP3   OH271647   5.375   4.186   1.029 -0.0549 -0.2992 -0.4994
16719TIP3    H171648   5.314   4.166   1.100  0.7291  0.7597  0.5215
16719TIP3    H271649   5.458   4.147   1.057  0.2472  0.0822 -0.8397
16720TIP3   OH271650   5.233   4.812  11.275  0.6218  0.7252  0.0339
16720TIP3    H171651   5.218   4.856  11.191  1.1113  1.2698  0.2198
16720TIP3    H271652   5.276   4.879  11.329  0.5025  0.3136  0.6489
16721TIP3   OH271653   0.490   0.288   3.171  0.6773 -0.7403  0.7886
16721TIP3    H171654   0.476   0.256   3.261 -1.4896  1.6399  1.4204
16721TIP3    H271655   0.521   0.378   3.183 -1.2459  0.2101 -0.7539
16722TIP3   OH271656   1.045   5.212   5.005  0.2688 -0.1646  0.0498
16722TIP3    H171657   1.108   5.282   4.988 -0.4836  0.0902 -1.9028
16722TIP3    H271658   1.069   5.178   5.091  1.2357  1.8574  0.6179
16723TIP3   OH271659   1.389   2.088   0.389 -0.1226 -0.2603  0.1975
16723TIP3    H171660   1.479   2.103   0.418  0.4492 -1.9014 -0.5924
16723TIP3    H271661   1.397   2.058   0.299 -1.5906  0.9266 -0.3733
16724TIP3   OH271662   4.993   5.550   4.850 -0.0363  1.1244 -0.5816
16724TIP3    H171663   4.944   5.507   4.780 -2.4009  0.5538  1.2839
16724TIP3    H271664   4.930   5.611   4.889  0.9512  0.9291  1.4506
16725TIP3   OH271665   4.944   1.841   2.268  0.3707 -0.0811 -0.9364
16725TIP3    H171666   4.879   1.880   2.210 -0.7453  0.2955  0.5019
16725TIP3    H271667   4.973   1.914   2.324  2.4236 -0.1249 -1.8568
16726TIP3   OH271668   4.169   1.141   1.384  0.2360  0.4574  0.7481
16726TIP3    H171669   4.207   1.224   1.412  0.5805  0.8999 -0.9189
16726TIP3    H271670   4.089   1.165   1.338  1.1631  0.0651 -1.2061
16727TIP3   OH271671   5.874   2.592  15.675 -0.1906  0.1067  0.5646
16727TIP3    H171672   5.911   2.679  15.691 -2.6232  0.9647  2.2243
16727TIP3    H271673   5.822   2.602  15.595 -0.8807  0.3514  1.0355
16728TIP3   OH271674   4.770   0.848  16.121  0.0107  0.1767  0.6901
16728TIP3    H171675   4.759   0.942  16.130 -0.4257 -0.0178  2.6043
16728TIP3    H271676   4.818   0.837  16.039 -0.2143  2.0271  0.2747
16729TIP3   OH271677   1.029   5.617  15.190  0.2305  0.0846  0.3556
16729TIP3    H171678   1.074   5.568  15.259 -1.2647 -0.6835  0.8415
16729TIP3    H271679   0.942   5.636  15.227 -0.7106 -0.5535 -1.3831
16730TIP3   OH271680   1.443   0.571   4.166 -0.6879 -0.2372  0.3078
16730TIP3    H171681   1.369   0.633   4.162  1.8274  3.0304  0.4958
16730TIP3    H271682   1.489   0.585   4.083  1.1296 -0.2397  1.2855
16731TIP3   OH271683   3.616   0.165   2.762  1.0191 -0.5419 -0.3392
16731TIP3    H171684   3.611   0.077   2.724  0.1511 -0.0957 -1.2829
16731TIP3    H271685   3.564   0.220   2.704  1.5957  0.6234  0.2076
16732TIP3   OH271686   3.085   3.968   0.574 -0.3545 -0.1254  0.4272
16732TIP3    H171687   3.027   3.907   0.620  0.2636 -0.0180  1.3861
16732TIP3    H271688   3.128   3.915   0.508 -1.0142 -0.3636  0.1846
16733TIP3   OH271689   1.559   3.270  14.861  0.1326  0.1502 -0.7673
16733TIP3    H171690   1.629   3.222  14.818 -0.2643 -0.2628 -0.9703
16733TIP3    H271691   1.515   3.204  14.916  0.1962  0.5108 -0.2764
16734TIP3   OH271692   2.489   2.789   0.355  0.7190 -0.4509  0.6411
16734TIP3    H171693   2.519   2.835   0.434 -0.7532  1.5137  0.1399
16734TIP3    H271694   2.394   2.783   0.366  0.4747  0.0039 -1.0541
16735TIP3   OH271695   0.358   5.828  13.948 -0.1878 -0.0326  0.4336
16735TIP3    H171696   0.352   5.910  13.997  1.0916  0.4835 -0.2021
16735TIP3    H271697   0.450   5.802  13.957  0.5092  0.8610 -2.8166
16736TIP3   OH271698   5.870   1.582   4.565  0.0557  0.2503 -0.3028
16736TIP3    H171699   5.781   1.547   4.560  1.0636 -2.6122 -0.4899
16736TIP3    H271700   5.921   1.509   4.601  2.1927  2.1139  0.6689
16737TIP3   OH271701   5.407   2.647  13.923 -0.2989 -0.4838 -0.1232
16737TIP3    H171702   5.434   2.599  13.844 -0.9854 -2.9321  1.0284
16737TIP3    H271703   5.448   2.598  13.995 -0.6124  1.0239  1.1200
16738TIP3   OH271704   2.456   6.686   0.254 -0.1698 -0.2750 -0.3506
16738TIP3    H171705   2.471   6.619   0.187  0.7475 -1.9336  1.4111
16738TIP3    H271706   2.364   6.711   0.243 -1.0045 -2.9387 -0.1421
16739TIP3   OH271707   2.423   4.126   0.503 -0.0333 -0.3723 -0.0719
16739TIP3    H171708   2.482   4.136   0.428 -1.8311  1.5092 -1.3347
16739TIP3    H271709   2.449   4.195   0.563 -0.6086  0.1526 -0.4151
16740TIP3   OH271710   1.670   1.410   3.827  0.2345 -0.4496 -0.0402
16740TIP3    H171711   1.750   1.450   3.860 -0.4552 -0.0679  1.2430
16740TIP3    H271712   1.622   1.483   3.786 -0.8498  0.0416  1.9651
16741TIP3   OH271713   0.570   4.441  11.255 -0.2863  0.1827  0.0604
16741TIP3    H171714   0.513   4.368  11.281 -2.9966  1.5080 -1.7208
16741TIP3    H271715   0.517   4.493  11.195  2.4099  2.3041 -0.6950
16742TIP3   OH271716   2.582   1.057   2.182 -0.5783  0.6679 -0.3044
16742TIP3    H171717   2.496   1.049   2.140 -0.1295 -1.7712 -0.9276
16742TIP3    H271718   2.643   1.019   2.119  0.3253 -1.7306  1.8202
16743TIP3   OH271719   2.602   3.481  14.939  0.6741  0.5463  0.4442
16743TIP3    H171720   2.519   3.435  14.927  0.1812  1.2982  0.8719
16743TIP3    H271721   2.592   3.563  14.891  0.7199  1.1623  1.4571
16744TIP3   OH271722   4.362   3.686   2.759 -0.4795  0.1915  0.1764
16744TIP3    H171723   4.399   3.773   2.773  0.5892 -0.2766  0.3298
16744TIP3    H271724   4.357   3.677   2.664  0.0953  0.1494  0.1452
16745TIP3   OH271725   2.452   5.893  11.592 -0.4989 -1.0561 -0.0986
16745TIP3    H171726   2.403   5.948  11.531  1.6748 -1.7345 -2.6566
16745TIP3    H271727   2.515   5.952  11.632  1.2719 -1.3758 -2.2189
16746TIP3   OH271728   3.385   3.996  14.276 -0.3898  0.1807 -0.0957
16746TIP3    H171729   3.400   3.920  14.219 -0.5826 -0.8463  1.1838
16746TIP3    H271730   3.361   4.066  14.216 -0.1808 -0.7532 -1.3183
16747TIP3   OH271731   3.053   4.183  16.931  0.3919 -0.0708 -0.2632
16747TIP3    H171732   2.962   4.156  16.927  0.5457 -0.7712  0.5597
16747TIP3    H271733   3.053   4.274  16.904 -0.4414 -0.2941 -1.0321
16748TIP3   OH271734   0.496   4.544  12.977 -0.4588  0.1545  0.2731
16748TIP3    H171735   0.573   4.505  12.936 -0.4173  1.2253 -0.7115
16748TIP3    H271736   0.423   4.515  12.923 -0.6521 -0.1082  0.6686
16749TIP3   OH271737   3.514   0.813   3.751 -0.0652  0.5132 -0.0133
16749TIP3    H171738   3.593   0.782   3.705 -0.3005  0.3413 -0.3040
16749TIP3    H271739   3.465   0.734   3.771 -0.5635  0.6813 -0.5629
16750TIP3   OH271740   4.044   3.103   0.578 -0.2271  0.2106 -0.8507
16750TIP3    H171741   4.061   3.075   0.668  2.7845 -0.5657 -1.5403
16750TIP3    H271742   4.101   3.179   0.566 -0.1200 -0.0844 -2.2836
16751TIP3   OH271743   4.674   2.414   2.348  0.0019  0.0829  0.1753
16751TIP3    H171744   4.642   2.352   2.283 -0.7392  0.0631  0.5439
16751TIP3    H271745   4.628   2.496   2.329  0.4607  0.3280  0.1128
16752TIP3   OH271746   3.980   5.944   4.907  0.2038 -0.2028  0.2926
16752TIP3    H171747   4.012   5.996   4.981  0.7486  0.9505 -0.7202
16752TIP3    H271748   3.935   5.869   4.948 -0.4527  0.9538  1.7988
16753TIP3   OH271749   5.471   4.638   1.615 -0.1789 -0.0203  0.5248
16753TIP3    H171750   5.475   4.547   1.646  1.0803 -0.3546 -0.5552
16753TIP3    H271751   5.403   4.637   1.547  0.0104 -0.2165  0.3367
16754TIP3   OH271752   1.245   1.936  16.998  0.5343 -0.1569  0.0985
16754TIP3    H171753   1.332   1.908  16.970 -0.0206 -0.4874 -1.3725
16754TIP3    H271754   1.260   1.984  17.080  2.2193  0.8282 -0.7498
16755TIP3   OH271755   5.472   3.136   6.071  0.1800 -0.7413 -0.3057
16755TIP3    H171756   5.401   3.116   6.010 -1.1115  1.0898  0.4942
16755TIP3    H271757   5.434   3.122   6.158  0.7054  0.4429  0.1405
16756TIP3   OH271758   3.061   1.607   2.583  0.0461 -0.2192  0.1994
16756TIP3    H171759   2.980   1.563   2.558 -0.1200  0.8297 -1.2509
16756TIP3    H271760   3.128   1.539   2.576 -0.5905 -0.9218  0.7483
16757TIP3   OH271761   2.949   1.485  15.574  0.2322 -0.1703 -0.6835
16757TIP3    H171762   2.972   1.473  15.482 -0.3407 -2.3074 -0.6121
16757TIP3    H271763   2.881   1.552  15.573 -0.4597 -0.8440 -1.9409
16758TIP3   OH271764   1.889   0.280  13.007  0.2750  0.2623  0.3373
16758TIP3    H171765   1.851   0.362  13.038  1.2241  0.4159  1.1432
16758TIP3    H271766   1.943   0.305  12.932 -0.1706  0.2251 -0.0038
16759TIP3   OH271767   6.564   0.676  11.841  0.3530  0.1117 -0.2365
16759TIP3    H171768   6.547   0.714  11.927  0.5642  0.5543 -0.3875
16759TIP3    H271769   6.655   0.698  11.822 -0.2942  1.8924 -1.5073
16760TIP3   OH271770   3.077   4.566  12.264  0.3210 -0.0115 -1.0453
16760TIP3    H171771   3.164   4.565  12.304 -0.9520 -1.8151  2.0084
16760TIP3    H271772   3.035   4.644  12.300 -0.6916 -1.4340  1.1238
16761TIP3   OH271773   4.639   2.417   5.828 -0.1217 -0.2745  0.4653
16761TIP3    H171774   4.567   2.471   5.860 -1.5624 -0.5951 -1.9656
16761TIP3    H271775   4.693   2.478   5.776  0.7085 -0.3043  1.2601
16762TIP3   OH271776   3.681   0.165  13.230 -0.0713 -0.1521 -0.0605
16762TIP3    H171777   3.741   0.111  13.282  0.5534 -0.0877 -0.6874
16762TIP3    H271778   3.627   0.102  13.183  0.8453 -0.2654 -1.0082
16763TIP3   OH271779   5.527   4.325   6.238  0.1546 -0.0417 -0.8910
16763TIP3    H171780   5.534   4.231   6.226 -2.0625 -0.5105  0.8771
16763TIP3    H271781   5.613   4.352   6.271  0.4549 -1.6461 -0.2703
16764TIP3   OH271782   0.414   4.431  12.342 -0.6959  0.0538 -0.0403
16764TIP3    H171783   0.331   4.448  12.297 -0.8636  0.4777  0.4201
16764TIP3    H271784   0.398   4.350  12.390  0.0459 -1.3821 -2.0916
16765TIP3   OH271785   2.662   1.628  14.893 -0.1002  0.2792  0.2572
16765TIP3    H171786   2.666   1.559  14.827 -2.1847 -0.0200  0.3751
16765TIP3    H271787   2.741   1.679  14.879  0.0365 -0.3928 -1.7967
16766TIP3   OH271788   1.831   2.161  16.935  0.0890 -0.1573  0.2683
16766TIP3    H171789   1.764   2.100  16.967  0.7980 -1.5822 -0.8289
16766TIP3    H271790   1.783   2.221  16.878 -0.5032 -0.2056  0.7096
16767TIP3   OH271791   3.652   6.490  16.280  0.0193  0.1009 -0.2154
16767TIP3    H171792   3.658   6.549  16.205 -0.2067 -0.0186 -0.3292
16767TIP3    H271793   3.652   6.548  16.356  0.4581  0.2121 -0.2948
16768TIP3   OH271794   3.308   2.920  12.478 -0.0469 -0.6582  0.3016
16768TIP3    H171795   3.216   2.898  12.460  0.0384 -1.4089  0.7628
16768TIP3    H271796   3.304   2.982  12.550 -0.2959  1.0360 -1.0883
16769TIP3   OH271797   3.922   3.097  13.671 -0.6375 -0.2107 -0.2062
16769TIP3    H171798   3.967   3.134  13.748 -0.2173 -0.0988 -0.5004
16769TIP3    H271799   3.895   3.009  13.699  0.5710 -0.6357 -0.3074
16770TIP3   OH271800   1.138   1.735  11.263  0.5230 -0.4714 -0.3795
16770TIP3    H171801   1.223   1.771  11.236 -0.0464 -0.2503 -1.9909
16770TIP3    H271802   1.141   1.644  11.236  0.1640 -0.4064 -0.6371
16771TIP3   OH271803   5.077   6.676  14.956  0.2052  0.3008 -0.2698
16771TIP3    H171804   5.043   6.590  14.981  2.2676 -0.2955  0.6183
16771TIP3    H271805   5.059   6.681  14.862 -0.9149 -0.6210 -0.1314
16772TIP3   OH271806   1.718   1.548  12.376  0.4967 -0.3053  0.6756
16772TIP3    H171807   1.682   1.460  12.388 -1.9196  0.3298 -1.1592
16772TIP3    H271808   1.794   1.535  12.319 -0.7854 -1.1160 -0.9530
16773TIP3   OH271809   5.902   3.361   3.139  0.3461  0.8286 -0.0622
16773TIP3    H171810   5.989   3.321   3.130  0.0451  0.0369  0.4567
16773TIP3    H271811   5.908   3.442   3.089  1.8075  1.4344  0.9973
16774TIP3   OH271812   5.733   5.779   1.955 -0.7370  0.1761  0.0712
16774TIP3    H171813   5.685   5.697   1.969  0.5895 -1.3274 -3.0949
16774TIP3    H271814   5.817   5.751   1.918  0.4905  2.9444  0.4945
16775TIP3   OH271815   6.689   0.245   4.066 -0.4970 -0.5212 -1.2939
16775TIP3    H171816   6.784   0.248   4.065 -0.5176  0.3832 -2.1621
16775TIP3    H271817   6.664   0.288   4.147 -0.1698 -1.1209 -0.8642
16776TIP3   OH271818   3.007   0.522   5.216  0.7028  0.0013  0.1522
16776TIP3    H171819   3.009   0.450   5.152  2.8121 -0.2864  0.4493
16776TIP3    H271820   3.089   0.512   5.265 -0.2398  1.0207  2.0232
16777TIP3   OH271821   6.121   1.904   0.120 -0.4294  0.2659  0.0558
16777TIP3    H171822   6.084   1.984   0.157 -1.7561 -1.0827  1.7930
16777TIP3    H271823   6.059   1.878   0.052  0.3698  1.0313 -1.0142
16778TIP3   OH271824   3.626   3.758  15.590  0.7873 -0.7643  0.4512
16778TIP3    H171825   3.633   3.744  15.496  0.3948  1.6533 -0.0176
16778TIP3    H271826   3.701   3.712  15.627  2.4936  0.3911 -1.3687
16779TIP3   OH271827   1.618   2.745   4.183 -0.5006  0.0911 -0.2534
16779TIP3    H171828   1.541   2.747   4.240  0.0809 -0.3073  0.5674
16779TIP3    H271829   1.631   2.652   4.163 -0.8796  0.2464 -1.3202
16780TIP3   OH271830   2.071   2.090   2.998  0.0840  0.6190 -0.3904
16780TIP3    H171831   2.163   2.116   2.996 -0.4466  2.6589 -0.3371
16780TIP3    H271832   2.031   2.141   2.928 -1.0750 -0.0041 -0.1945
16781TIP3   OH271833   6.729   4.574   3.652  0.0378  0.0154  0.0926
16781TIP3    H171834   6.792   4.508   3.623  1.6543  2.2615 -1.9264
16781TIP3    H271835   6.783   4.646   3.683 -1.4520  2.0418 -1.7349
16782TIP3   OH271836   5.233   0.128  16.167  0.7755 -0.1158 -0.3737
16782TIP3    H171837   5.230   0.106  16.074  0.3732  2.2865 -0.9889
16782TIP3    H271838   5.153   0.177  16.184  1.5088  0.7308  0.8808
16783TIP3   OH271839   4.934   5.955  16.826 -0.2066 -0.0750 -0.1353
16783TIP3    H171840   4.987   5.891  16.872  0.0627 -0.5916 -1.1503
16783TIP3    H271841   4.977   6.039  16.844 -0.0851 -0.2688  0.5061
16784TIP3   OH271842   0.372   0.550   4.456  0.2265  0.1590  0.3369
16784TIP3    H171843   0.344   0.473   4.506  0.5707 -1.0606 -1.2999
16784TIP3    H271844   0.396   0.516   4.370  2.4317  1.8069  0.2291
16785TIP3   OH271845   6.089   2.954   0.200  0.1054 -0.4855 -0.2807
16785TIP3    H171846   6.130   2.942   0.115  1.7452  1.3580  0.1592
16785TIP3    H271847   6.031   3.030   0.188 -0.6262 -1.0046 -0.0667
16786TIP3   OH271848   6.576   6.741   3.344 -0.2995 -0.5446 -0.1697
16786TIP3    H171849   6.499   6.712   3.295  1.1678 -1.3418 -2.1338
16786TIP3    H271850   6.581   6.682   3.419 -0.7938 -1.4310 -0.8166
16787TIP3   OH271851   4.445   6.260   1.734 -0.3946 -0.0119 -0.2582
16787TIP3    H171852   4.472   6.170   1.719  2.0682  1.0135 -2.9567
16787TIP3    H271853   4.371   6.274   1.676  0.8234  0.3071 -1.8100
16788TIP3   OH271854   2.658   3.464   4.520  0.4520  0.7356 -0.1665
16788TIP3    H171855   2.726   3.415   4.474 -1.6361 -0.7667 -1.8187
16788TIP3    H271856   2.682   3.456   4.612  1.9898 -0.5548 -0.6252
16789TIP3   OH271857   0.313   1.710  16.455 -0.1829 -0.3191  0.3371
16789TIP3    H171858   0.377   1.782  16.450 -1.7920  1.1397 -0.2521
16789TIP3    H271859   0.230   1.750  16.428 -1.4381 -2.0559  1.4155
16790TIP3   OH271860   4.872   5.865   4.169 -0.1276  0.1065 -0.0129
16790TIP3    H171861   4.953   5.911   4.150 -0.5647  1.9956  2.2993
16790TIP3    H271862   4.818   5.877   4.090  1.2942 -0.0409 -1.0404
16791TIP3   OH271863   6.631   3.987   6.502 -0.7372  0.2628  0.2014
16791TIP3    H171864   6.540   4.007   6.527  0.0958  1.7067  2.4008
16791TIP3    H271865   6.674   4.072   6.497  0.2851 -0.3149 -1.9635
16792TIP3   OH271866   1.601   5.539   3.208 -0.5209  0.1557 -0.1338
16792TIP3    H171867   1.693   5.532   3.235 -0.8057 -1.1993  0.5437
16792TIP3    H271868   1.599   5.618   3.154  1.2848 -0.4196 -1.1476
16793TIP3   OH271869   1.319   3.860  16.421 -0.3612 -0.2625  0.0188
16793TIP3    H171870   1.334   3.953  16.438  1.0003 -0.0402 -2.0982
16793TIP3    H271871   1.400   3.817  16.447  0.3370 -0.3662 -2.1240
16794TIP3   OH271872   5.485   0.675  13.463  0.2428  0.3710 -0.6042
16794TIP3    H171873   5.502   0.762  13.427  0.3375  1.5059  1.9206
16794TIP3    H271874   5.571   0.645  13.494 -0.4198  1.7009  3.0653
16795TIP3   OH271875   5.149   6.739  12.480 -0.0291  0.3115  0.1102
16795TIP3    H171876   5.215   6.757  12.547  0.8406 -0.2235 -0.5873
16795TIP3    H271877   5.102   6.663  12.512  1.1819 -0.7002 -0.4228
16796TIP3   OH271878   0.012   5.683   1.979  0.3042  0.7174 -0.1452
16796TIP3    H171879   0.035   5.775   1.985  1.6900  0.3697  0.1275
16796TIP3    H271880   0.086   5.636   2.018 -1.0821 -0.4483  1.2298
16797TIP3   OH271881   4.817   6.235  12.651 -0.3980  0.0578  0.1936
16797TIP3    H171882   4.854   6.285  12.724 -0.7865 -0.1138  0.5140
16797TIP3    H271883   4.806   6.146  12.686 -1.1975  0.1271  0.1419
16798TIP3   OH271884   1.115   4.490  14.414 -0.2001  0.0048 -0.6694
16798TIP3    H171885   1.134   4.421  14.350 -3.6994 -0.3483 -1.5396
16798TIP3    H271886   1.067   4.556  14.364 -2.5618 -0.0204  1.3947
16799TIP3   OH271887   6.150   0.465  16.172  0.1826 -0.4129 -0.8914
16799TIP3    H171888   6.201   0.545  16.181  0.7001 -0.6102 -1.9015
16799TIP3    H271889   6.164   0.417  16.253 -0.2051  0.5529 -0.2395
16800TIP3   OH271890   1.807   1.554   5.888  0.1107  0.3365  0.1629
16800TIP3    H171891   1.717   1.585   5.878  0.7142  1.8625 -0.9336
16800TIP3    H271892   1.825   1.562   5.982 -0.9690 -0.2542  0.4323
16801TIP3   OH271893   4.626   5.668  13.007  0.1767  0.4125 -0.2589
16801TIP3    H171894   4.647   5.751  13.051 -0.4738  0.7103 -0.4993
16801TIP3    H271895   4.674   5.673  12.924  2.0397 -0.4914  0.7118
16802TIP3   OH271896   2.475   0.611  15.405 -0.2766 -0.6781 -0.1063
16802TIP3    H171897   2.468   0.685  15.465 -0.9820  0.6041 -1.6691
16802TIP3    H271898   2.388   0.570  15.407 -0.4137 -0.4198 -0.4663
16803TIP3   OH271899   5.944   3.449   5.283 -0.5509  0.3997 -0.1073
16803TIP3    H171900   5.862   3.489   5.309 -1.0731 -1.7143  1.8068
16803TIP3    H271901   6.008   3.481   5.346 -0.3745  0.3350 -0.2512
16804TIP3   OH271902   1.124   0.596  12.178 -0.0004  0.5331  0.6574
16804TIP3    H171903   1.072   0.661  12.130  1.2945  0.5675 -0.7787
16804TIP3    H271904   1.076   0.514  12.168  0.6601  0.3466 -1.5384
16805TIP3   OH271905   6.197   3.885   1.996  0.1174 -0.9765  0.2756
16805TIP3    H171906   6.152   3.969   1.999  1.4743 -0.2070  3.0519
16805TIP3    H271907   6.194   3.859   1.904 -0.4026  2.0842 -0.6899
16806TIP3   OH271908   3.751   2.307   6.475  0.0448 -0.3558 -0.5263
16806TIP3    H171909   3.669   2.352   6.494  0.7634  0.6307  0.3444
16806TIP3    H271910   3.732   2.255   6.397 -1.1538  0.5615 -0.8790
16807TIP3   OH271911   1.661   4.315   2.732 -0.9778  0.0728  0.3057
16807TIP3    H171912   1.689   4.227   2.706  1.2877  0.5795  0.7546
16807TIP3    H271913   1.613   4.349   2.657 -0.7596 -1.0849 -0.3766
16808TIP3   OH271914   1.910   4.796  12.275  0.1081  0.3395 -0.4614
16808TIP3    H171915   1.955   4.728  12.325 -1.7644 -1.5593 -1.2298
16808TIP3    H271916   1.927   4.877  12.324  1.3547 -0.8632  1.1906
16809TIP3   OH271917   0.807   4.007   3.655 -0.0203  0.6573  0.1506
16809TIP3    H171918   0.821   3.931   3.711  1.4568 -0.7755 -2.0162
16809TIP3    H271919   0.894   4.042   3.638 -0.2343  0.1514 -2.3493
16810TIP3   OH271920   6.245   0.202   6.546  0.1992  0.2810 -0.8011
16810TIP3    H171921   6.261   0.116   6.585  2.1209  1.1225  0.4389
16810TIP3    H271922   6.265   0.264   6.617 -3.3624  1.7925 -0.8801
16811TIP3   OH271923   5.942   5.330  12.621 -0.2466 -0.1082  0.2059
16811TIP3    H171924   5.964   5.239  12.641  2.1101  0.3832  0.1530
16811TIP3    H271925   5.937   5.372  12.707 -2.8293 -0.5020  0.3417
16812TIP3   OH271926   3.312   4.097  10.728  0.2891  0.7764 -0.0770
16812TIP3    H171927   3.308   4.067  10.637 -0.6640 -1.1264  0.5343
16812TIP3    H271928   3.229   4.070  10.766  1.4526 -0.3398  1.8741
16813TIP3   OH271929   3.767   3.497  12.480  0.0495  0.2904 -0.7415
16813TIP3    H171930   3.717   3.543  12.548  0.2015 -0.9925  0.2895
16813TIP3    H271931   3.700   3.465  12.419 -0.0847  1.5143 -1.2512
16814TIP3   OH271932   3.961   6.753  15.445  0.8811  0.2508  0.2179
16814TIP3    H171933   3.927   6.727  15.530 -1.3609  1.4998 -0.2295
16814TIP3    H271934   4.032   6.814  15.465  1.7195 -0.9799  1.1642
16815TIP3   OH271935   5.014   2.417   1.975 -0.3796 -0.9671 -0.5391
16815TIP3    H171936   5.065   2.372   1.907 -1.3783 -0.2903 -1.7822
16815TIP3    H271937   4.944   2.461   1.927 -0.9151 -0.1749  0.9086
16816TIP3   OH271938   4.480   3.534  15.504  0.1332 -0.4242  0.3258
16816TIP3    H171939   4.504   3.458  15.452  2.1583  0.5094 -0.1726
16816TIP3    H271940   4.494   3.507  15.595  3.4015  0.0748  0.0753
16817TIP3   OH271941   3.193   0.597   4.452  0.5887  0.1959 -0.3876
16817TIP3    H171942   3.243   0.674   4.424  0.8567  0.0463 -0.3219
16817TIP3    H271943   3.148   0.569   4.372  0.8327  0.1624 -0.5149
16818TIP3   OH271944   0.568   4.785   3.073 -0.1188 -0.8502 -0.6299
16818TIP3    H171945   0.585   4.879   3.077 -1.4666 -0.5305 -1.6211
16818TIP3    H271946   0.480   4.778   3.034  0.4209 -2.5361 -1.6767
16819TIP3   OH271947   5.268   2.667   1.453 -0.0639  0.0556  0.1401
16819TIP3    H171948   5.338   2.648   1.390 -1.4199 -1.2917 -1.0579
16819TIP3    H271949   5.310   2.660   1.538  1.2026 -1.0946 -0.5306
16820TIP3   OH271950   6.706   2.129  11.127  0.2266 -0.1126  0.0220
16820TIP3    H171951   6.734   2.220  11.123 -0.0390 -0.0376 -0.1393
16820TIP3    H271952   6.781   2.078  11.097  0.5872  0.0127  0.6883
16821TIP3   OH271953   3.386   5.992   4.740 -0.1889 -0.1390 -0.3907
16821TIP3    H171954   3.482   5.995   4.737 -0.2506  1.7523 -2.0153
16821TIP3    H271955   3.367   5.947   4.822  2.0858  0.8028  0.7593
16822TIP3   OH271956   2.704   4.976  12.773 -0.5203  0.2820  0.2978
16822TIP3    H171957   2.618   5.012  12.792 -1.5564 -1.5174 -0.7030
16822TIP3    H271958   2.757   5.052  12.749 -2.3591  1.2576 -0.9713
16823TIP3   OH271959   1.545   4.885   5.713  0.1960  0.2563  0.1191
16823TIP3    H171960   1.510   4.921   5.795 -0.2512  1.5676 -0.6197
16823TIP3    H271961   1.640   4.887   5.724  0.1339  0.2978  0.6644
16824TIP3   OH271962   0.452   4.286  12.581  1.1007  0.2142  0.4285
16824TIP3    H171963   0.505   4.333  12.646  0.9224 -0.1567  0.8538
16824TIP3    H271964   0.376   4.342  12.567  1.4889  0.6360 -0.0043
16825TIP3   OH271965   5.544   3.162  13.453 -0.0342  0.4065 -0.6877
16825TIP3    H171966   5.463   3.115  13.432  0.9877 -1.3786 -0.8479
16825TIP3    H271967   5.530   3.194  13.542  0.0372 -2.2342  0.3663
16826TIP3   OH271968   4.996   4.803  16.618  0.0635  0.0141  0.8314
16826TIP3    H171969   4.985   4.714  16.652 -0.3622  0.5999  2.2897
16826TIP3    H271970   4.959   4.799  16.530 -1.4845 -0.8772  1.4686
16827TIP3   OH271971   2.458   4.029   1.357  0.0582 -0.8795 -0.3906
16827TIP3    H171972   2.442   4.114   1.399  1.5229 -0.6749 -0.2112
16827TIP3    H271973   2.424   4.040   1.268  1.4351  0.3826 -0.8143
16828TIP3   OH271974   4.644   6.079   3.886  0.2463  0.3044  0.4234
16828TIP3    H171975   4.718   6.018   3.879  1.2520  1.3126  1.6248
16828TIP3    H271976   4.567   6.025   3.869  1.1097 -1.2821  1.2418
16829TIP3   OH271977   3.943   3.287  13.956 -0.1756 -0.2836  0.3358
16829TIP3    H171978   3.859   3.273  13.999 -0.6021 -0.5287 -0.5561
16829TIP3    H271979   3.997   3.214  13.984 -0.0343  0.2279  1.4373
16830TIP3   OH271980   0.637   4.460   0.548  0.3148 -0.6361  0.1097
16830TIP3    H171981   0.652   4.552   0.569 -0.3486 -0.4925 -0.0044
16830TIP3    H271982   0.675   4.411   0.621 -1.5384 -0.1690  1.4481
16831TIP3   OH271983   4.296   2.532  16.949 -0.0626 -0.0605 -0.0564
16831TIP3    H171984   4.382   2.528  16.906  0.6943 -3.0138  1.4390
16831TIP3    H271985   4.285   2.624  16.971  3.2089  0.3288  0.5379
16832TIP3   OH271986   3.886   1.619   6.277  0.4950  0.6589 -0.4846
16832TIP3    H171987   3.951   1.555   6.249  0.9865  0.5839  0.7810
16832TIP3    H271988   3.804   1.588   6.238  1.0797  0.3795 -1.5310
16833TIP3   OH271989   5.157   1.159   2.718  0.2299 -0.0315  0.4532
16833TIP3    H171990   5.230   1.214   2.689 -0.4455  0.3144 -0.6172
16833TIP3    H271991   5.199   1.079   2.751  1.0629 -0.1268 -0.8010
16834TIP3   OH271992   1.299   2.647  15.558  0.2683  0.5468  0.0361
16834TIP3    H171993   1.222   2.613  15.605 -0.9721  1.2270 -1.4081
16834TIP3    H271994   1.343   2.569  15.524 -0.1987  0.1763  0.2748
16835TIP3   OH271995   6.757   3.955   4.829  0.4968  0.0468 -0.7673
16835TIP3    H171996   6.723   3.872   4.795  0.5967 -0.4463  0.2838
16835TIP3    H271997   6.852   3.949   4.817  0.8399 -1.2287  1.7483
16836TIP3   OH271998   5.428   1.047  16.033  0.2266 -0.3006 -0.2147
16836TIP3    H171999   5.508   1.017  15.989  0.4623 -2.2810  1.4022
16836TIP3    H272000   5.442   1.025  16.125 -1.0020  2.0035  0.6052
16837TIP3   OH272001   0.275   4.037   2.394 -0.4440 -0.1977  0.3076
16837TIP3    H172002   0.337   3.968   2.374  0.7809  0.8822  0.2563
16837TIP3    H272003   0.318   4.118   2.366 -1.3529  0.7065  1.3881
16838TIP3   OH272004   3.932   3.278   6.385 -0.2503 -0.2835 -0.6175
16838TIP3    H172005   3.898   3.360   6.348  1.4353 -0.6168 -3.1390
16838TIP3    H272006   3.961   3.302   6.473  0.9334  2.0980 -1.5645
16839TIP3   OH272007   3.830   5.323  16.450 -0.1587 -0.0040  0.0711
16839TIP3    H172008   3.748   5.300  16.407 -0.3596  1.0777 -0.1629
16839TIP3    H272009   3.813   5.409  16.489  1.2049  0.7496 -0.9252
16840TIP3   OH272010   0.310   4.878   0.887  0.6683 -0.0930  0.0102
16840TIP3    H172011   0.385   4.885   0.946  1.3565  0.3015 -0.8825
16840TIP3    H272012   0.312   4.960   0.837  0.0259 -0.3611 -0.4617
16841TIP3   OH272013   3.024   4.722   2.905 -0.1994  0.6300  0.2217
16841TIP3    H172014   3.080   4.653   2.868  0.0881  0.0343  1.6859
16841TIP3    H272015   2.935   4.688   2.894 -0.4694  2.0443 -3.0765
16842TIP3   OH272016   2.842   6.498  13.700 -0.3352 -0.3023  0.2228
16842TIP3    H172017   2.826   6.546  13.619 -0.4016  0.1200  0.4857
16842TIP3    H272018   2.756   6.468  13.728 -0.9691  2.9551  2.2613
16843TIP3   OH272019   6.855   0.923   3.127 -0.3216 -0.2994 -0.3409
16843TIP3    H172020   6.808   0.899   3.208  1.5457  1.0600  1.2527
16843TIP3    H272021   6.864   0.841   3.079 -1.3578 -1.1894  0.9108
16844TIP3   OH272022   6.384   0.180   2.731 -0.4895 -0.1678  0.7210
16844TIP3    H172023   6.371   0.255   2.789  2.6444  0.7837  0.4076
16844TIP3    H272024   6.394   0.219   2.644 -1.3540 -1.2276  0.1177
16845TIP3   OH272025   5.779   0.868   3.713  0.1503 -0.2551  0.4575
16845TIP3    H172026   5.769   0.957   3.747 -0.8431  1.3712 -3.4895
16845TIP3    H272027   5.708   0.819   3.755 -1.4014  1.7355  0.3373
16846TIP3   OH272028   3.772   4.038  13.678 -0.1795 -0.0100  0.3425
16846TIP3    H172029   3.780   3.979  13.753  1.3229  0.4533  0.5799
16846TIP3    H272030   3.835   4.108  13.695 -0.5382  0.6490 -0.8701
16847TIP3   OH272031   4.834   1.317  11.606  0.0656  0.6725 -0.1071
16847TIP3    H172032   4.845   1.222  11.611 -0.2935  0.4933 -2.1155
16847TIP3    H272033   4.861   1.348  11.692  0.4255 -1.2183  0.5158
16848TIP3   OH272034   4.023   4.319   0.183 -1.1062 -0.1905 -0.6593
16848TIP3    H172035   4.021   4.261   0.259  1.0462  0.6347  0.1302
16848TIP3    H272036   3.932   4.336   0.162 -1.7541 -1.5914  0.8432
16849TIP3   OH272037   2.959   4.967   0.592 -0.2887  0.0640  0.6753
16849TIP3    H172038   2.995   4.950   0.505 -0.8721 -1.1861  0.6626
16849TIP3    H272039   2.983   4.890   0.644 -2.3882 -0.5426  0.8230
16850TIP3   OH272040   6.076   0.229   4.296 -0.4757 -0.1828 -0.1545
16850TIP3    H172041   6.164   0.258   4.272 -0.6551 -0.9229 -1.8219
16850TIP3    H272042   6.070   0.139   4.263 -2.2329  0.2465 -1.1696
16851TIP3   OH272043   1.278   4.129   3.340  0.0191 -0.1358  0.5917
16851TIP3    H172044   1.319   4.059   3.290 -0.5612 -0.4844  0.5918
16851TIP3    H272045   1.286   4.207   3.284 -0.7624 -0.5511 -0.1186
16852TIP3   OH272046   3.892   0.800   4.848 -0.7849  1.0373  0.2812
16852TIP3    H172047   3.901   0.769   4.758 -2.3588  0.5927  0.2634
16852TIP3    H272048   3.817   0.753   4.883 -0.5101  1.5901  1.6762
16853TIP3   OH272049   0.081   4.806  14.006 -0.2096  0.4808  0.6309
16853TIP3    H172050   0.063   4.752  14.083  0.3903  0.3902  0.7072
16853TIP3    H272051   0.175   4.824  14.010 -0.4043  1.5763  0.6401
16854TIP3   OH272052   1.911   4.076  14.440 -0.4951 -0.2939  0.4818
16854TIP3    H172053   1.876   4.126  14.515 -0.8114 -1.7338  1.3356
16854TIP3    H272054   1.833   4.041  14.396 -0.2712 -0.2453  0.0409
16855TIP3   OH272055   4.390   1.559   5.575  0.4422 -0.2339 -0.3576
16855TIP3    H172056   4.299   1.575   5.599  1.0340  1.9863  0.6100
16855TIP3    H272057   4.418   1.486   5.631 -0.0326  0.7210  1.1702
16856TIP3   OH272058   6.844   6.210  15.521  0.1250  0.6419 -0.0503
16856TIP3    H172059   6.856   6.124  15.481 -0.0629  0.0237  1.1808
16856TIP3    H272060   6.767   6.246  15.477 -0.8055 -0.5319  0.5675
16857TIP3   OH272061   1.642   0.156   2.826 -0.1085  0.6180 -0.4721
16857TIP3    H172062   1.658   0.064   2.846  1.2684  0.6502 -1.3261
16857TIP3    H272063   1.573   0.183   2.887  1.4828 -0.1917  1.7651
16858TIP3   OH272064   0.208   0.659  11.211  0.5157  0.0123 -0.0655
16858TIP3    H172065   0.193   0.597  11.140 -1.0413  0.6744 -0.3474
16858TIP3    H272066   0.147   0.731  11.194  2.3357  1.6989  0.1802
16859TIP3   OH272067   6.569   3.773  15.419  0.1756  0.2547  0.2378
16859TIP3    H172068   6.501   3.739  15.361  0.6340  0.5108 -0.4554
16859TIP3    H272069   6.535   3.857  15.449  0.1065  0.2953  0.0454
16860TIP3   OH272070   6.227   2.353  15.700  0.3470  0.7845 -0.5939
16860TIP3    H172071   6.277   2.278  15.669  0.1246  0.3006  0.1948
16860TIP3    H272072   6.140   2.340  15.664 -0.5220 -0.9232  1.8876
16861TIP3   OH272073   1.749   0.085   1.573 -0.3429 -0.2144  0.1254
16861TIP3    H172074   1.824   0.083   1.514 -0.1756 -0.5831  0.3443
16861TIP3    H272075   1.675   0.059   1.518 -0.2462 -0.2068 -0.0079
16862TIP3   OH272076   5.823   0.554  12.473  0.0743  0.3555 -0.0031
16862TIP3    H172077   5.892   0.543  12.539  0.4190 -0.5925 -0.5092
16862TIP3    H272078   5.869   0.562  12.390 -0.3368  2.1012 -0.1031
16863TIP3   OH272079   5.027   1.341  14.200  0.5702 -0.3162 -0.5245
16863TIP3    H172080   5.099   1.401  14.216  2.6456 -1.7468 -3.5875
16863TIP3    H272081   5.039   1.271  14.264  0.1055  0.8277  0.8650
16864TIP3   OH272082   0.147   5.815   1.090  0.1119 -0.5326 -0.1755
16864TIP3    H172083   0.058   5.844   1.071 -0.9018 -2.3324  1.4571
16864TIP3    H272084   0.166   5.852   1.176  0.6505 -0.7889 -0.1811
16865TIP3   OH272085   0.601   0.054  16.544 -0.3422 -0.0003 -0.1683
16865TIP3    H172086   0.568   0.139  16.576 -1.6114 -1.3306  2.3142
16865TIP3    H272087   0.532   0.023  16.485  0.4729  0.9557 -1.7012
16866TIP3   OH272088   2.841   4.021  11.273  0.3248  0.2578 -0.1316
16866TIP3    H172089   2.798   4.061  11.197 -0.3630  0.1686  0.2055
16866TIP3    H272090   2.779   3.955  11.304  1.6471 -1.4586 -0.9668
16867TIP3   OH272091   5.025   3.873   1.365 -0.2639  0.6523  0.9769
16867TIP3    H172092   4.993   3.859   1.276 -1.2579 -0.1517  1.4317
16867TIP3    H272093   5.081   3.798   1.382 -0.2149  0.7145  1.0855
16868TIP3   OH272094   3.145   4.601  15.300  0.3858  0.7354  0.0679
16868TIP3    H172095   3.165   4.524  15.246  1.7942  1.6443 -0.7901
16868TIP3    H272096   3.139   4.673  15.237  0.2001  1.5125  0.9555
16869TIP3   OH272097   5.930   2.347   3.344 -0.2693 -0.3872 -0.1238
16869TIP3    H172098   5.893   2.330   3.258  0.0674 -0.1295 -0.3229
16869TIP3    H272099   5.885   2.425   3.375 -1.0387 -0.9978  0.3260
16870TIP3   OH272100   4.508   3.081  15.559 -0.1987 -0.0461 -0.0384
16870TIP3    H172101   4.493   3.003  15.505  2.3230 -0.7366  0.1158
16870TIP3    H272102   4.473   3.057  15.645 -2.0937  0.1646 -0.7062
16871TIP3   OH272103   4.576   0.371   5.047  0.2745  0.9743 -0.1206
16871TIP3    H172104   4.483   0.350   5.038  0.5535  0.0711 -1.0670
16871TIP3    H272105   4.611   0.364   4.958  1.6676 -0.8616  0.5065
16872TIP3   OH272106   6.155   2.976   3.098 -0.0205  0.4216  0.5579
16872TIP3    H172107   6.125   2.935   3.017 -1.0172 -1.1481  1.6782
16872TIP3    H272108   6.077   2.981   3.153 -0.0198  4.0499  0.4728
16873TIP3   OH272109   2.601   3.526   6.658  0.3063  0.2354  0.0896
16873TIP3    H172110   2.516   3.543   6.699  0.4084 -0.6522  0.6998
16873TIP3    H272111   2.581   3.465   6.587  0.2352  1.1988 -0.7379
16874TIP3   OH272112   1.417   5.999   2.392 -0.9132  0.4288  0.1666
16874TIP3    H172113   1.374   5.962   2.469 -3.3291  0.1981 -1.1823
16874TIP3    H272114   1.437   6.089   2.415  1.1441 -0.4023  2.0149
16875TIP3   OH272115   5.932   6.268   1.708  0.0527 -0.1659 -0.0812
16875TIP3    H172116   5.969   6.182   1.731 -0.0630 -0.4194 -0.8287
16875TIP3    H272117   5.845   6.268   1.749 -0.2718 -0.7381 -0.7444
16876TIP3   OH272118   5.752   0.712  14.276  0.5898  0.2324 -0.8235
16876TIP3    H172119   5.758   0.651  14.350  2.5675  1.4706  0.1122
16876TIP3    H272120   5.671   0.687  14.232  0.7657 -2.3660  0.1290
16877TIP3   OH272121   6.212   5.508   6.448 -0.5620  0.0050  0.9033
16877TIP3    H172122   6.261   5.589   6.436 -0.2080 -0.1990  0.9745
16877TIP3    H272123   6.129   5.537   6.486 -0.6941  0.3953  0.3316
16878TIP3   OH272124   2.019   2.143  14.765 -0.3441  0.1129  0.2938
16878TIP3    H172125   2.022   2.064  14.819  1.0586  0.1738  0.3344
16878TIP3    H272126   2.064   2.119  14.685 -0.4337  0.7037  0.0592
16879TIP3   OH272127   1.115   0.258   2.330  0.5710  0.0398  0.1501
16879TIP3    H172128   1.180   0.237   2.397  0.0853 -1.5586  0.1715
16879TIP3    H272129   1.042   0.297   2.378  1.1830  1.1358  0.2197
16880TIP3   OH272130   4.588   4.990   3.415 -0.2181 -0.1513  0.3397
16880TIP3    H172131   4.517   4.937   3.380 -0.2445  0.6317 -0.8382
16880TIP3    H272132   4.636   4.930   3.473 -2.2853 -0.4743  1.8443
16881TIP3   OH272133   5.185   3.634  11.381  1.2438  0.0438  0.4406
16881TIP3    H172134   5.198   3.540  11.370  0.8304  0.0296  0.0263
16881TIP3    H272135   5.269   3.673  11.357  0.7130 -0.0657 -1.8296
16882TIP3   OH272136   1.207   2.050  12.461 -0.3346  0.2484 -0.3817
16882TIP3    H172137   1.149   1.975  12.447 -0.0793 -0.2528  1.0153
16882TIP3    H272138   1.295   2.012  12.457 -0.2102 -0.2482  3.3818
16883TIP3   OH272139   2.653   4.769   6.029  0.3240 -0.4788 -0.0039
16883TIP3    H172140   2.649   4.862   6.007 -0.0692  0.0261  2.0169
16883TIP3    H272141   2.574   4.754   6.081 -0.8656 -2.5193 -2.1895
16884TIP3   OH272142   0.142   6.143  10.749  0.5844 -0.1156  0.1049
16884TIP3    H172143   0.109   6.110  10.666 -0.8063  0.9872  0.1814
16884TIP3    H272144   0.183   6.226  10.727 -0.7545  0.7175  0.6316
16885TIP3   OH272145   5.825   6.177   4.149 -0.0396  0.0453 -0.2136
16885TIP3    H172146   5.867   6.144   4.070 -0.5470 -1.9461  0.3024
16885TIP3    H272147   5.772   6.104   4.181  0.0082  0.8469  1.8784
16886TIP3   OH272148   1.636   0.777  10.922 -0.7125 -0.2838  0.0331
16886TIP3    H172149   1.598   0.697  10.886 -1.0794 -0.4250  0.7230
16886TIP3    H272150   1.655   0.831  10.845  0.4078 -1.4054 -0.5130
16887TIP3   OH272151   2.101   3.838  13.627  0.3271  0.0470  0.5604
16887TIP3    H172152   2.022   3.852  13.575  0.1269 -2.3339  0.0891
16887TIP3    H272153   2.173   3.857  13.566  0.1481  1.1571  0.6680
16888TIP3   OH272154   4.180   4.261  11.897 -0.2337  0.4381  0.1711
16888TIP3    H172155   4.105   4.318  11.915 -0.1501  0.2562  1.1340
16888TIP3    H272156   4.234   4.267  11.976  1.2334  1.2790 -0.8334
16889TIP3   OH272157   3.773   3.822  12.607 -0.0578 -0.1444  0.4717
16889TIP3    H172158   3.681   3.801  12.590 -0.2637  0.9919  0.0414
16889TIP3    H272159   3.784   3.909  12.569  1.9521 -1.4103 -2.1211
16890TIP3   OH272160   5.494   2.423   1.569 -0.5338  0.1557 -0.7673
16890TIP3    H172161   5.517   2.492   1.631 -1.8443  0.6563 -0.8060
16890TIP3    H272162   5.428   2.371   1.614  0.1868 -0.8730 -0.8752
16891TIP3   OH272163   5.650   2.638   3.017  0.2882  0.6691  0.3994
16891TIP3    H172164   5.609   2.590   2.945  2.1889 -1.8004  0.8097
16891TIP3    H272165   5.621   2.728   3.006 -1.6991 -0.1438 -1.7911
16892TIP3   OH272166   2.679   0.059   1.985 -0.1291  0.1029 -0.4179
16892TIP3    H172167   2.731   0.140   1.990  1.3455 -0.7989 -0.6119
16892TIP3    H272168   2.661   0.037   2.076 -2.5296  1.8227 -0.3754
16893TIP3   OH272169   5.947   2.306  16.911 -0.0470  0.4429 -0.1534
16893TIP3    H172170   5.919   2.316  17.002  1.1808 -1.4426  0.4880
16893TIP3    H272171   5.910   2.221  16.884  0.2741  0.6086 -1.1483
16894TIP3   OH272172   0.850   6.626  15.857  0.2244  0.0147 -0.5665
16894TIP3    H172173   0.824   6.546  15.903 -0.4175  0.5628  0.0688
16894TIP3    H272174   0.901   6.596  15.782  0.7601 -0.9382  0.1663
16895TIP3   OH272175   6.260   1.761   1.972  0.0082 -0.5481 -0.1359
16895TIP3    H172176   6.327   1.822   1.943 -1.0410  2.1147  2.5183
16895TIP3    H272177   6.177   1.800   1.944 -0.6829 -0.9122  1.2868
16896TIP3   OH272178   6.591   6.535  12.297 -0.4825 -0.1039 -0.5630
16896TIP3    H172179   6.578   6.516  12.204  0.7384 -1.2576 -0.5229
16896TIP3    H272180   6.671   6.587  12.300  0.4443 -1.5145 -0.0413
16897TIP3   OH272181   0.269   4.502  12.822  0.4442  0.8085 -0.0159
16897TIP3    H172182   0.206   4.570  12.847 -0.8517 -0.5913  0.6682
16897TIP3    H272183   0.268   4.502  12.726 -1.1574  0.3487 -0.0238
16898TIP3   OH272184   2.677   5.676   3.612  0.0511 -0.1514  0.3645
16898TIP3    H172185   2.669   5.592   3.567  2.2940  0.1463 -0.7484
16898TIP3    H272186   2.749   5.664   3.674 -0.5866  0.5355  1.2671
16899TIP3   OH272187   3.832   3.590   0.266  0.2099 -0.9097 -0.0697
16899TIP3    H172188   3.810   3.628   0.351  2.3221  0.8874 -0.2558
16899TIP3    H272189   3.923   3.560   0.276  1.6262  2.0964 -2.4902
16900TIP3   OH272190   4.467   2.250  14.887 -0.1980  0.2658 -0.5359
16900TIP3    H172191   4.560   2.241  14.912 -0.3978  1.6753  0.9025
16900TIP3    H272192   4.469   2.277  14.795  0.8108  0.1988 -0.5441
16901TIP3   OH272193   1.649   1.839   4.909  0.0531 -0.5009 -0.4347
16901TIP3    H172194   1.715   1.794   4.857 -0.9476 -1.5719 -0.8318
16901TIP3    H272195   1.628   1.917   4.858  2.0504  0.6756  0.4213
16902TIP3   OH272196   4.413   5.901  17.116 -0.2670 -0.0352  0.3165
16902TIP3    H172197   4.474   5.838  17.079 -1.2661 -0.5640 -0.5052
16902TIP3    H272198   4.368   5.853  17.186  1.6410  0.9702  2.3710
16903TIP3   OH272199   5.581   1.204  15.392  0.0722 -0.3048 -0.2377
16903TIP3    H172200   5.629   1.189  15.474 -1.0525 -1.0460  0.3059
16903TIP3    H272201   5.492   1.226  15.420  0.1796  1.5645 -1.2134
16904TIP3   OH272202   5.004   0.140   2.953 -0.0867 -0.1884 -0.3609
16904TIP3    H172203   5.070   0.181   2.898  0.9625 -0.4939  0.6134
16904TIP3    H272204   5.029   0.164   3.043 -1.1987 -0.4608  0.0469
16905TIP3   OH272205   0.137   3.555   2.483  0.1805 -0.4254 -0.0745
16905TIP3    H172206   0.052   3.593   2.504 -0.4762 -0.7923 -1.9317
16905TIP3    H272207   0.161   3.594   2.399  1.9512 -0.2106  0.4799
16906TIP3   OH272208   3.659   1.423   2.118 -0.0708 -0.2777  0.5296
16906TIP3    H172209   3.683   1.513   2.137  0.9225 -0.7951  1.8904
16906TIP3    H272210   3.723   1.394   2.053  0.6738 -0.5044  1.3510
16907TIP3   OH272211   2.658   0.726  14.758 -0.0972 -0.7262  0.0600
16907TIP3    H172212   2.709   0.756  14.834 -0.3362  0.8338 -0.3592
16907TIP3    H272213   2.567   0.743  14.782 -0.3182 -1.8972  0.1151
16908TIP3   OH272214   1.352   0.913  16.010  0.5122 -0.1110 -0.1854
16908TIP3    H172215   1.320   0.989  15.961  1.2976 -0.1077 -0.7249
16908TIP3    H272216   1.321   0.837  15.961 -0.2694 -0.1520  0.3510
16909TIP3   OH272217   1.022   6.509   4.304 -0.3624  0.3262  0.6759
16909TIP3    H172218   1.071   6.466   4.234  0.3276 -1.6680  2.2835
16909TIP3    H272219   1.074   6.586   4.326  0.2585  0.0831  0.0706
16910TIP3   OH272220   3.114   2.288  11.043 -0.2992  0.5497  0.6100
16910TIP3    H172221   3.067   2.323  10.967  0.9750  0.7656 -0.1158
16910TIP3    H272222   3.111   2.359  11.108 -0.2421  0.8887  0.2480
16911TIP3   OH272223   4.478   3.823  14.011 -0.3278 -0.1186 -0.0598
16911TIP3    H172224   4.457   3.820  13.918  0.6521  0.3810 -0.3091
16911TIP3    H272225   4.574   3.819  14.014 -0.3774 -1.6302  0.9977
16912TIP3   OH272226   6.840   1.543  12.918 -0.0798 -0.2647 -0.1884
16912TIP3    H172227   6.818   1.583  12.834  0.2455  0.4860  0.0856
16912TIP3    H272228   6.856   1.451  12.896 -2.8739 -0.7813 -0.5265
16913TIP3   OH272229   3.829   0.470   1.165 -0.7726  0.2433  0.6512
16913TIP3    H172230   3.743   0.492   1.199  0.0814  2.3790  1.5475
16913TIP3    H272231   3.888   0.480   1.239 -0.0913 -5.3711  1.3684
16914TIP3   OH272232   5.808   1.307  16.740  0.1172 -0.1658  0.3682
16914TIP3    H172233   5.880   1.369  16.729  1.0631 -1.1543  0.8061
16914TIP3    H272234   5.851   1.222  16.752 -1.0817 -0.5934  1.9957
16915TIP3   OH272235   1.113   2.084   3.146 -0.5937  0.1008  0.4004
16915TIP3    H172236   1.062   2.077   3.226 -0.2405  0.5684  0.6717
16915TIP3    H272237   1.154   1.998   3.137 -0.3859  0.1438  0.8964
16916TIP3   OH272238   6.405   2.578  15.047  0.0763  0.0708  0.3300
16916TIP3    H172239   6.319   2.553  15.013  0.0400  0.2765  0.2659
16916TIP3    H272240   6.391   2.666  15.083  0.6230  0.7671 -1.0884
16917TIP3   OH272241   2.390   3.967   1.833 -0.4402 -0.1083  0.1556
16917TIP3    H172242   2.382   3.987   1.926  0.2257 -0.1291  0.2231
16917TIP3    H272243   2.379   3.872   1.827 -1.2120 -0.0209  0.1220
16918TIP3   OH272244   1.434   1.997   1.610  0.0987  0.1683  0.2601
16918TIP3    H172245   1.418   1.903   1.599 -2.6254  0.6023 -0.0933
16918TIP3    H272246   1.417   2.014   1.702  0.8888  0.2860  0.3918
16919TIP3   OH272247   1.742   0.549   3.020  0.0905 -0.1159  0.1492
16919TIP3    H172248   1.651   0.524   3.008 -0.2176  0.9782  0.1237
16919TIP3    H272249   1.747   0.579   3.111  0.2651  0.4754 -0.0524
16920TIP3   OH272250   5.138   2.733   0.522 -0.4035  0.0863  0.2479
16920TIP3    H172251   5.137   2.688   0.606  0.6467  0.1443  0.3047
16920TIP3    H272252   5.226   2.769   0.515 -0.9819  1.4936 -0.1404
16921TIP3   OH272253   2.743   5.894  12.653  0.1235 -0.0237 -0.5097
16921TIP3    H172254   2.827   5.938  12.643 -0.5787  1.2184 -1.2865
16921TIP3    H272255   2.705   5.932  12.732  0.7276 -1.3647  0.4494
16922TIP3   OH272256   3.458   5.536   6.300  0.4085  0.0201  0.7816
16922TIP3    H172257   3.465   5.450   6.259  1.5514  0.1617  0.6416
16922TIP3    H272258   3.512   5.593   6.246 -1.3850  1.1398  0.1052
16923TIP3   OH272259   0.012   2.359   6.418  0.4093  0.6658  0.1517
16923TIP3    H172260   0.088   2.311   6.385 -1.3915 -2.1278 -0.2074
16923TIP3    H272261  -0.042   2.293   6.461 -2.3004  2.3513 -0.4215
16924TIP3   OH272262   5.291   4.613   1.382  0.2081 -0.9039  0.0014
16924TIP3    H172263   5.317   4.544   1.320  0.2031  0.3391 -1.4538
16924TIP3    H272264   5.197   4.601   1.394  0.2467 -1.2868 -0.0613
16925TIP3   OH272265   6.853   0.059  16.094  0.1649 -0.3209  0.0170
16925TIP3    H172266   6.891  -0.027  16.077  3.3417  0.9293  0.0453
16925TIP3    H272267   6.781   0.067  16.032 -0.8491 -3.3030  0.6617
16926TIP3   OH272268   0.737   0.591  15.850 -0.2851 -0.4018  0.0176
16926TIP3    H172269   0.651   0.576  15.891  0.5431 -2.7416  1.1187
16926TIP3    H272270   0.716   0.612  15.759 -2.0537 -0.3157  0.3936
16927TIP3   OH272271   3.427   1.392   5.343 -0.3786 -0.0822 -0.0938
16927TIP3    H172272   3.339   1.412   5.311 -0.0124  1.7511 -0.0680
16927TIP3    H272273   3.440   1.452   5.416  1.5903  1.1275 -1.3255
16928TIP3   OH272274   5.338   6.636   6.033 -0.3505  0.3859  0.2052
16928TIP3    H172275   5.252   6.674   6.015 -0.3520 -0.0099 -0.6910
16928TIP3    H272276   5.400   6.705   6.011 -0.4289  0.6060  0.6665
16929TIP3   OH272277   3.809   1.568  15.712 -0.1423 -0.3738 -0.5622
16929TIP3    H172278   3.899   1.549  15.740 -0.2020 -0.1866 -0.2422
16929TIP3    H272279   3.817   1.648  15.661 -0.2066 -0.0302 -0.0437
16930TIP3   OH272280   0.404   4.782  15.417  0.6209  0.3430 -0.1410
16930TIP3    H172281   0.359   4.861  15.447  0.6648  1.0332 -1.7820
16930TIP3    H272282   0.490   4.786  15.458  0.4707  0.9383  0.1220
16931TIP3   OH272283   1.100   2.611  15.761 -0.0965 -0.4515 -0.1718
16931TIP3    H172284   1.036   2.542  15.778 -1.7523  0.2566 -2.9098
16931TIP3    H272285   1.047   2.687  15.737  1.7524  0.6998 -0.8343
16932TIP3   OH272286   3.714   3.402   4.343 -0.5406 -0.3166  0.4064
16932TIP3    H172287   3.783   3.438   4.288 -0.5158 -1.8662 -0.6348
16932TIP3    H272288   3.645   3.378   4.282 -0.8082 -1.4393  1.1288
16933TIP3   OH272289   5.575   1.199  11.449  0.4680 -0.2508  0.2464
16933TIP3    H172290   5.608   1.287  11.433  0.6285 -0.1384  1.1472
16933TIP3    H272291   5.644   1.156  11.499  0.0913 -0.6515  0.4341
16934TIP3   OH272292   4.235   2.936   3.026 -0.3294  0.5186 -0.5824
16934TIP3    H172293   4.274   3.022   3.008  1.7709 -0.8109 -3.1546
16934TIP3    H272294   4.222   2.934   3.121  0.3545  3.3322 -0.3552
16935TIP3   OH272295   3.642   4.151  12.273  0.0759  0.0999  0.0661
16935TIP3    H172296   3.669   4.237  12.305  2.1305 -0.0742 -0.9966
16935TIP3    H272297   3.552   4.162  12.243  0.0022  1.6230  0.7832
16936TIP3   OH272298   2.074   6.431  10.648  0.4508  0.0311 -0.0413
16936TIP3    H172299   2.158   6.417  10.603  0.4030 -0.8796  0.1264
16936TIP3    H272300   2.012   6.380  10.596 -0.3926  2.2560 -1.3158
16937TIP3   OH272301   6.635   4.748  16.987  0.0192  0.0782  0.8884
16937TIP3    H172302   6.595   4.747  16.900  0.4172 -2.0145  0.6663
16937TIP3    H272303   6.596   4.824  17.031 -3.8272 -1.4059  0.5044
16938TIP3   OH272304   5.812   1.141  15.029 -0.0800  0.6389  0.0702
16938TIP3    H172305   5.876   1.206  15.058  0.2101 -0.1474  1.3095
16938TIP3    H272306   5.862   1.060  15.020 -0.5749  0.4099 -0.6938
16939TIP3   OH272307   2.968   0.418  12.866 -0.5800  0.6993  0.0072
16939TIP3    H172308   2.996   0.424  12.774 -1.6549 -1.9057 -0.5738
16939TIP3    H272309   2.937   0.506  12.887 -1.2007  1.1529 -2.4412
16940TIP3   OH272310   0.453   3.038   2.080  0.0737 -0.5139  0.2948
16940TIP3    H172311   0.488   3.003   1.998  0.3325 -1.9713  1.0025
16940TIP3    H272312   0.359   3.019   2.075 -0.5149  2.2595 -1.0359
16941TIP3   OH272313   0.845   0.362   4.900 -0.7027 -0.7251  0.4597
16941TIP3    H172314   0.757   0.325   4.894 -2.2560  2.3235  1.9112
16941TIP3    H272315   0.880   0.330   4.983 -1.3151 -0.3018  0.8827
16942TIP3   OH272316   0.284   1.217  12.410 -0.0078 -0.5058 -0.8449
16942TIP3    H172317   0.377   1.230  12.388 -0.2920  1.9011 -0.8388
16942TIP3    H272318   0.241   1.211  12.325 -0.0232 -0.2392 -0.8552
16943TIP3   OH272319   5.091   4.521   4.222 -0.0621 -0.0858 -0.1546
16943TIP3    H172320   5.096   4.542   4.316  1.9083 -3.3592  0.6616
16943TIP3    H272321   5.150   4.584   4.180 -0.6965  1.2037  0.8359
16944TIP3   OH272322   3.652   2.166  16.629  0.2053 -0.4823  0.8022
16944TIP3    H172323   3.605   2.226  16.686 -1.1834 -0.5725 -0.1831
16944TIP3    H272324   3.655   2.210  16.544 -0.2045 -1.4605  0.2522
16945TIP3   OH272325   6.149   1.310  11.435  0.0479 -0.1228 -0.6199
16945TIP3    H172326   6.226   1.360  11.407  0.0926 -0.1635 -0.5715
16945TIP3    H272327   6.125   1.259  11.358 -0.0796  0.0739 -0.7118
16946TIP3   OH272328   6.142   5.093  13.025  0.1366 -0.3769 -0.3535
16946TIP3    H172329   6.110   5.156  13.090  0.1080 -0.6240 -0.1232
16946TIP3    H272330   6.218   5.135  12.986  0.8065 -0.6663  0.6076
16947TIP3   OH272331   0.594   0.883  16.977  0.1806 -1.0339 -0.5403
16947TIP3    H172332   0.503   0.855  16.972  0.5152 -2.1567 -0.5814
16947TIP3    H272333   0.590   0.972  17.010 -0.8854 -1.4592  0.5464
16948TIP3   OH272334   6.152   4.800  11.892  0.4115 -0.1978 -0.2201
16948TIP3    H172335   6.090   4.859  11.849  0.5615 -1.0013 -1.5884
16948TIP3    H272336   6.115   4.787  11.980 -0.8520  0.0834 -0.6916
16949TIP3   OH272337   4.182   3.086  14.848  0.0278 -0.3225  0.2724
16949TIP3    H172338   4.239   3.012  14.864 -1.3022 -1.2043  1.1849
16949TIP3    H272339   4.162   3.120  14.935 -1.0438 -0.2202  0.0050
16950TIP3   OH272340   2.715   1.291  11.090  0.6177  0.0068  0.0500
16950TIP3    H172341   2.659   1.222  11.126  1.9340  0.1066  2.5260
16950TIP3    H272342   2.733   1.264  11.000 -0.8281 -1.6141  0.2009
16951TIP3   OH272343   3.770   2.122  14.587 -0.5309 -0.1767  0.4575
16951TIP3    H172344   3.688   2.118  14.636 -0.1172  3.0457  1.6382
16951TIP3    H272345   3.751   2.180  14.512  0.4356 -0.0622  0.2827
16952TIP3   OH272346   2.022   4.587   3.258  0.1282 -0.5743 -0.2042
16952TIP3    H172347   2.039   4.651   3.328 -2.4559  0.1069 -0.1126
16952TIP3    H272348   1.930   4.600   3.235  0.0091 -3.0492 -1.4704
16953TIP3   OH272349   1.572   1.881  16.013  0.1340  0.6257 -0.3868
16953TIP3    H172350   1.611   1.967  16.031  0.4834  0.3182  0.3638
16953TIP3    H272351   1.478   1.898  16.013  0.2335  1.3056 -1.8637
16954TIP3   OH272352   2.752   6.325   1.433  0.5193 -0.3498  0.8876
16954TIP3    H172353   2.710   6.410   1.420 -1.1003 -1.2396 -0.1622
16954TIP3    H272354   2.844   6.345   1.449  0.9427  1.4777 -2.8702
16955TIP3   OH272355   3.382   2.384  11.456  0.1466  0.3341 -0.3254
16955TIP3    H172356   3.399   2.477  11.472  0.3893  0.2215  0.0946
16955TIP3    H272357   3.469   2.343  11.460 -0.1421 -0.1812  1.3515
16956TIP3   OH272358   0.654   3.053  12.369  0.0571  0.0789 -0.0693
16956TIP3    H172359   0.591   3.012  12.309  0.2499 -1.6460  0.8360
16956TIP3    H272360   0.734   3.064  12.317 -0.4986  0.8137 -0.7780
16957TIP3   OH272361   2.305   5.242   6.082  0.6817 -0.5754 -0.3164
16957TIP3    H172362   2.301   5.337   6.091  1.5823 -0.4294 -1.2045
16957TIP3    H272363   2.291   5.208   6.171 -0.5401  0.3408 -0.1498
16958TIP3   OH272364   2.153   5.228   4.792  0.5058  0.3107  0.2544
16958TIP3    H172365   2.116   5.316   4.791 -0.8748 -0.2525 -0.9479
16958TIP3    H272366   2.160   5.203   4.700  1.2999 -0.6829  0.5575
16959TIP3   OH272367   4.421   5.047  10.973  0.3601 -0.4094  0.1518
16959TIP3    H172368   4.425   4.989  11.049  2.4872 -0.0910  0.3288
16959TIP3    H272369   4.416   5.135  11.010 -2.9983 -0.3327 -0.1152
16960TIP3   OH272370   3.891   5.385  13.327  0.3201  0.2226  0.0091
16960TIP3    H172371   3.892   5.436  13.247  1.6994 -1.2984 -1.0141
16960TIP3    H272372   3.910   5.448  13.396  1.2944  1.2147 -1.1134
16961TIP3   OH272373   3.170   3.251  11.792 -0.0268 -0.8492 -0.0443
16961TIP3    H172374   3.138   3.171  11.833  0.4675 -0.9506  0.1488
16961TIP3    H272375   3.264   3.238  11.785 -0.0863 -0.7852 -1.1012
16962TIP3   OH272376   6.081   5.216  11.769 -0.2045 -0.0991 -0.2994
16962TIP3    H172377   6.126   5.262  11.840 -0.7217  1.4907 -0.9563
16962TIP3    H272378   6.034   5.145  11.813 -2.0457  1.9336  1.2977
16963TIP3   OH272379   3.745   2.377   4.569  0.0646 -0.5370  0.0435
16963TIP3    H172380   3.689   2.416   4.501  0.6473 -0.6898 -0.5386
16963TIP3    H272381   3.699   2.297   4.595 -0.1308 -0.5135 -0.2242
16964TIP3   OH272382   4.395   1.130  11.451  0.6437  0.3322  0.0456
16964TIP3    H172383   4.314   1.149  11.498  0.7875 -0.5886  0.7025
16964TIP3    H272384   4.376   1.049  11.404  0.3389  1.5015 -1.9285
16965TIP3   OH272385   5.483   1.933   4.733 -0.2769  0.0821  1.2677
16965TIP3    H172386   5.414   1.967   4.790  2.1287  1.1549  3.8164
16965TIP3    H272387   5.506   2.007   4.677 -0.6935 -0.0344  0.9434
16966TIP3   OH272388   6.070   0.263  14.163  0.2924 -0.5276  0.1339
16966TIP3    H172389   6.136   0.196  14.146 -0.4649 -1.2874  0.1197
16966TIP3    H272390   6.120   0.342  14.180  1.2754 -1.4249  1.6651
16967TIP3   OH272391   1.854   6.835   1.790  0.1717 -0.4711 -0.4580
16967TIP3    H172392   1.809   6.888   1.725  1.5909 -0.0910 -1.1810
16967TIP3    H272393   1.820   6.747   1.777 -0.6669 -0.1171 -0.6854
16968TIP3   OH272394   3.626   0.860  15.885  0.2685 -0.3190 -0.1244
16968TIP3    H172395   3.716   0.835  15.861  0.4321 -1.8947  1.9289
16968TIP3    H272396   3.634   0.952  15.911  1.8409 -1.0292  2.2397
16969TIP3   OH272397   0.552   6.009  12.697 -0.5063  0.2985  0.3561
16969TIP3    H172398   0.610   5.952  12.648  0.0209 -1.0563  2.4209
16969TIP3    H272399   0.607   6.084  12.720 -0.2949  0.1815  0.2367
16970TIP3   OH272400   1.082   6.854  11.710  0.4088 -0.3917  0.1994
16970TIP3    H172401   1.002   6.814  11.744  0.5202 -0.9169 -0.1505
16970TIP3    H272402   1.139   6.862  11.786 -0.8417  2.2350  0.9891
16971TIP3   OH272403   3.702   2.377  14.792 -0.0917  0.4384 -0.0212
16971TIP3    H172404   3.714   2.434  14.716 -0.9737  0.7277  0.0434
16971TIP3    H272405   3.645   2.308  14.761 -0.2817  0.4398  0.3221
16972TIP3   OH272406   3.144   6.108  17.049 -0.4663  0.1007 -0.7601
16972TIP3    H172407   3.137   6.194  17.008  0.4201  2.0080  2.6480
16972TIP3    H272408   3.073   6.107  17.113  1.3797 -0.2942  1.4129
16973TIP3   OH272409   3.531   3.275   3.909  0.5003 -0.4846 -0.1376
16973TIP3    H172410   3.444   3.281   3.868 -0.2362 -0.9008  1.2731
16973TIP3    H272411   3.590   3.315   3.846 -0.6556 -0.5698 -1.3281
16974TIP3   OH272412   6.191   1.592  12.313  0.0055 -0.3629  0.0601
16974TIP3    H172413   6.254   1.626  12.250  0.4741 -0.3121  0.5522
16974TIP3    H272414   6.134   1.667  12.332  1.8155  0.5975  2.1297
16975TIP3   OH272415   4.778   2.709  13.156  0.9624 -0.4093  0.2806
16975TIP3    H172416   4.761   2.638  13.219 -1.0579 -0.4034 -0.1750
16975TIP3    H272417   4.811   2.665  13.078 -0.9902 -1.0128 -0.2699
16976TIP3   OH272418   1.740   4.770  15.250 -0.0440  0.5794  0.2149
16976TIP3    H172419   1.704   4.810  15.170 -2.8391 -0.9102  0.5828
16976TIP3    H272420   1.744   4.841  15.313  0.4375  1.3902 -0.7010
16977TIP3   OH272421   0.131   2.730   6.183  0.7546 -0.2736  0.2907
16977TIP3    H172422   0.151   2.655   6.128  0.4526 -0.3507  0.2819
16977TIP3    H272423   0.039   2.750   6.164  1.2624  1.0891 -0.8769
16978TIP3   OH272424   5.006   0.936  13.133 -0.5491  0.5232  0.9117
16978TIP3    H172425   5.102   0.941  13.139 -0.5841  1.0371  1.1171
16978TIP3    H272426   4.985   0.845  13.153  0.0812 -0.2646 -1.5826
16979TIP3   OH272427   4.978   1.217  12.055 -0.1731  0.3266  0.0909
16979TIP3    H172428   5.041   1.177  12.115 -0.3156 -3.0411 -1.6920
16979TIP3    H272429   4.963   1.148  11.989 -3.5962  2.0351 -1.1096
16980TIP3   OH272430   5.311   1.550  15.686  0.9355  0.7079 -0.3092
16980TIP3    H172431   5.277   1.536  15.775  0.5946  1.6559 -0.2814
16980TIP3    H272432   5.303   1.644  15.672  0.9702  0.5617 -1.3588
16981TIP3   OH272433   0.265   4.262  11.924 -0.0899 -0.0536  0.4479
16981TIP3    H172434   0.254   4.177  11.881  2.0885  0.6548 -1.7658
16981TIP3    H272435   0.359   4.269  11.939 -0.3205  1.6510  1.3566
16982TIP3   OH272436   0.660   2.315  15.816  0.3590 -0.4807  0.0826
16982TIP3    H172437   0.599   2.335  15.886  2.6565  1.2347  1.7746
16982TIP3    H272438   0.700   2.232  15.841 -1.2319 -1.6294 -1.0520
16983TIP3   OH272439   1.096   0.848  13.211  0.4789 -0.2311 -0.0184
16983TIP3    H172440   1.057   0.858  13.124  0.8906  0.1425 -0.1647
16983TIP3    H272441   1.120   0.936  13.237  2.1463 -0.5263 -0.3804
16984TIP3   OH272442   3.557   1.414   5.800  0.2418 -0.4131 -0.3003
16984TIP3    H172443   3.652   1.399   5.791  0.0838 -1.9298  0.3696
16984TIP3    H272444   3.535   1.378   5.885 -0.5560  2.1619  0.6842
16985TIP3   OH272445   1.917   4.319   5.164 -0.0631 -0.3311 -0.0833
16985TIP3    H172446   1.831   4.321   5.207 -1.1585 -1.2100 -2.0979
16985TIP3    H272447   1.937   4.226   5.155 -1.2201 -0.4011 -3.7830
16986TIP3   OH272448   4.385   4.933  11.248 -0.1640 -0.2856  0.8946
16986TIP3    H172449   4.295   4.950  11.276 -0.4518  0.7237 -0.5607
16986TIP3    H272450   4.431   4.910  11.329 -0.8103  3.0323  2.3726
16987TIP3   OH272451   0.627   2.442   4.237  0.2654 -0.6109 -0.5980
16987TIP3    H172452   0.642   2.530   4.272  1.2288 -0.6960 -0.7642
16987TIP3    H272453   0.635   2.384   4.313 -2.0413 -0.4377 -0.1713
16988TIP3   OH272454   6.714   3.484   2.785 -0.4989  0.2970  0.2906
16988TIP3    H172455   6.701   3.446   2.698 -0.2522  0.7996  0.0245
16988TIP3    H272456   6.641   3.451   2.837 -0.3383 -0.4578  0.0457
16989TIP3   OH272457   4.900   3.417  13.405 -0.0913  0.0574  0.4795
16989TIP3    H172458   4.926   3.328  13.430  0.2911  0.4046  1.3850
16989TIP3    H272459   4.826   3.405  13.346 -0.1197 -0.8653  0.6866
16990TIP3   OH272460   5.771   0.136   1.529  0.2828 -0.0934 -0.4900
16990TIP3    H172461   5.807   0.051   1.555  0.0118 -0.0825 -0.0753
16990TIP3    H272462   5.847   0.193   1.522  0.3379 -0.0356  0.5048
16991TIP3   OH272463   0.072   3.326  12.478 -0.0161 -0.0615 -0.3923
16991TIP3    H172464   0.166   3.334  12.466 -0.2514  0.9779 -1.9314
16991TIP3    H272465   0.046   3.253  12.422 -0.4327  1.4486 -2.3139
16992TIP3   OH272466   0.291   2.791  14.496 -0.2126 -0.0773 -0.0944
16992TIP3    H172467   0.224   2.856  14.517  0.7099  0.9598 -0.2903
16992TIP3    H272468   0.362   2.841  14.455 -0.2906 -1.4703 -2.0728
16993TIP3   OH272469   0.176   4.260  15.601 -0.4877 -0.1091 -0.3563
16993TIP3    H172470   0.113   4.331  15.594 -0.4584 -0.2596 -3.1980
16993TIP3    H272471   0.148   4.195  15.537  0.8870 -1.5540  0.4129
16994TIP3   OH272472   2.748   6.426   3.249 -0.8119 -0.1869  0.0592
16994TIP3    H172473   2.706   6.511   3.239 -1.7739 -0.8220 -1.7191
16994TIP3    H272474   2.701   6.368   3.188  1.1149 -1.5063 -0.2784
16995TIP3   OH272475   4.494   4.167   0.945 -0.4795  0.0610 -0.8359
16995TIP3    H172476   4.485   4.210   0.860  0.3639  4.0117  0.8539
16995TIP3    H272477   4.404   4.152   0.973 -0.7777 -2.2259 -2.7185
16996TIP3   OH272478   0.121   2.235  10.792 -0.7241  0.2999 -0.2583
16996TIP3    H172479   0.182   2.164  10.811 -1.7380 -1.1168 -1.9858
16996TIP3    H272480   0.177   2.311  10.776  0.4049 -0.1809  1.1689
16997TIP3   OH272481   1.933   1.417  14.108  0.2055 -0.1615 -0.2950
16997TIP3    H172482   1.869   1.485  14.085  1.8116  1.2961 -0.6955
16997TIP3    H272483   1.938   1.421  14.204  0.1482  0.1565 -0.3022
16998TIP3   OH272484   4.306   4.963   1.812  0.2148 -0.1744  0.1201
16998TIP3    H172485   4.349   4.886   1.774 -0.8210 -0.1156 -1.2365
16998TIP3    H272486   4.378   5.018   1.843  0.9798 -1.9102  1.6428
16999TIP3   OH272487   3.397   2.339   4.501 -0.5373 -0.5908 -0.0156
16999TIP3    H172488   3.392   2.380   4.415  1.5916 -1.2545 -0.5379
16999TIP3    H272489   3.435   2.407   4.557  1.0734 -1.1279 -0.4003
17000TIP3   OH272490   6.496   0.009  12.008  0.0350  0.4953  0.1469
17000TIP3    H172491   6.534   0.092  12.037  0.8865 -0.1954  1.1285
17000TIP3    H272492   6.490  -0.044  12.089 -0.6161 -0.3467 -0.4273
17001TIP3   OH272493   5.068   1.600   4.315  0.2204 -0.0860 -0.2218
17001TIP3    H172494   5.006   1.656   4.269 -0.7070 -0.5825  0.3843
17001TIP3    H272495   5.154   1.627   4.283 -0.1384  2.0767  0.4815
17002TIP3   OH272496   6.393   0.949   5.807  0.6003  0.0337  0.3550
17002TIP3    H172497   6.374   0.964   5.899 -0.9575 -0.2815  0.1095
17002TIP3    H272498   6.384   0.855   5.795  1.9803 -0.0968  0.1000
17003TIP3   OH272499   2.365   6.411  16.933  1.0971  0.0279  0.1921
17003TIP3    H172500   2.391   6.500  16.909  0.0920  0.1053 -0.6720
17003TIP3    H272501   2.339   6.417  17.025 -2.8588  1.5785 -0.8515
17004TIP3   OH272502   5.329   5.849  15.053 -0.1876 -0.3278  0.3381
17004TIP3    H172503   5.327   5.927  14.999  0.2784  0.1423  0.9851
17004TIP3    H272504   5.274   5.786  15.007  1.5890 -0.5556 -1.6233
17005TIP3   OH272505   6.545   3.924   0.008  0.1230  0.1639 -0.5794
17005TIP3    H172506   6.565   3.835  -0.020 -0.9248 -0.4933  0.6512
17005TIP3    H272507   6.541   3.919   0.104  1.2515  1.8082 -0.4067
17006TIP3   OH272508   5.574   3.205   6.683 -0.2754  0.0163  0.0792
17006TIP3    H172509   5.598   3.113   6.696 -0.6062  0.0948  1.4066
17006TIP3    H272510   5.656   3.253   6.693 -0.1362 -0.1048 -0.4275
17007TIP3   OH272511   2.870   6.792  13.737  0.6004 -0.0336  0.0854
17007TIP3    H172512   2.828   6.767  13.654 -1.0819  0.6453  0.7051
17007TIP3    H272513   2.940   6.852  13.711  0.1100  0.1512 -0.8563
17008TIP3   OH272514   0.122   4.300   0.440 -0.1136  0.5452 -0.3682
17008TIP3    H172515   0.179   4.297   0.517 -1.7254 -1.0965  0.8309
17008TIP3    H272516   0.114   4.393   0.420  0.8585  0.9709  1.0374
17009TIP3   OH272517   3.985   2.939  12.110  0.1528 -0.1596  0.5732
17009TIP3    H172518   3.892   2.963  12.108 -0.6113 -2.8295 -0.4165
17009TIP3    H272519   4.009   2.943  12.202 -1.1594 -0.1406  0.9318
17010TIP3   OH272520   3.017   4.013  13.977 -0.2027 -0.1444 -0.0681
17010TIP3    H172521   3.059   4.096  14.001 -0.1139 -0.3618  0.5206
17010TIP3    H272522   3.086   3.947  13.988 -0.0359 -0.2036 -1.2988
17011TIP3   OH272523   2.969   5.091   1.276 -0.0301  0.3160 -0.6558
17011TIP3    H172524   2.923   5.040   1.343 -1.1442  0.0689 -1.5618
17011TIP3    H272525   3.035   5.031   1.241 -0.4267 -0.0521 -0.7846
17012TIP3   OH272526   2.322   3.157  14.565  0.6074 -0.3219 -0.0483
17012TIP3    H172527   2.364   3.071  14.562  2.3065  0.4714 -2.4801
17012TIP3    H272528   2.270   3.161  14.485  1.5947  1.3319 -0.6608
17013TIP3   OH272529   4.038   3.385   0.486  0.8878 -0.0357 -0.2626
17013TIP3    H172530   3.948   3.363   0.512  0.7907 -0.7269 -1.1354
17013TIP3    H272531   4.071   3.439   0.558  0.4084 -1.3066  0.9523
17014TIP3   OH272532   2.231   3.583  12.165 -0.5243 -0.2989  0.0335
17014TIP3    H172533   2.304   3.641  12.145  0.4782 -1.3439  0.5019
17014TIP3    H272534   2.179   3.580  12.085 -0.8602  1.5605  0.1399
17015TIP3   OH272535   6.080   6.223  13.715 -0.4907  0.2758  0.2733
17015TIP3    H172536   6.084   6.289  13.645 -1.5446  0.9333  0.7968
17015TIP3    H272537   6.169   6.220  13.750 -0.4383  1.5151  0.3065
17016TIP3   OH272538   2.769   5.115   4.817  0.0532  0.2210 -0.3698
17016TIP3    H172539   2.691   5.067   4.844  0.0242  0.6999  0.4465
17016TIP3    H272540   2.741   5.167   4.742 -0.1892 -0.2377 -0.5983
17017TIP3   OH272541   0.058   0.607  14.897 -0.0532 -0.7109 -0.3949
17017TIP3    H172542   0.078   0.658  14.819 -1.9064  2.4783  1.0095
17017TIP3    H272543   0.141   0.567  14.922  1.1749  0.3741 -2.4856
17018TIP3   OH272544   5.687   3.275  11.061  0.7624  0.2759 -0.5464
17018TIP3    H172545   5.763   3.268  11.118  0.5029 -1.0611 -0.3277
17018TIP3    H272546   5.724   3.285  10.973  1.3197 -3.1203 -0.8182
17019TIP3   OH272547   1.578   6.241  16.992  0.8632  0.3582  0.5897
17019TIP3    H172548   1.530   6.320  17.018 -0.3963  0.4181 -1.6940
17019TIP3    H272549   1.657   6.274  16.949 -0.2804  0.4986 -1.5346
17020TIP3   OH272550   1.375   3.947  15.107 -0.7095 -0.6501 -0.3371
17020TIP3    H172551   1.339   3.999  15.179 -0.1984 -0.0305 -0.5261
17020TIP3    H272552   1.306   3.949  15.040 -1.7734 -2.3604  0.6255
17021TIP3   OH272553   1.454   2.311   2.445 -0.1541  0.1844 -0.6254
17021TIP3    H172554   1.440   2.404   2.462 -1.5052  0.6799 -3.7274
17021TIP3    H272555   1.382   2.267   2.490 -1.1301  0.9667 -1.3661
17022TIP3   OH272556   4.151   1.888   1.339 -0.3474 -0.2690 -0.0424
17022TIP3    H172557   4.101   1.919   1.415  1.6074  1.6765  0.5692
17022TIP3    H272558   4.174   1.798   1.361 -1.0076 -0.1910  1.0411
17023TIP3   OH272559   3.944   1.198   4.747 -0.2347  0.0984 -0.0919
17023TIP3    H172560   3.965   1.271   4.688 -0.1511  0.4336  0.3480
17023TIP3    H272561   3.864   1.161   4.712 -1.6445  1.9101  1.0283
17024TIP3   OH272562   0.023   1.344   3.969  0.0567 -0.0125  0.4900
17024TIP3    H172563  -0.048   1.385   4.019  0.7886  1.3251  0.4740
17024TIP3    H272564  -0.020   1.312   3.890 -0.7968 -0.5796  1.1629
17025TIP3   OH272565   5.894   1.406  10.389  0.1713 -0.3665 -0.2631
17025TIP3    H172566   5.966   1.347  10.409 -0.6913 -0.8815  1.4667
17025TIP3    H272567   5.820   1.371  10.438 -0.6904  1.4249 -0.2195
17026TIP3   OH272568   3.038   0.661  12.031  0.0993 -0.0739 -0.3023
17026TIP3    H172569   2.966   0.662  12.095  1.1620  2.1295  0.9560
17026TIP3    H272570   3.061   0.569  12.023 -0.6676 -0.5071  1.8161
17027TIP3   OH272571   4.029   3.231   0.237  0.0455 -0.1336  0.0737
17027TIP3    H172572   4.091   3.288   0.191  1.7500 -1.5555  0.4661
17027TIP3    H272573   4.029   3.264   0.327  0.2452 -0.1273  0.0727
17028TIP3   OH272574   3.192   2.516  13.023 -0.5295  0.1049  0.1363
17028TIP3    H172575   3.147   2.557  13.097  1.4965  3.1568 -0.1244
17028TIP3    H272576   3.269   2.475  13.061 -0.8512 -0.6763 -0.0235
17029TIP3   OH272577   3.133   5.234  15.271  0.2017  0.1961 -0.5419
17029TIP3    H172578   3.107   5.200  15.186 -0.1773  1.5652 -1.0083
17029TIP3    H272579   3.161   5.324  15.253 -0.1308  0.5943  0.8028
17030TIP3   OH272580   0.205   6.324  15.603 -0.3963  0.3013 -0.0844
17030TIP3    H172581   0.131   6.277  15.564  0.2168 -0.4736 -0.3561
17030TIP3    H272582   0.260   6.346  15.528 -0.4206  0.9988  0.1037
17031TIP3   OH272583   6.057   0.951   4.366  0.2782 -0.5588  1.1384
17031TIP3    H172584   6.024   1.015   4.430  0.7486  1.0340 -0.1305
17031TIP3    H272585   6.152   0.959   4.373  0.3566 -1.6532  1.4391
17032TIP3   OH272586   1.912   4.876  12.921  0.3278 -0.2476 -0.1323
17032TIP3    H172587   1.928   4.957  12.971 -0.0464  0.9578 -1.8713
17032TIP3    H272588   1.829   4.891  12.876  0.7604 -1.1782 -1.3005
17033TIP3   OH272589   1.656   0.258   1.916 -0.5238  0.5442 -0.3969
17033TIP3    H172590   1.686   0.299   1.835 -0.8911 -0.8447 -1.2646
17033TIP3    H272591   1.735   0.219   1.954 -0.0310  2.5544  0.7989
17034TIP3   OH272592   4.696   5.289   5.428  0.2118 -0.2558 -0.4575
17034TIP3    H172593   4.720   5.359   5.489  0.5432 -2.0779  1.6605
17034TIP3    H272594   4.777   5.268   5.382  0.7358 -0.8668  0.7008
17035TIP3   OH272595   2.258   5.707  15.781  0.2480  0.0934 -0.0536
17035TIP3    H172596   2.231   5.664  15.862  0.9571  0.1891  0.2461
17035TIP3    H272597   2.230   5.798  15.792 -0.6824 -0.1379 -0.4161
17036TIP3   OH272598   2.443   3.478   1.190  0.3973 -0.0449 -0.3013
17036TIP3    H172599   2.454   3.432   1.273  0.0369 -0.2613 -0.3709
17036TIP3    H272600   2.486   3.563   1.204  1.2136 -0.4666 -0.2369
17037TIP3   OH272601   0.346   1.431   4.438 -0.4738  0.4197 -0.1335
17037TIP3    H172602   0.287   1.363   4.470 -0.0614  0.6062  1.0430
17037TIP3    H272603   0.305   1.461   4.357 -0.9517 -0.8274 -0.3749
17038TIP3   OH272604   2.424   5.966   2.150  0.6569  0.6779 -0.4467
17038TIP3    H172605   2.471   5.989   2.230 -1.0030  0.3866  0.6710
17038TIP3    H272606   2.351   6.028   2.146  0.1221  0.0366 -1.1733
17039TIP3   OH272607   5.495   6.097  12.993  0.5937  0.2867  0.1885
17039TIP3    H172608   5.442   6.038  13.046  0.2420  0.2451 -0.2017
17039TIP3    H272609   5.522   6.045  12.918 -1.7836  1.2321 -1.4676
17040TIP3   OH272610   6.403   2.609  14.288 -0.6825 -0.4913  0.7391
17040TIP3    H172611   6.436   2.687  14.245  0.6361 -1.5230 -0.2260
17040TIP3    H272612   6.388   2.635  14.379  0.6802  0.6299  0.6688
17041TIP3   OH272613   5.070   3.742  13.618  0.3462  0.2440 -0.7660
17041TIP3    H172614   5.061   3.763  13.525 -0.4010  0.2403 -0.6986
17041TIP3    H272615   4.993   3.690  13.639 -0.5135  1.8488  0.3129
17042TIP3   OH272616   0.306   5.938   1.328 -0.5615 -0.1450  0.1400
17042TIP3    H172617   0.380   5.894   1.368  0.2530  0.3081 -0.8243
17042TIP3    H272618   0.323   6.032   1.341 -1.7998 -0.0532  1.3439
17043TIP3   OH272619   5.404   1.266  14.316 -0.0954  0.6057 -0.1459
17043TIP3    H172620   5.421   1.176  14.288 -0.4768  0.4649  0.0651
17043TIP3    H272621   5.488   1.310  14.308  0.6298 -0.3123  1.8221
17044TIP3   OH272622   2.289   6.835  14.332  0.2161  0.1932 -0.5316
17044TIP3    H172623   2.312   6.880  14.413 -0.1917 -0.3827 -0.0782
17044TIP3    H272624   2.358   6.770  14.320  0.1459  0.1161 -0.5165
17045TIP3   OH272625   6.562   4.381   0.463  0.7604  0.0219  0.0686
17045TIP3    H172626   6.469   4.391   0.445  1.0578 -0.2280 -1.8393
17045TIP3    H272627   6.577   4.433   0.541 -0.9370  0.2212  0.2991
17046TIP3   OH272628   1.432   5.744  11.035  0.3181  0.0291  0.0359
17046TIP3    H172629   1.395   5.731  10.948 -1.5290  0.8365  0.6334
17046TIP3    H272630   1.416   5.662  11.081 -0.8423  0.3885  0.3042
17047TIP3   OH272631   0.762   1.261   0.407  0.6348  0.3624  0.5636
17047TIP3    H172632   0.741   1.169   0.391  0.1614  0.5518  0.0763
17047TIP3    H272633   0.677   1.304   0.417  0.8604  0.7056  1.0600
17048TIP3   OH272634   3.235   3.128   5.796  0.5254  0.0400 -0.4705
17048TIP3    H172635   3.151   3.110   5.838  1.0030 -0.5310  0.2749
17048TIP3    H272636   3.289   3.052   5.818  1.1288  0.2319 -1.2389
17049TIP3   OH272637   3.156   0.376   5.889  0.8898  0.0924 -0.2243
17049TIP3    H172638   3.144   0.288   5.924 -0.0723 -0.1639 -1.1298
17049TIP3    H272639   3.088   0.428   5.931  1.0511  0.2568 -0.1658
17050TIP3   OH272640   3.758   4.058   2.410  0.0950  0.3676 -0.1022
17050TIP3    H172641   3.769   4.138   2.461  1.1476 -0.3188  0.7991
17050TIP3    H272642   3.665   4.058   2.385  0.0606  1.7944 -0.0293
17051TIP3   OH272643   3.014   0.259  16.151 -0.0976  0.1400 -0.4856
17051TIP3    H172644   2.942   0.288  16.095 -1.1475 -0.4486  0.5098
17051TIP3    H272645   2.971   0.218  16.226  1.2830 -0.2635  0.1237
17052TIP3   OH272646   5.855   0.624  11.418 -0.6900  0.3410  0.4054
17052TIP3    H172647   5.827   0.704  11.463  0.1538  1.2249 -0.5914
17052TIP3    H272648   5.930   0.593  11.469  0.0822  1.1781 -0.1940
17053TIP3   OH272649   2.053   4.270  14.307 -0.3547  0.0283  0.3036
17053TIP3    H172650   2.130   4.222  14.276 -1.1139 -1.1221  0.1217
17053TIP3    H272651   2.014   4.212  14.373  0.3456  1.7264  2.3038
17054TIP3   OH272652   4.575   5.746   1.466  0.9779  0.0662 -0.5105
17054TIP3    H172653   4.651   5.689   1.455 -0.0019 -1.2273 -0.8204
17054TIP3    H272654   4.550   5.771   1.377  0.2420 -0.6329 -0.5158
17055TIP3   OH272655   2.626   0.055   0.732 -0.0772 -0.2930 -0.1592
17055TIP3    H172656   2.591   0.005   0.658  1.5062 -1.2974 -0.2883
17055TIP3    H272657   2.699   0.104   0.695 -0.3709  0.5728  0.3937
17056TIP3   OH272658   5.071   3.645  12.722 -0.2091 -0.3444  0.4197
17056TIP3    H172659   4.982   3.609  12.730  0.4012 -1.8099  1.0637
17056TIP3    H272660   5.115   3.586  12.661  0.3352  0.3812  0.0939
17057TIP3   OH272661   2.257   2.774   2.807  0.2825  0.0759  0.4640
17057TIP3    H172662   2.232   2.867   2.809 -0.4575  0.0088 -2.0722
17057TIP3    H272663   2.293   2.757   2.894 -0.1717  2.5632  1.2201
17058TIP3   OH272664   2.111   4.475   0.396 -0.4698 -0.3214  0.1323
17058TIP3    H172665   2.112   4.380   0.385 -0.8273 -0.4887  1.3686
17058TIP3    H272666   2.203   4.500   0.403 -0.3853 -1.1196  3.6691
17059TIP3   OH272667   6.555   2.186  14.114 -0.5470  0.1256  0.2647
17059TIP3    H172668   6.642   2.202  14.078  0.8195 -1.1781  2.7135
17059TIP3    H272669   6.544   2.091  14.107 -2.5696  0.4046 -1.5057
17060TIP3   OH272670   3.656   1.321  16.761 -0.1697 -0.2922 -0.4070
17060TIP3    H172671   3.671   1.388  16.829 -1.0366 -0.4038 -0.0997
17060TIP3    H272672   3.595   1.361  16.700  1.2510  0.1277 -1.6232
17061TIP3   OH272673   2.084   2.278   4.738  0.1251  0.6771 -0.5194
17061TIP3    H172674   2.007   2.223   4.749 -0.6484  2.0475  1.6593
17061TIP3    H272675   2.144   2.226   4.684 -1.9618 -0.7562 -1.5776
17062TIP3   OH272676   0.632   4.719  12.043  0.3967  0.3804  0.0265
17062TIP3    H172677   0.581   4.721  11.962  0.0096 -0.2768  0.2420
17062TIP3    H272678   0.635   4.626  12.067  0.5986  0.5546  0.7056
17063TIP3   OH272679   1.970   4.770   0.712  0.1042 -0.0079  0.6022
17063TIP3    H172680   1.928   4.812   0.786  0.2642  0.7255  0.2858
17063TIP3    H272681   1.918   4.798   0.636 -1.1335 -2.1297  0.5785
17064TIP3   OH272682   5.301   3.786   4.450  0.0958 -0.1755  0.0777
17064TIP3    H172683   5.343   3.790   4.536 -2.1448 -0.3458  1.2484
17064TIP3    H272684   5.302   3.693   4.428  1.1902 -0.0706 -0.3917
17065TIP3   OH272685   6.006   3.990   6.320 -0.0537 -0.3575 -0.3518
17065TIP3    H172686   5.997   4.060   6.385 -0.3516  0.4050 -1.1787
17065TIP3    H272687   6.100   3.987   6.300 -0.1838  0.7513 -1.2745
17066TIP3   OH272688   3.234   3.451   3.576 -0.1249  0.1529  0.2448
17066TIP3    H172689   3.301   3.432   3.510 -0.8932  0.1128 -0.5325
17066TIP3    H272690   3.261   3.399   3.652  0.7134  0.1194 -0.0593
17067TIP3   OH272691   2.629   3.931   3.618 -0.0898 -0.2280  0.2203
17067TIP3    H172692   2.613   4.022   3.643 -2.4223 -0.9444  1.6481
17067TIP3    H272693   2.716   3.912   3.653  0.0116  1.1532  0.8075
17068TIP3   OH272694   6.387   5.326   2.895 -0.1593 -0.7101 -0.0020
17068TIP3    H172695   6.449   5.259   2.923  0.2818  0.4721  2.0766
17068TIP3    H272696   6.314   5.277   2.856  0.4505 -2.3425  0.8407
17069TIP3   OH272697   2.588   4.202  14.424  0.6394  0.0506 -0.1130
17069TIP3    H172698   2.635   4.257  14.362 -0.9908  1.3725 -0.2413
17069TIP3    H272699   2.639   4.208  14.505 -0.4131  3.3738  0.4741
17070TIP3   OH272700   5.419   3.315  16.132 -0.2780 -0.1208  0.4333
17070TIP3    H172701   5.458   3.287  16.215  2.3036  1.4906 -0.1227
17070TIP3    H272702   5.407   3.410  16.142 -1.8027 -0.2014 -0.3636
17071TIP3   OH272703   4.039   0.116   2.314  0.1920 -0.5279  0.6149
17071TIP3    H172704   3.971   0.078   2.259 -0.9628  2.5749 -0.3363
17071TIP3    H272705   4.096   0.163   2.253 -0.5315  2.1454  1.8523
17072TIP3   OH272706   3.967   6.278   0.993  0.3852  0.0763  0.0015
17072TIP3    H172707   3.879   6.259   1.026  0.6394  0.2622  0.8014
17072TIP3    H272708   4.010   6.192   0.992  0.5652  0.1518  0.7308
17073TIP3   OH272709   3.161   3.924  12.344  0.6122 -0.5875  0.4527
17073TIP3    H172710   3.240   3.878  12.374  0.7430 -0.1345  0.8032
17073TIP3    H272711   3.102   3.854  12.315  1.0055 -0.9473  0.5214
17074TIP3   OH272712   0.174   0.798  15.149 -0.2352 -0.0927  0.2555
17074TIP3    H172713   0.262   0.834  15.139  0.0989 -0.3556  1.9504
17074TIP3    H272714   0.152   0.764  15.062  0.3104  2.1812 -0.8570
17075TIP3   OH272715   5.052   6.199  16.825 -0.7162 -0.3079  0.3313
17075TIP3    H172716   5.074   6.270  16.765 -0.4031 -1.2761 -0.7447
17075TIP3    H272717   5.057   6.238  16.912  0.7635  0.6681 -0.1489
17076TIP3   OH272718   3.013   3.463  16.253 -0.7085  0.0541 -0.2279
17076TIP3    H172719   2.996   3.392  16.191 -1.0967 -0.1359  0.0920
17076TIP3    H272720   3.083   3.429  16.309  0.7040  0.7910 -1.4694
17077TIP3   OH272721   1.517   4.957   4.336  0.0704  0.1157  0.2130
17077TIP3    H172722   1.603   4.992   4.311  0.1933  0.5845  1.2270
17077TIP3    H272723   1.536   4.868   4.366  0.6507  1.0296  2.8315
17078TIP3   OH272724   2.339   5.000   2.576 -0.3105 -0.2404  0.1866
17078TIP3    H172725   2.387   5.005   2.493  0.4509 -0.0184  0.6351
17078TIP3    H272726   2.346   5.087   2.613 -0.1262 -0.4982  0.7723
17079TIP3   OH272727   6.606   2.595  13.320  0.2109 -0.2591  0.3422
17079TIP3    H172728   6.544   2.611  13.391  0.5784  0.6805  0.4632
17079TIP3    H272729   6.624   2.501  13.324 -0.9833 -0.4936  0.4763
17080TIP3   OH272730   3.511   1.925   1.931  0.7196 -0.0318  0.0340
17080TIP3    H172731   3.562   1.999   1.899 -0.0468  0.6290  0.3198
17080TIP3    H272732   3.434   1.964   1.972  0.3926 -0.9769  0.3536
17081TIP3   OH272733   1.850   0.986   6.833  0.0883  0.2600  0.6352
17081TIP3    H172734   1.915   1.053   6.810  1.2416 -0.6555  1.1569
17081TIP3    H272735   1.791   0.983   6.758  1.2461  0.3992 -0.3015
17082TIP3   OH272736   4.860   3.392   5.224 -0.6390 -0.0714 -0.4082
17082TIP3    H172737   4.803   3.435   5.160  0.4444  0.6470 -0.9192
17082TIP3    H272738   4.879   3.307   5.187 -1.0492 -0.1570 -0.4246
17083TIP3   OH272739   5.697   4.509  12.468  0.2411 -0.3042 -0.6283
17083TIP3    H172740   5.675   4.593  12.509 -0.0107 -0.7231  0.1120
17083TIP3    H272741   5.785   4.489  12.501  0.4927 -0.1055 -1.1758
17084TIP3   OH272742   4.316   1.159   3.457  0.2925  0.5140 -0.1138
17084TIP3    H172743   4.236   1.151   3.405  0.8592  1.4003 -1.1732
17084TIP3    H272744   4.384   1.181   3.393  1.5505 -0.9645  0.6429
17085TIP3   OH272745   3.354   5.312  12.882 -0.4934 -0.4452 -0.2593
17085TIP3    H172746   3.261   5.325  12.901 -0.0219  0.2179  1.8697
17085TIP3    H272747   3.395   5.394  12.910  0.7931 -0.9370 -0.6788
17086TIP3   OH272748   2.404   3.745   1.245 -0.1420 -0.1577  0.2251
17086TIP3    H172749   2.410   3.793   1.328  2.0222 -0.3348  0.2350
17086TIP3    H272750   2.311   3.725   1.236 -0.7700  1.8811  1.4334
17087TIP3   OH272751   3.787   1.402   2.552 -0.4758  0.0687  0.0358
17087TIP3    H172752   3.830   1.426   2.634  0.3770  0.5411 -0.5394
17087TIP3    H272753   3.856   1.363   2.499 -1.3219 -1.5372  0.0449
17088TIP3   OH272754   4.065   1.858  16.415  0.0208 -0.1043 -0.2955
17088TIP3    H172755   4.036   1.936  16.462 -0.6342  0.8901 -2.2438
17088TIP3    H272756   4.127   1.816  16.475  2.6460  3.3977 -0.1896
17089TIP3   OH272757   0.362   5.980   4.016  0.1763 -0.2748 -0.2197
17089TIP3    H172758   0.378   6.063   4.061 -0.3601  0.0140 -0.5600
17089TIP3    H272759   0.432   5.974   3.951  1.1493 -0.8415  0.8274
17090TIP3   OH272760   4.147   1.836  11.898 -0.6259 -0.0145 -0.2486
17090TIP3    H172761   4.141   1.772  11.827  0.5814 -0.7575  0.2817
17090TIP3    H272762   4.241   1.844  11.916 -0.7847  1.5106  0.0758
17091TIP3   OH272763   4.592   5.947   0.663 -0.3253  0.3637 -0.3350
17091TIP3    H172764   4.665   5.999   0.696 -0.4429  0.6671 -0.5497
17091TIP3    H272765   4.541   5.924   0.741 -0.8574  1.4661 -0.3492
17092TIP3   OH272766   5.354   1.210   1.111 -0.3317 -0.1646 -0.7887
17092TIP3    H172767   5.337   1.301   1.135  0.0700 -0.4919  0.8509
17092TIP3    H272768   5.295   1.159   1.167  0.4030 -0.9576 -0.7141
17093TIP3   OH272769   3.760   5.050  14.796  0.0873  0.6637 -0.5231
17093TIP3    H172770   3.715   5.131  14.773 -1.0083 -0.0367 -0.9143
17093TIP3    H272771   3.735   5.034  14.887 -3.5215 -1.5652 -1.6794
17094TIP3   OH272772   1.022   2.413   1.213  0.0474 -0.3736 -0.3387
17094TIP3    H172773   1.003   2.323   1.241 -0.6821 -0.4561 -1.0676
17094TIP3    H272774   1.082   2.404   1.140 -0.2830 -0.2834 -0.6228
17095TIP3   OH272775   2.661   2.139   2.974  0.0263  0.2749 -0.6806
17095TIP3    H172776   2.648   2.140   2.879  1.3615 -0.9067 -0.9092
17095TIP3    H272777   2.730   2.075   2.988 -0.0601  0.5200  1.0966
17096TIP3   OH272778   5.880   1.851   3.175 -0.8328 -0.0684  0.4949
17096TIP3    H172779   5.887   1.758   3.153 -0.5398  0.5088 -2.2692
17096TIP3    H272780   5.830   1.853   3.256 -0.6105 -2.6425  0.7698
17097TIP3   OH272781   3.938   5.188   2.378  0.1408 -0.7265 -0.1689
17097TIP3    H172782   3.995   5.113   2.366  1.8673  0.0039  2.6438
17097TIP3    H272783   3.867   5.156   2.434 -0.7591 -0.9367 -1.3873
17098TIP3   OH272784   6.067   1.755  14.027 -0.4259  0.0041 -0.1541
17098TIP3    H172785   5.979   1.775  13.997  0.3326 -0.0460 -2.6064
17098TIP3    H272786   6.103   1.841  14.053 -1.6292 -0.1650  2.3920
17099TIP3   OH272787   2.683   4.808   5.503  0.2469  0.4471  0.0849
17099TIP3    H172788   2.625   4.794   5.578  0.2520 -0.6168 -0.0865
17099TIP3    H272789   2.739   4.881   5.529 -0.8835  1.2220  0.4155
17100TIP3   OH272790   6.187   5.793  10.670 -0.0707 -0.2821  0.3248
17100TIP3    H172791   6.220   5.856  10.606 -2.7001  0.0668 -0.8374
17100TIP3    H272792   6.186   5.710  10.624 -0.6164 -0.3124  0.3819
17101TIP3   OH272793   4.788   4.621   2.863  0.0194 -0.3714 -0.1042
17101TIP3    H172794   4.815   4.687   2.798  0.3091  0.6871  1.0513
17101TIP3    H272795   4.718   4.664   2.912 -0.5428 -1.3562 -0.0262
17102TIP3   OH272796   0.200   0.964  13.653  0.3662  0.8777  0.1208
17102TIP3    H172797   0.132   1.022  13.687 -0.5800 -0.5468  0.7814
17102TIP3    H272798   0.275   1.021  13.639 -1.0971  2.5986 -1.1433
17103TIP3   OH272799   0.104   0.621  12.940 -0.5294 -0.4479 -0.1462
17103TIP3    H172800   0.126   0.580  12.856 -1.3766 -1.1230 -0.0614
17103TIP3    H272801   0.115   0.715  12.925 -0.0729 -0.6065 -0.8291
17104TIP3   OH272802   4.407   2.173   3.478 -0.6836  0.0833 -0.8156
17104TIP3    H172803   4.399   2.117   3.401 -1.2654 -2.3403  0.8941
17104TIP3    H272804   4.496   2.210   3.472  0.6476 -2.8698 -0.9042
17105TIP3   OH272805   5.964   4.311  15.434  0.4657  0.2832  0.8327
17105TIP3    H172806   5.970   4.376  15.504  1.7662  1.1676 -0.0467
17105TIP3    H272807   6.035   4.250  15.451  0.5281  0.2664  0.5272
17106TIP3   OH272808   3.389   1.776  14.490  0.4010  0.1076  0.8121
17106TIP3    H172809   3.333   1.716  14.539 -0.5788 -0.1185 -0.5118
17106TIP3    H272810   3.477   1.739  14.497  0.3340  0.2080  2.5441
17107TIP3   OH272811   4.193   0.553  10.680  0.1796  0.2545 -0.0399
17107TIP3    H172812   4.130   0.615  10.643 -0.3217  0.5679  1.2988
17107TIP3    H272813   4.269   0.607  10.702 -0.4610  0.5421  1.6297
17108TIP3   OH272814   5.003   0.075   1.893  0.3249  0.2903  0.0992
17108TIP3    H172815   4.942   0.121   1.835  1.3771  4.3266  1.9058
17108TIP3    H272816   5.090   0.098   1.860  0.9307 -0.5996  1.0121
17109TIP3   OH272817   3.633   0.909  13.372  0.2644  0.2622 -0.3831
17109TIP3    H172818   3.559   0.946  13.420 -0.8557 -2.2977  0.0196
17109TIP3    H272819   3.704   0.908  13.436  0.1721  1.1728 -0.2512
17110TIP3   OH272820   2.061   1.830  16.757  0.0887 -0.0068  0.0468
17110TIP3    H172821   2.021   1.859  16.675 -3.1283  0.5162  1.6324
17110TIP3    H272822   2.151   1.862  16.753 -0.1437  0.5222 -2.9671
17111TIP3   OH272823   3.000   2.043  12.553  0.3154 -0.4442 -0.1442
17111TIP3    H172824   2.947   2.072  12.479  0.1844 -2.2395 -0.8234
17111TIP3    H272825   2.937   2.012  12.618  0.4313  1.1251  0.7565
17112TIP3   OH272826   2.048   2.085  15.276  0.4696 -0.3746 -0.0272
17112TIP3    H172827   2.036   2.180  15.270  1.4173 -0.2468 -0.1920
17112TIP3    H272828   2.048   2.067  15.370  1.3800 -0.0310  0.0554
17113TIP3   OH272829   0.683   1.538  13.306  0.3891 -0.2066 -0.3122
17113TIP3    H172830   0.751   1.520  13.372  0.9848  0.8416 -0.6069
17113TIP3    H272831   0.603   1.504  13.345  1.0406 -1.3048  0.1391
17114TIP3   OH272832   0.878   0.547   2.842  0.2865 -0.3364  0.2433
17114TIP3    H172833   0.914   0.465   2.808  3.7155  0.9604  0.3638
17114TIP3    H272834   0.853   0.596   2.764  2.1988  0.1272 -0.1100
17115TIP3   OH272835   1.223   6.816  13.374 -0.4095 -0.3561  0.2800
17115TIP3    H172836   1.163   6.801  13.447 -0.2997  0.7374  0.6088
17115TIP3    H272837   1.223   6.911  13.362 -1.1234 -0.5520 -1.7229
17116TIP3   OH272838   0.863   4.253  16.238  0.3994  0.1771 -0.3225
17116TIP3    H172839   0.829   4.164  16.250 -3.9513  1.6184 -0.3229
17116TIP3    H272840   0.891   4.280  16.326  1.2223 -0.9397 -0.2181
17117TIP3   OH272841   4.247   1.423  12.607  0.0878 -0.0608 -0.0473
17117TIP3    H172842   4.179   1.417  12.674 -0.3343 -0.4895 -0.5057
17117TIP3    H272843   4.243   1.339  12.561  0.7375  0.0210 -0.2613
17118TIP3   OH272844   5.678   5.197   4.222  0.6876 -0.6515 -0.2944
17118TIP3    H172845   5.629   5.275   4.249  1.1357 -0.7711  0.9263
17118TIP3    H272846   5.615   5.147   4.170  0.3191  0.3980 -0.8979
17119TIP3   OH272847   2.327   4.519  12.551  0.1370  0.3788 -0.2243
17119TIP3    H172848   2.289   4.433  12.532  0.5133 -0.0307  0.8131
17119TIP3    H272849   2.253   4.579  12.548 -0.3246 -0.1599  0.1425
17120TIP3   OH272850   6.698   4.118  15.209  0.1902 -0.1477 -0.0184
17120TIP3    H172851   6.634   4.047  15.207  1.6369 -1.4793 -1.2649
17120TIP3    H272852   6.645   4.197  15.203 -1.4002 -1.1488  0.0451
17121TIP3   OH272853   0.185   1.642  16.699 -0.0064  0.4583  0.8929
17121TIP3    H172854   0.243   1.665  16.626 -0.3201  0.4200  0.6317
17121TIP3    H272855   0.189   1.546  16.703 -0.9254  0.3797  0.1545
17122TIP3   OH272856   2.295   3.405   5.709  0.2555  0.2314  0.2711
17122TIP3    H172857   2.251   3.485   5.736 -0.2841 -0.2577  0.8802
17122TIP3    H272858   2.313   3.417   5.616  1.8798  1.8411  0.7408
17123TIP3   OH272859   4.285   2.496  14.705 -0.3391  0.0311  0.4410
17123TIP3    H172860   4.332   2.413  14.702 -0.1765  0.1148  0.6026
17123TIP3    H272861   4.225   2.487  14.779  1.7383  1.1127  2.4014
17124TIP3   OH272862   4.163   4.761   4.702 -0.1082  0.1353  0.6213
17124TIP3    H172863   4.073   4.760   4.670 -0.0890 -0.0780  0.5724
17124TIP3    H272864   4.216   4.737   4.626 -0.1193 -1.1399  0.9820
17125TIP3   OH272865   6.007   5.520  15.581  0.0876  0.5425 -0.6600
17125TIP3    H172866   5.927   5.553  15.621  0.8367  2.5174 -0.7015
17125TIP3    H272867   5.992   5.526  15.487  0.0669  0.3449 -0.6700
17126TIP3   OH272868   0.685   0.626  10.956 -0.2328 -0.3905  0.2479
17126TIP3    H172869   0.660   0.537  10.934  0.7693 -0.7088  0.3405
17126TIP3    H272870   0.741   0.654  10.884 -0.5330  0.1682  0.2219
17127TIP3   OH272871   1.561   5.917  11.194  0.0290  0.2908 -0.2826
17127TIP3    H172872   1.507   5.867  11.133 -0.6678  1.2450 -0.4749
17127TIP3    H272873   1.525   6.006  11.190  2.5240  1.3286 -1.4876
17128TIP3   OH272874   5.148   5.552   2.374 -0.2605 -0.1620  0.5224
17128TIP3    H172875   5.070   5.534   2.322 -1.8429 -2.2601  3.3198
17128TIP3    H272876   5.156   5.648   2.373 -1.0670 -0.0373 -2.1897
17129TIP3   OH272877   4.508   3.339  11.051  0.7832 -0.2125  0.0375
17129TIP3    H172878   4.522   3.280  11.125 -1.2198 -0.0916  0.5665
17129TIP3    H272879   4.526   3.426  11.087 -2.8895  0.1726  1.3271
17130TIP3   OH272880   3.924   4.926  14.637  0.3690 -0.4110  0.0427
17130TIP3    H172881   3.994   4.989  14.622 -0.9399  1.1622  0.2447
17130TIP3    H272882   3.867   4.968  14.701 -0.8346 -1.5754 -0.2271
17131TIP3   OH272883   3.468   2.088   2.428 -0.0719 -0.0525  0.0865
17131TIP3    H172884   3.452   2.082   2.522 -0.8439  0.1030 -0.0316
17131TIP3    H272885   3.545   2.144   2.421 -0.1693  0.1549  0.6168
17132TIP3   OH272886   3.688   4.386   4.359 -0.6094 -0.6632 -0.2798
17132TIP3    H172887   3.614   4.351   4.308 -1.5203  0.6488  0.0902
17132TIP3    H272888   3.656   4.469   4.394  1.7238  1.0374 -1.8349
17133TIP3   OH272889   3.163   4.432  15.073  0.1828  0.4990 -0.1838
17133TIP3    H172890   3.104   4.412  15.000  0.2247 -0.1887 -0.0299
17133TIP3    H272891   3.250   4.436  15.032  0.4603 -1.6124  0.0659
17134TIP3   OH272892   1.651   6.308  15.472 -0.3058 -0.1786  0.0857
17134TIP3    H172893   1.601   6.358  15.408  0.2868  0.6978  0.2804
17134TIP3    H272894   1.675   6.373  15.539 -1.9081 -1.2860  1.8333
17135TIP3   OH272895   3.833   2.358   6.065 -0.1689 -0.1299  0.1362
17135TIP3    H172896   3.910   2.332   6.116  1.6614  0.2126 -2.2323
17135TIP3    H272897   3.817   2.283   6.007 -0.7013  0.3767 -0.3862
17136TIP3   OH272898   3.510   5.628  13.402  0.2369 -0.2690  0.1187
17136TIP3    H172899   3.432   5.677  13.375  0.6067  0.4705  0.3675
17136TIP3    H272900   3.476   5.560  13.460 -0.2102  0.1388  0.3439
17137TIP3   OH272901   6.720   3.069  16.250  0.4335  0.4446 -0.3128
17137TIP3    H172902   6.808   3.050  16.283  0.4041 -0.1923 -0.5825
17137TIP3    H272903   6.690   3.142  16.304  0.4679 -0.4338  0.9513
17138TIP3   OH272904   0.519   1.898  16.450  0.4279  0.0393 -0.5401
17138TIP3    H172905   0.562   1.982  16.433  0.2723  0.0994 -0.6397
17138TIP3    H272906   0.533   1.882  16.543  1.4941 -0.4058 -0.7608
17139TIP3   OH272907   6.374   3.091   5.857  0.4813 -0.1076  0.2597
17139TIP3    H172908   6.355   3.147   5.932 -0.3010  2.0230 -1.4610
17139TIP3    H272909   6.468   3.101   5.843  0.7162 -0.8521  1.1546
17140TIP3   OH272910   4.948   4.124  15.174  0.6074 -0.2147  0.3505
17140TIP3    H172911   4.873   4.168  15.133 -0.7765 -1.1505  1.7239
17140TIP3    H272912   5.021   4.140  15.114 -1.1524 -1.1404 -2.2501
17141TIP3   OH272913   6.441   0.713   0.958 -0.2273  0.5677  0.5871
17141TIP3    H172914   6.349   0.736   0.947 -0.2404  0.9529  1.3995
17141TIP3    H272915   6.442   0.646   1.026 -0.1753 -1.8880 -1.7107
17142TIP3   OH272916   5.670   0.455  13.777  0.3445 -0.2015 -0.4479
17142TIP3    H172917   5.757   0.434  13.811 -0.7356 -2.6616  1.0797
17142TIP3    H272918   5.624   0.371  13.774 -1.7218  0.8800 -2.0782
17143TIP3   OH272919   5.597   6.743  10.858 -0.2720 -0.1675 -0.1607
17143TIP3    H172920   5.615   6.720  10.767 -0.2690  0.6177 -0.3638
17143TIP3    H272921   5.601   6.839  10.860 -1.2852 -0.1226  0.4421
17144TIP3   OH272922   5.447   0.318   1.207  0.1340  0.0776 -0.2920
17144TIP3    H172923   5.523   0.280   1.162  0.4972  1.8613 -1.2753
17144TIP3    H272924   5.483   0.356   1.287  0.2748  0.7869 -0.6828
17145TIP3   OH272925   1.123   0.675   0.435 -0.7084 -0.0988  0.4214
17145TIP3    H172926   1.111   0.757   0.483  0.8426  0.5297 -0.2360
17145TIP3    H272927   1.217   0.669   0.419 -1.1859  0.0210 -3.0885
17146TIP3   OH272928   5.822   0.978  13.855 -0.2008 -0.4809 -0.2796
17146TIP3    H172929   5.889   0.989  13.922 -2.9804  2.4669  2.3922
17146TIP3    H272930   5.845   1.041  13.787 -1.0457  1.8651  1.4868
17147TIP3   OH272931   1.045   5.503   5.650 -0.3186 -0.3199  0.3455
17147TIP3    H172932   1.044   5.529   5.742  0.6015 -1.3616  0.6684
17147TIP3    H272933   1.088   5.577   5.606 -1.9471  0.7884  0.5116
17148TIP3   OH272934   4.182   3.539   5.392  0.6794 -0.0669  0.0201
17148TIP3    H172935   4.210   3.559   5.303  0.0559 -0.9756 -0.3976
17148TIP3    H272936   4.123   3.464   5.382 -0.6578  0.8051  1.0251
17149TIP3   OH272937   2.917   0.695   0.969  0.0603 -0.4382  1.0710
17149TIP3    H172938   2.822   0.705   0.958  0.1189 -1.8153 -1.3776
17149TIP3    H272939   2.954   0.769   0.920  0.2566 -1.2813 -0.0753
17150TIP3   OH272940   0.945   3.774   4.653 -0.3322 -0.5031  0.0214
17150TIP3    H172941   1.035   3.760   4.623  0.4319  2.2257  0.7434
17150TIP3    H272942   0.900   3.692   4.632  2.0839 -1.6508 -1.1513
17151TIP3   OH272943   2.521   3.214  14.317  0.1533  0.3221 -0.4711
17151TIP3    H172944   2.468   3.136  14.302  1.0720 -1.0782  2.7305
17151TIP3    H272945   2.608   3.181  14.339  0.2218  2.0488  2.4698
17152TIP3   OH272946   1.444   2.864  14.772 -0.2534  0.4604 -0.5407
17152TIP3    H172947   1.496   2.879  14.850 -2.2963  1.4161  0.7216
17152TIP3    H272948   1.420   2.771  14.776  0.2779  0.3186 -0.4839
17153TIP3   OH272949   3.926   4.890   5.558 -0.4208 -0.6969 -0.2818
17153TIP3    H172950   3.840   4.851   5.543 -1.2573  0.8529  0.2216
17153TIP3    H272951   3.917   4.980   5.526  1.0712 -0.5629 -0.3674
17154TIP3   OH272952   2.782   5.167  13.434 -0.0532  0.2846 -0.1038
17154TIP3    H172953   2.861   5.220  13.438  0.0057  0.2485 -0.6368
17154TIP3    H272954   2.733   5.203  13.359 -0.7163  0.5470  0.4429
17155TIP3   OH272955   4.939   3.479   1.168 -0.1500  0.2517  0.3556
17155TIP3    H172956   4.864   3.455   1.114  0.5372  0.3523 -0.6738
17155TIP3    H272957   4.966   3.565   1.135  0.9075 -0.1413  0.1632
17156TIP3   OH272958   4.613   4.545  15.548  0.0130 -0.3790 -0.2112
17156TIP3    H172959   4.569   4.493  15.616 -0.8009  0.1865 -0.2968
17156TIP3    H272960   4.697   4.502  15.537  0.0681 -0.6377  0.9916
17157TIP3   OH272961   1.757   5.683  12.459 -0.1604  0.0561  0.0396
17157TIP3    H172962   1.722   5.658  12.544 -0.0562 -0.4247 -0.0536
17157TIP3    H272963   1.849   5.703  12.476 -0.7192  2.4575  0.4977
17158TIP3   OH272964   0.998   2.208   3.989 -0.1125  0.4268  0.0098
17158TIP3    H172965   0.955   2.138   4.039  1.0425 -0.3732 -0.0756
17158TIP3    H272966   0.932   2.277   3.983 -1.4296 -0.7946 -0.2169
17159TIP3   OH272967   0.104   3.548   3.903 -0.2840 -0.0416 -0.1365
17159TIP3    H172968   0.072   3.458   3.910  1.7437 -0.9629 -1.6586
17159TIP3    H272969   0.076   3.590   3.984 -0.1420 -2.4140  1.2196
17160TIP3   OH272970   0.239   5.843  11.908 -0.0396  0.2419  0.3026
17160TIP3    H172971   0.333   5.842  11.886  0.3503  0.1295  1.8506
17160TIP3    H272972   0.196   5.803  11.833  1.1737  0.1718 -0.3785
17161TIP3   OH272973   4.298   2.845   2.713  0.6078 -0.4584  0.1267
17161TIP3    H172974   4.247   2.916   2.674  0.8128 -0.6505 -0.5086
17161TIP3    H272975   4.266   2.838   2.803  1.2575  1.0920  0.5081
17162TIP3   OH272976   2.309   0.514  14.498  0.1560 -0.2603  0.3021
17162TIP3    H172977   2.404   0.513  14.500  0.1836 -0.2087 -0.5312
17162TIP3    H272978   2.286   0.477  14.412 -0.5601  0.1600  0.2989
17163TIP3   OH272979   2.752   5.353   3.871 -0.1792  0.0986  0.4001
17163TIP3    H172980   2.744   5.260   3.851  0.1050  0.1783 -0.0847
17163TIP3    H272981   2.783   5.356   3.961 -0.6101 -0.2699  0.5638
17164TIP3   OH272982   4.333   0.222  14.302  0.2484 -0.9839 -0.5976
17164TIP3    H172983   4.382   0.192  14.225 -1.5320 -1.5243 -1.5844
17164TIP3    H272984   4.351   0.156  14.369  1.2346 -0.9051 -0.7712
17165TIP3   OH272985   1.675   0.974  13.831  0.0333  0.1216 -0.5954
17165TIP3    H172986   1.612   1.044  13.848 -2.0368 -1.6754 -0.4061
17165TIP3    H272987   1.753   0.999  13.880 -0.8669  1.9478 -0.0024
17166TIP3   OH272988   3.201   3.676   0.686  0.1838 -0.1084 -0.2772
17166TIP3    H172989   3.109   3.694   0.706  0.4348  0.7474  0.1641
17166TIP3    H272990   3.198   3.616   0.612 -0.7375  0.4595 -0.7254
17167TIP3   OH272991   5.055   1.014  11.511  0.2405 -0.2284 -0.3634
17167TIP3    H172992   5.008   1.030  11.594  1.3355 -1.6262  0.5683
17167TIP3    H272993   5.004   1.062  11.446 -0.8956  0.5830  1.0447
17168TIP3   OH272994   6.200   5.747   0.872 -0.2945  0.0910 -0.5732
17168TIP3    H172995   6.274   5.798   0.904 -1.4387  0.8970  0.9123
17168TIP3    H272996   6.209   5.750   0.776  1.2186  0.6962 -0.4403
17169TIP3   OH272997   6.588   0.317   1.135 -0.1279 -0.5102 -0.1729
17169TIP3    H172998   6.649   0.298   1.207 -0.1600  0.4795  0.1400
17169TIP3    H272999   6.551   0.233   1.111 -1.1589 -0.7076  1.9262
17170TIP3   OH273000   5.733   1.480  14.584 -0.6782 -0.3380 -0.4688
17170TIP3    H173001   5.747   1.386  14.568  1.4974 -0.1625  0.0908
17170TIP3    H273002   5.713   1.484  14.678 -2.3398 -0.3407 -0.7883
17171TIP3   OH273003   5.563   0.192   5.410 -0.3791  0.2112  0.3698
17171TIP3    H173004   5.508   0.222   5.483 -0.0443  2.2566 -0.1470
17171TIP3    H273005   5.615   0.269   5.386 -0.9409 -0.1588 -2.4303
17172TIP3   OH273006   6.343   6.426  12.409 -0.2193  0.3049  0.2946
17172TIP3    H173007   6.437   6.445  12.404 -0.0950 -0.1647  0.7888
17172TIP3    H273008   6.328   6.400  12.500 -0.6785 -0.3820  0.0309
17173TIP3   OH273009   5.768   2.016   5.851 -0.5100  0.2233 -0.2722
17173TIP3    H173010   5.721   2.084   5.804 -2.1483  0.0601  1.0269
17173TIP3    H273011   5.747   1.935   5.805 -1.1877  0.2040  0.0640
17174TIP3   OH273012   2.949   5.880  13.336  0.2039 -0.4573  0.6242
17174TIP3    H173013   2.998   5.915  13.262  0.4883 -0.9226  0.5878
17174TIP3    H273014   2.858   5.878  13.305  0.2283 -0.0408  0.5215
17175TIP3   OH273015   1.384   6.041  11.850 -0.1826 -0.4593  0.3086
17175TIP3    H173016   1.411   6.131  11.834 -0.3998 -0.6408 -1.2224
17175TIP3    H273017   1.404   6.026  11.942  1.8060  0.4733  0.0801
17176TIP3   OH273018   2.049   1.672  14.348 -0.4128  0.0015  0.5333
17176TIP3    H173019   2.133   1.629  14.332 -1.2898 -2.1176  1.2100
17176TIP3    H273020   2.061   1.718  14.431 -0.4624 -2.0057  1.7233
17177TIP3   OH273021   1.911   0.756   0.364  0.1352 -0.1417 -0.4057
17177TIP3    H173022   1.849   0.820   0.399  0.9618  0.4465  0.0045
17177TIP3    H273023   1.977   0.747   0.433  1.6278  0.7841 -1.6555
17178TIP3   OH273024   5.666   3.871   0.867 -0.7165 -0.1748 -0.0031
17178TIP3    H173025   5.640   3.918   0.788  2.2576  0.1181 -0.9452
17178TIP3    H273026   5.648   3.933   0.938 -2.5978 -0.0956 -0.4934
17179TIP3   OH273027   6.718   3.565   5.093  0.2144 -0.4128 -0.1263
17179TIP3    H173028   6.701   3.508   5.018  0.3450  0.4900 -0.8496
17179TIP3    H273029   6.652   3.633   5.088 -0.9423 -1.3143  1.6379
17180TIP3   OH273030   0.325   2.841   0.853 -0.1653  0.0062  0.0632
17180TIP3    H173031   0.381   2.785   0.797 -0.6882 -1.8334  1.2830
17180TIP3    H273032   0.368   2.926   0.852  1.6432 -0.8549 -0.5283
17181TIP3   OH273033   4.076   2.208   3.451 -0.0529 -0.1492 -0.3321
17181TIP3    H173034   3.995   2.195   3.501  0.3338 -1.5393  0.0015
17181TIP3    H273035   4.137   2.144   3.489  1.1580  0.7585 -0.6814
17182TIP3   OH273036   4.526   5.898   4.393  0.1892 -0.0993  0.0324
17182TIP3    H173037   4.618   5.878   4.407 -0.6706 -2.4579  3.4048
17182TIP3    H273038   4.484   5.883   4.477 -3.6626 -1.3595 -1.8594
17183TIP3   OH273039   5.375   4.549  15.871 -0.1233  0.1289 -0.0656
17183TIP3    H173040   5.316   4.623  15.859  0.0669  0.3548  0.3798
17183TIP3    H273041   5.321   4.483  15.916  0.4132  0.9745  1.9281
17184TIP3   OH273042   3.550   1.500  11.686  0.2178  0.1610 -0.9483
17184TIP3    H173043   3.608   1.444  11.635  1.8483  0.3347  0.6214
17184TIP3    H273044   3.576   1.589  11.662  0.6728  0.2403 -0.1888
17185TIP3   OH273045   4.508   5.148   0.383 -0.2652 -0.0818 -0.1307
17185TIP3    H173046   4.464   5.148   0.299  1.9425  1.1460 -1.3883
17185TIP3    H273047   4.522   5.056   0.404 -0.3569 -0.3891 -1.3913
17186TIP3   OH273048   3.257   5.533  12.695 -0.1672 -0.0815 -0.2609
17186TIP3    H173049   3.279   5.548  12.787 -1.4824 -0.9227  0.2117
17186TIP3    H273050   3.206   5.610  12.670 -0.5764 -0.2795 -0.0274
17187TIP3   OH273051   0.780   6.406  15.036 -0.9314 -0.3222 -0.1594
17187TIP3    H173052   0.820   6.345  14.974 -1.4984 -0.2730 -0.5825
17187TIP3    H273053   0.762   6.484  14.985 -0.9253 -0.0815  0.1987
17188TIP3   OH273054   2.008   1.074   4.249  0.4254  0.0428  0.0368
17188TIP3    H173055   2.082   1.129   4.223  0.8460  0.0662  1.2212
17188TIP3    H273056   2.013   1.070   4.344 -2.1112  1.4625  0.3128
17189TIP3   OH273057   4.730   4.682  13.537 -0.0798  0.7074 -0.4653
17189TIP3    H173058   4.679   4.728  13.470 -3.1581 -2.5679 -0.6558
17189TIP3    H273059   4.788   4.624  13.487 -0.2510  0.4058 -0.3204
17190TIP3   OH273060   6.741   1.209  15.411 -0.2141 -0.5635  0.0422
17190TIP3    H173061   6.835   1.200  15.429 -0.2330 -0.5945  0.1291
17190TIP3    H273062   6.726   1.155  15.334 -0.0693 -0.1601 -0.2675
17191TIP3   OH273063   1.302   5.086  16.654  0.1601  0.3904  0.4990
17191TIP3    H173064   1.326   5.077  16.746 -1.6170 -0.2279  0.9234
17191TIP3    H273065   1.222   5.035  16.645 -1.0189  2.3974 -0.8588
17192TIP3   OH273066   4.909   2.888  11.594  0.3407 -0.2293  0.6549
17192TIP3    H173067   4.968   2.959  11.566  0.3420 -0.1971  0.7401
17192TIP3    H273068   4.833   2.933  11.630 -0.4315 -0.2421 -0.8525
17193TIP3   OH273069   0.087   1.609   1.723 -0.1049  0.3119  0.2236
17193TIP3    H173070  -0.006   1.623   1.739 -0.1918  0.0482 -0.0476
17193TIP3    H273071   0.118   1.694   1.689  0.2647  1.1492  2.4932
17194TIP3   OH273072   1.560   4.888   3.733  0.1790 -0.3975 -0.0665
17194TIP3    H173073   1.646   4.928   3.751  0.6122 -2.0026  1.7651
17194TIP3    H273074   1.498   4.960   3.744  1.1666  0.4539  0.1214
17195TIP3   OH273075   4.405   3.505  12.668 -0.3650  0.3487 -0.2788
17195TIP3    H173076   4.317   3.470  12.682  0.0453 -1.0568 -1.0626
17195TIP3    H273077   4.457   3.430  12.638  0.9162  1.3182 -0.5878
17196TIP3   OH273078   4.157   4.004  14.554 -0.1755  0.6224  0.5381
17196TIP3    H173079   4.198   4.069  14.496  1.6574  0.5868  1.7342
17196TIP3    H273080   4.097   3.956  14.497  2.5462 -0.3616 -1.7270
17197TIP3   OH273081   6.246   1.927  16.290  0.3049 -0.3352  0.1063
17197TIP3    H173082   6.308   1.970  16.349 -1.6272  0.9353  1.3060
17197TIP3    H273083   6.224   1.995  16.226 -0.3537 -0.5536  0.0971
17198TIP3   OH273084   3.401   4.438   5.031 -0.1241  0.0332  0.4073
17198TIP3    H173085   3.362   4.485   4.958  0.5545 -0.4837 -0.3092
17198TIP3    H273086   3.470   4.384   4.991  0.1405 -0.3950  1.4004
17199TIP3   OH273087   5.335   3.030   3.571  0.0575 -0.5226 -0.1982
17199TIP3    H173088   5.348   2.946   3.527  2.1519  0.2703 -1.2208
17199TIP3    H273089   5.370   3.017   3.659  0.5239 -0.6887 -0.4047
17200TIP3   OH273090   1.880   5.814  14.035 -0.3770  0.3452  0.4236
17200TIP3    H173091   1.953   5.826  13.974  0.8416  0.1756  1.7856
17200TIP3    H273092   1.870   5.719  14.041 -0.2548  0.3537  0.7604
17201TIP3   OH273093   0.506   4.554  16.525  0.4795  0.1604  0.3091
17201TIP3    H173094   0.416   4.521  16.527  1.2684 -2.2099  0.1196
17201TIP3    H273095   0.552   4.494  16.466  1.6922  2.7961 -1.6287
17202TIP3   OH273096   6.261   2.822   0.396 -0.1402  0.0955  0.1983
17202TIP3    H173097   6.198   2.856   0.333 -1.4566 -2.9316 -0.3360
17202TIP3    H273098   6.330   2.783   0.343 -1.1802 -2.3425  0.4818
17203TIP3   OH273099   3.197   0.940  16.113 -0.2883  0.2505 -0.1232
17203TIP3    H173100   3.254   1.005  16.154  2.5177 -1.2647 -1.2950
17203TIP3    H273101   3.162   0.984  16.035 -1.4048  1.4397  1.0047
17204TIP3   OH273102   3.115   2.464  13.430 -0.3921 -0.3204  0.4867
17204TIP3    H173103   3.063   2.517  13.370 -0.7520 -0.4963  0.6369
17204TIP3    H273104   3.077   2.482  13.516  0.1152 -0.0741  0.6630
17205TIP3   OH273105   3.981   6.144  10.522  0.8089  0.2552 -0.3374
17205TIP3    H173106   4.061   6.181  10.486  1.4634 -1.7932 -1.1567
17205TIP3    H273107   3.911   6.190  10.476  1.5140  1.7222  0.0178
17206TIP3   OH273108   1.850   4.542   1.868 -0.6217  0.0734  0.3475
17206TIP3    H173109   1.875   4.584   1.950  0.4807 -1.1574  0.6737
17206TIP3    H273110   1.813   4.457   1.893  0.1633 -0.5206 -0.4276
17207TIP3   OH273111   5.696   2.414  13.161 -0.1930 -0.5275  0.1193
17207TIP3    H173112   5.701   2.374  13.248 -2.3795 -3.6806 -1.0071
17207TIP3    H273113   5.787   2.431  13.137  0.6022 -1.4348  2.2036
17208TIP3   OH273114   0.465   6.384  16.213  0.3047  0.1059 -0.2447
17208TIP3    H173115   0.484   6.314  16.276  1.1758  0.0668 -0.5422
17208TIP3    H273116   0.415   6.340  16.144 -0.3577  0.0784  0.2386
17209TIP3   OH273117   4.152   0.578  13.624  0.2612  0.3842  0.0808
17209TIP3    H173118   4.060   0.585  13.596  0.2110 -0.3766  0.0114
17209TIP3    H273119   4.203   0.591  13.544  0.1870  0.1412 -0.0073
17210TIP3   OH273120   1.142   3.525   5.370  0.2651  0.4236  0.3670
17210TIP3    H173121   1.077   3.470   5.326 -0.6614  1.9457 -0.2369
17210TIP3    H273122   1.196   3.463   5.419 -0.4647 -1.0601 -0.6182
17211TIP3   OH273123   4.638   1.311   4.556 -0.1086 -0.4338 -0.3000
17211TIP3    H173124   4.727   1.344   4.565 -0.0684 -0.4645 -0.5757
17211TIP3    H273125   4.586   1.386   4.528  0.1481 -0.7790 -1.8036
17212TIP3   OH273126   5.058   2.831   2.454  0.1968  0.1386  0.3098
17212TIP3    H173127   4.998   2.904   2.465  0.8084  0.5537  0.9850
17212TIP3    H273128   5.027   2.765   2.516 -0.4631 -0.2521 -0.4296
17213TIP3   OH273129   1.925   1.256  16.566 -0.0475 -0.5028 -0.1258
17213TIP3    H173130   1.886   1.293  16.645 -0.8129  0.0435 -0.7355
17213TIP3    H273131   1.908   1.162  16.572 -0.0894 -0.4650  0.3639
17214TIP3   OH273132   1.889   0.538  11.673 -0.0176  0.2540 -0.4344
17214TIP3    H173133   1.876   0.494  11.756 -2.1194  0.4815 -0.5922
17214TIP3    H273134   1.856   0.627  11.687  0.4842  0.5794 -1.2286
17215TIP3   OH273135   1.567   1.749   4.251 -0.5328  0.6693 -0.1001
17215TIP3    H173136   1.642   1.690   4.246  0.2807  1.7123 -0.6604
17215TIP3    H273137   1.573   1.787   4.339 -0.3856  0.7511 -0.1439
17216TIP3   OH273138   3.658   3.621  13.485 -0.3084 -0.1829  0.2847
17216TIP3    H173139   3.567   3.590  13.479 -0.1717 -0.3453 -2.9361
17216TIP3    H273140   3.710   3.551  13.446  0.9922  0.5936  0.5629
17217TIP3   OH273141   6.457   0.515   4.177  0.2197  0.6977 -0.3843
17217TIP3    H173142   6.391   0.542   4.240  1.2720  1.6954  0.3320
17217TIP3    H273143   6.458   0.584   4.112  1.3610  1.3174  0.2543
17218TIP3   OH273144   0.229   5.328   1.057  0.2212  0.0201  0.0955
17218TIP3    H173145   0.170   5.385   1.006  1.5917  0.3583 -1.1858
17218TIP3    H273146   0.317   5.357   1.032  0.9913 -2.5804 -0.5409
17219TIP3   OH273147   5.475   1.738   2.663 -0.1499 -0.4185  0.6170
17219TIP3    H173148   5.382   1.751   2.641  0.3740  2.5715 -0.3486
17219TIP3    H273149   5.479   1.649   2.697 -2.9393 -1.5902 -1.6547
17220TIP3   OH273150   1.692   6.834   6.252  0.8270 -0.1122 -0.3204
17220TIP3    H173151   1.734   6.901   6.307 -0.6560 -0.7599  1.7301
17220TIP3    H273152   1.738   6.753   6.274  1.0770 -0.1764 -1.0466
17221TIP3   OH273153   0.507   4.660   0.238 -0.7037  0.2896  0.4708
17221TIP3    H173154   0.468   4.591   0.293 -0.2078 -0.0242  0.4350
17221TIP3    H273155   0.583   4.618   0.198 -1.6243  0.2002 -1.2623
17222TIP3   OH273156   0.682   5.493   0.869  0.2975  0.5257  0.2177
17222TIP3    H173157   0.599   5.467   0.830  1.3925 -1.3244 -1.0499
17222TIP3    H273158   0.677   5.588   0.874 -1.6600  0.5001 -0.3588
17223TIP3   OH273159   3.160   0.882   2.465  0.1138  0.2225 -0.0034
17223TIP3    H173160   3.226   0.947   2.438  0.4334 -0.2308 -0.3363
17223TIP3    H273161   3.083   0.934   2.486  0.3691  0.7162 -0.2503
17224TIP3   OH273162   5.241   0.660   3.170 -0.5098 -0.3898 -0.2497
17224TIP3    H173163   5.244   0.744   3.124  0.3548 -0.2466  0.0466
17224TIP3    H273164   5.197   0.601   3.109 -2.8852  0.7099  0.2783
17225TIP3   OH273165   5.483   4.809   1.289 -0.8460  0.0700 -0.3317
17225TIP3    H173166   5.502   4.778   1.200 -1.5629 -1.7078  0.0877
17225TIP3    H273167   5.420   4.746   1.323 -1.8413  1.6500  0.8845
17226TIP3   OH273168   4.652   1.623   4.078 -0.3706 -0.5027 -0.1842
17226TIP3    H173169   4.655   1.536   4.037  0.4405 -1.9294  2.6654
17226TIP3    H273170   4.582   1.617   4.142 -0.0181  0.8183  0.3530
17227TIP3   OH273171   3.130   3.441   5.623  0.0766 -0.3264  0.0390
17227TIP3    H173172   3.202   3.463   5.565  0.4488  1.8156  1.1806
17227TIP3    H273173   3.051   3.450   5.569  0.5607 -1.5418 -0.9113
17228TIP3   OH273174   4.813   1.161  15.684 -0.6021 -0.3207 -0.1999
17228TIP3    H173175   4.787   1.248  15.716  0.7564 -0.0425  0.2251
17228TIP3    H273176   4.797   1.103  15.758 -0.2119 -0.1902 -0.0128
17229TIP3   OH273177   3.711   4.522  15.716  0.2864 -0.6142 -0.5699
17229TIP3    H173178   3.786   4.463  15.726  0.5017 -0.2869 -0.2120
17229TIP3    H273179   3.638   4.475  15.756  0.4283 -0.6990 -0.4069
17230TIP3   OH273180   6.275   6.247   5.312 -0.5407  0.1523  0.7242
17230TIP3    H173181   6.214   6.318   5.333 -0.1149  0.1699  1.9497
17230TIP3    H273182   6.243   6.172   5.363 -0.3891 -0.2570  0.2324
17231TIP3   OH273183   1.366   1.425  13.112  0.2010  0.3752  0.0918
17231TIP3    H173184   1.341   1.498  13.169  0.1414 -0.6854  1.4992
17231TIP3    H273185   1.346   1.454  13.024  1.7783  2.7302  0.4216
17232TIP3   OH273186   0.753   4.365  15.530 -0.2534 -0.2448 -0.4640
17232TIP3    H173187   0.737   4.321  15.614  0.9369 -0.1368 -0.1684
17232TIP3    H273188   0.748   4.458  15.550 -0.6395 -0.2199 -0.6597
17233TIP3   OH273189   6.025   1.877   1.795  0.5103  0.7289  0.3650
17233TIP3    H173190   6.017   1.972   1.786 -2.5851  0.4963 -0.6510
17233TIP3    H273191   5.954   1.842   1.740  0.6909 -2.1153  1.7759
17234TIP3   OH273192   3.704   5.224   2.818 -0.8541 -0.6003 -0.3006
17234TIP3    H173193   3.731   5.259   2.903 -1.7608  0.7297 -0.5249
17234TIP3    H273194   3.671   5.300   2.770 -0.2999 -1.3130 -1.8853
17235TIP3   OH273195   2.351   1.637   4.895 -0.6116 -0.2062  0.0212
17235TIP3    H173196   2.387   1.714   4.851  0.6711 -1.5355 -1.3643
17235TIP3    H273197   2.384   1.644   4.985 -2.1266  1.8215  0.4946
17236TIP3   OH273198   0.160   6.303  13.232  0.3976  0.1795 -0.2510
17236TIP3    H173199   0.149   6.235  13.165  2.7738  0.4474 -0.9889
17236TIP3    H273200   0.115   6.269  13.309  0.2605 -1.5482 -1.0569
17237TIP3   OH273201   3.600   2.950   1.117 -0.9107  0.6969 -0.0797
17237TIP3    H173202   3.562   2.902   1.191  0.4525  1.7248  1.3591
17237TIP3    H273203   3.542   3.025   1.105 -0.1200  1.5565  1.2450
17238TIP3   OH273204   0.079   4.691  15.977  0.1357  0.0077 -0.4326
17238TIP3    H173205   0.071   4.666  15.885  2.4332  1.1816 -1.0197
17238TIP3    H273206   0.006   4.751  15.992 -1.3981 -1.6550 -0.8960
17239TIP3   OH273207   5.508   2.852   2.817 -0.1032  0.1056  0.5813
17239TIP3    H173208   5.597   2.840   2.785 -0.2722 -2.4756  0.8289
17239TIP3    H273209   5.456   2.870   2.739  0.6870  2.3839  0.5218
17240TIP3   OH273210   5.302   6.837  13.304  0.4064 -0.0862 -0.4348
17240TIP3    H173211   5.275   6.812  13.393  2.4440 -0.5911  0.0975
17240TIP3    H273212   5.251   6.780  13.247  0.3716 -1.0102  0.4889
17241TIP3   OH273213   0.882   0.545  14.264 -0.1321  0.1880  0.1868
17241TIP3    H173214   0.865   0.634  14.294 -3.0898 -0.6979  1.4978
17241TIP3    H273215   0.926   0.557  14.180 -0.4000  2.8749  0.3208
17242TIP3   OH273216   3.682   4.172  14.096  0.0671 -0.4922 -0.1609
17242TIP3    H173217   3.634   4.111  14.040  0.5586  0.2930 -1.4771
17242TIP3    H273218   3.708   4.120  14.172  0.5788 -1.9535 -1.3009
17243TIP3   OH273219   2.053   3.231  12.533  0.1768 -0.0994 -0.0003
17243TIP3    H173220   2.108   3.176  12.588  0.6326 -0.1013 -0.4512
17243TIP3    H273221   2.112   3.267  12.467  0.2171  2.1141  1.1245
17244TIP3   OH273222   1.407   1.750  11.154  0.3714 -0.2548 -0.1150
17244TIP3    H173223   1.387   1.657  11.146 -0.1722 -0.2179  0.6943
17244TIP3    H273224   1.434   1.776  11.066 -1.2836 -0.7491 -0.8089
17245TIP3   OH273225   2.855   0.844  14.567 -0.3896  0.3216 -0.4557
17245TIP3    H173226   2.844   0.933  14.533 -0.3481  0.4378 -0.1667
17245TIP3    H273227   2.776   0.829  14.620  0.5905  1.0056  1.2912
17246TIP3   OH273228   5.519   1.835   1.568  0.0993 -0.2033 -0.1341
17246TIP3    H173229   5.603   1.832   1.613 -0.0528  0.2009  0.1747
17246TIP3    H273230   5.490   1.925   1.577 -1.7759 -0.9504  2.3643
17247TIP3   OH273231   3.425   2.935   4.004 -0.0785 -0.1162  0.0079
17247TIP3    H173232   3.458   2.999   4.067 -1.7570 -0.0259  0.8499
17247TIP3    H273233   3.470   2.956   3.922  1.2777  0.5072  0.8787
17248TIP3   OH273234   4.009   3.839   1.152 -0.0593 -0.9479 -0.2024
17248TIP3    H173235   4.066   3.896   1.204 -1.0760 -0.3619  0.3227
17248TIP3    H273236   4.030   3.751   1.181  0.8979 -0.7799 -0.3559
17249TIP3   OH273237   0.381   1.869  15.187  0.2255  0.3011 -0.1315
17249TIP3    H173238   0.439   1.841  15.258  2.5791  0.8867 -1.6988
17249TIP3    H273239   0.338   1.947  15.221  3.2449  2.1159 -0.0806
17250TIP3   OH273240   5.308   5.871   3.375  0.1837  0.0528  0.1771
17250TIP3    H173241   5.275   5.929   3.307 -0.2566  0.6490  0.8841
17250TIP3    H273242   5.384   5.829   3.336  3.5042  4.5254  1.0692
17251TIP3   OH273243   2.759   3.909  14.872 -0.0793  0.0706  0.3233
17251TIP3    H173244   2.790   3.906  14.962 -1.0050 -0.6369  0.6344
17251TIP3    H273245   2.835   3.884  14.819  0.2583 -0.2759  0.9606
17252TIP3   OH273246   6.793   4.837  12.860  0.2049 -0.2447 -0.4699
17252TIP3    H173247   6.888   4.844  12.856  0.3735 -0.0577  2.1174
17252TIP3    H273248   6.776   4.744  12.879 -0.2427 -0.5686 -2.2801
17253TIP3   OH273249   6.357   3.132   3.197  0.4554  0.4487  0.2000
17253TIP3    H173250   6.275   3.107   3.154  1.6283 -1.3176 -1.1849
17253TIP3    H273251   6.367   3.225   3.177 -1.1284  0.6676  0.2862
17254TIP3   OH273252   3.937   0.567   1.412 -0.2150 -0.0581  0.3220
17254TIP3    H173253   3.878   0.531   1.478 -2.8837  0.0980 -1.8076
17254TIP3    H273254   3.889   0.641   1.375  1.9414  0.9610 -0.5937
17255TIP3   OH273255   0.493   1.735   6.120  0.1170  0.1629 -0.2124
17255TIP3    H173256   0.530   1.664   6.173 -0.2974 -0.5503 -0.8395
17255TIP3    H273257   0.404   1.706   6.101  0.2257  0.4344 -1.2076
17256TIP3   OH273258   6.347   4.228   4.969  0.2676 -0.2695  0.5980
17256TIP3    H173259   6.382   4.183   5.046 -0.3418 -1.2953  0.2988
17256TIP3    H273260   6.312   4.157   4.914  0.3230  0.4796 -0.4301
17257TIP3   OH273261   6.385   6.434  16.914  0.0481 -0.2892 -0.1888
17257TIP3    H173262   6.387   6.400  16.824 -0.5540  1.8360 -1.0661
17257TIP3    H273263   6.294   6.423  16.942 -0.2497  0.8555 -0.6287
17258TIP3   OH273264   3.393   5.833   2.479  0.4886 -0.1588  0.2225
17258TIP3    H173265   3.455   5.837   2.407  1.3108  1.4545  0.9724
17258TIP3    H273266   3.354   5.921   2.483  0.0756 -0.3704  1.3959
17259TIP3   OH273267   1.650   3.402  14.523 -0.1167  0.5129  0.0451
17259TIP3    H173268   1.682   3.371  14.607 -2.4331 -1.8054  0.1951
17259TIP3    H273269   1.688   3.342  14.459 -1.7816 -0.4679 -0.0602
17260TIP3   OH273270   0.469   2.849  15.974 -0.0917  0.1172  0.3364
17260TIP3    H173271   0.438   2.927  16.020 -2.6016 -0.0311 -0.9733
17260TIP3    H273272   0.452   2.777  16.035  0.1391  0.3295  0.6570
17261TIP3   OH273273   5.297   4.440   1.201  0.3619 -0.5269  0.2322
17261TIP3    H173274   5.201   4.446   1.194  0.5574  1.1502 -1.9560
17261TIP3    H273275   5.322   4.378   1.132  0.9536  0.6506 -0.6581
17262TIP3   OH273276   3.911   2.873  11.198  0.0013 -0.2967 -0.6204
17262TIP3    H173277   3.962   2.823  11.261 -0.9384 -0.2565  0.1958
17262TIP3    H273278   3.885   2.809  11.132 -0.3100 -0.6692 -0.1394
17263TIP3   OH273279   5.650   1.482   4.729  0.1567  0.2015 -0.3859
17263TIP3    H173280   5.636   1.388   4.714 -0.6812  0.2051  0.3218
17263TIP3    H273281   5.562   1.520   4.728  0.5705  1.2398 -2.2072
17264TIP3   OH273282   4.188   3.751  11.511  0.3443  0.1973  0.1459
17264TIP3    H173283   4.274   3.791  11.505  0.0625  0.8860  0.5398
17264TIP3    H273284   4.127   3.823  11.500 -0.1801 -0.2031  0.3652
17265TIP3   OH273285   2.268   3.894   0.532  0.0926 -0.3042 -0.0115
17265TIP3    H173286   2.330   3.967   0.524 -0.7965  0.7361  1.8796
17265TIP3    H273287   2.187   3.927   0.491 -0.2549 -0.2501  0.6878
17266TIP3   OH273288   6.078   5.530  10.570 -0.0135 -0.5775 -0.2806
17266TIP3    H173289   6.005   5.479  10.606  0.3240  0.3840  1.9376
17266TIP3    H273290   6.037   5.604  10.525 -0.4267 -1.0593 -0.7084
17267TIP3   OH273291   4.137   5.625   4.028  0.2243 -0.5280  0.3996
17267TIP3    H173292   4.169   5.624   4.118  0.4826 -0.0414  0.3142
17267TIP3    H273293   4.113   5.716   4.012  0.5912 -0.5278 -0.1680
17268TIP3   OH273294   0.956   4.673   5.325 -0.3587 -0.3546  0.5341
17268TIP3    H173295   0.885   4.622   5.287 -0.7799  0.0299  0.7928
17268TIP3    H273296   0.940   4.670   5.420 -0.2915  0.1113  0.5633
17269TIP3   OH273297   3.285   1.220  16.919 -0.8169  0.7092 -0.2246
17269TIP3    H173298   3.259   1.228  16.827  0.4557  2.5860 -0.4941
17269TIP3    H273299   3.377   1.194  16.915  0.0195  3.2582  0.3647
17270TIP3   OH273300   5.682   4.619   1.362  0.0868  0.0400 -0.3537
17270TIP3    H173301   5.748   4.663   1.308  1.9204 -0.4051  1.3986
17270TIP3    H273302   5.604   4.675   1.355  1.0787  1.3537 -1.3742
17271TIP3   OH273303   0.084   1.677   0.119 -0.3926 -0.2906  0.6896
17271TIP3    H173304   0.073   1.590   0.156 -0.0703 -1.1645 -1.1291
17271TIP3    H273305   0.005   1.690   0.066  0.2555 -0.1433 -0.2640
17272TIP3   OH273306   1.085   0.541  15.153  0.2655  0.6194  0.5330
17272TIP3    H173307   1.180   0.533  15.163  0.2379  0.4103  0.6181
17272TIP3    H273308   1.060   0.605  15.219  0.1774 -0.2586  1.3715
17273TIP3   OH273309   4.955   3.003   2.155  0.6134  0.2923  0.4525
17273TIP3    H173310   4.998   3.088   2.144 -1.7649  1.4403 -0.8440
17273TIP3    H273311   4.873   3.024   2.200 -0.9988 -0.9554 -1.7222
17274TIP3   OH273312   6.739   6.517  14.467  0.2318 -0.3595 -0.1279
17274TIP3    H173313   6.663   6.473  14.429  1.4716 -0.3987 -2.7434
17274TIP3    H273314   6.799   6.446  14.492 -0.3483 -0.3106  1.5719
17275TIP3   OH273315   2.816   6.825   5.450  0.6946  0.0756  0.3166
17275TIP3    H173316   2.769   6.861   5.526  0.8506  1.7847 -0.3489
17275TIP3    H273317   2.901   6.800   5.484  1.2654  2.1057  0.4868
17276TIP3   OH273318   3.548   2.080   0.754  0.1102 -0.2432  0.3948
17276TIP3    H173319   3.587   2.164   0.781  1.4775 -0.6514 -0.2396
17276TIP3    H273320   3.558   2.023   0.831 -1.4121  0.3137  1.0668
17277TIP3   OH273321   5.382   3.100  11.506  0.3171  0.6355  0.7264
17277TIP3    H173322   5.459   3.065  11.551 -0.7328  0.5645  2.5777
17277TIP3    H273323   5.374   3.190  11.539 -1.1789  0.1828  1.6884
17278TIP3   OH273324   6.126   6.567  14.054 -0.1111  0.0349 -0.2664
17278TIP3    H173325   6.156   6.571  13.964  1.3809 -1.4437  0.1096
17278TIP3    H273326   6.068   6.490  14.057  1.1279 -0.9184  0.3258
17279TIP3   OH273327   5.396   2.850   2.284 -0.2939  0.4716  0.2342
17279TIP3    H173328   5.436   2.937   2.286 -0.6739  0.6316  2.1798
17279TIP3    H273329   5.305   2.865   2.260 -0.4407  0.6582  0.8954
17280TIP3   OH273330   2.253   6.717   3.242  0.1409 -0.3178 -0.3801
17280TIP3    H173331   2.336   6.731   3.195  0.6970 -0.6797  0.4710
17280TIP3    H273332   2.249   6.623   3.256 -0.8349 -0.4023 -1.1386
17281TIP3   OH273333   1.794   4.114  12.437  0.3331  0.5329  0.1117
17281TIP3    H173334   1.835   4.094  12.353  0.2208 -0.3108  0.2497
17281TIP3    H273335   1.792   4.030  12.483 -0.3657  0.8223  0.6235
17282TIP3   OH273336   1.255   5.080   3.205  0.0416  0.8038 -0.2796
17282TIP3    H173337   1.278   5.173   3.205  0.0370  0.8177 -1.2831
17282TIP3    H273338   1.159   5.079   3.206  0.0098  0.8482 -1.6666
17283TIP3   OH273339   5.112   5.720   5.452  0.0701  0.4038 -0.0308
17283TIP3    H173340   5.029   5.697   5.410 -0.5252  1.0209  0.7611
17283TIP3    H273341   5.176   5.719   5.381 -0.5824 -0.2513 -0.6267
17284TIP3   OH273342   4.030   6.064   5.496 -0.2274 -0.3838  0.0733
17284TIP3    H173343   4.098   6.106   5.549 -1.6782 -1.2108  2.7127
17284TIP3    H273344   4.028   6.115   5.415  2.2422  0.7857  0.6625
17285TIP3   OH273345   0.718   1.656  11.240 -0.4507  0.6040  0.0312
17285TIP3    H173346   0.744   1.622  11.325  2.1331  1.9950 -0.0841
17285TIP3    H273347   0.739   1.585  11.179  1.1408  0.8720  0.2136
17286TIP3   OH273348   3.178   5.700  16.930  0.0760  0.4040  0.4543
17286TIP3    H173349   3.224   5.764  16.983 -0.2944  1.8005 -0.8422
17286TIP3    H273350   3.092   5.740  16.913 -0.5834 -0.9190  0.5111
17287TIP3   OH273351   1.257   0.053  12.162 -0.6725  0.1769  0.1410
17287TIP3    H173352   1.287   0.020  12.077  0.8060  1.1245  0.2618
17287TIP3    H273353   1.165   0.078  12.147 -0.4531  0.2753 -1.1630
17288TIP3   OH273354   5.205   5.258   1.685 -0.5466 -0.8516  0.0572
17288TIP3    H173355   5.112   5.258   1.708 -0.2967 -1.0202  1.1408
17288TIP3    H273356   5.209   5.299   1.598 -1.5842 -0.4282  0.1961
17289TIP3   OH273357   2.316   2.356  12.832  0.0591  0.2423  0.1879
17289TIP3    H173358   2.300   2.449  12.818  1.2532  0.2221 -1.8140
17289TIP3    H273359   2.247   2.312  12.782  0.2641  0.0913  0.0300
17290TIP3   OH273360   2.076   1.325   3.769 -0.2360  0.6302  0.1381
17290TIP3    H173361   2.133   1.334   3.693  0.4442  0.6836  0.6386
17290TIP3    H273362   2.009   1.263   3.742  0.9482 -0.6619  0.0316
17291TIP3   OH273363   6.531   6.226  13.207 -0.4721  0.6029  0.0921
17291TIP3    H173364   6.505   6.157  13.147  3.9385 -0.3304 -1.1204
17291TIP3    H273365   6.555   6.300  13.150 -0.1921  1.2210  0.9862
17292TIP3   OH273366   2.094   3.129   0.007  0.1752 -0.0763 -0.3937
17292TIP3    H173367   2.078   3.040   0.041  1.1812  0.5329  1.8566
17292TIP3    H273368   2.011   3.175   0.021  0.9093  0.5288  2.7160
17293TIP3   OH273369   0.863   5.271   5.264  0.3390 -0.0004  0.2144
17293TIP3    H173370   0.930   5.298   5.327  1.7489  0.2969 -1.3332
17293TIP3    H273371   0.781   5.277   5.312  0.9623  3.4687  1.1012
17294TIP3   OH273372   5.797   2.551   4.775 -0.7135  0.0567 -0.0158
17294TIP3    H173373   5.801   2.646   4.782 -0.1787  0.0132  0.3752
17294TIP3    H273374   5.744   2.523   4.850 -0.9557  0.0502 -0.1873
17295TIP3   OH273375   0.246   1.491   2.882 -0.4630 -0.3812 -0.9685
17295TIP3    H173376   0.215   1.557   2.821 -1.2996  0.0580 -0.0882
17295TIP3    H273377   0.244   1.534   2.968 -0.8829 -1.4942 -0.3997
17296TIP3   OH273378   2.760   6.120   0.418 -0.3690 -0.0814  0.2130
17296TIP3    H173379   2.824   6.056   0.448  0.6907  0.3974 -0.9390
17296TIP3    H273380   2.676   6.090   0.455  0.5595 -0.4392  2.1763
17297TIP3   OH273381   3.102   4.530   4.322  0.1226 -0.4223  0.3282
17297TIP3    H173382   3.114   4.519   4.417  1.0975 -0.8843  0.1655
17297TIP3    H273383   3.168   4.473   4.283  0.1130  0.2007 -0.6307
17298TIP3   OH273384   2.258   4.566  10.992 -0.9898 -0.1325  0.8811
17298TIP3    H173385   2.263   4.656  11.025 -0.7941 -0.3818  1.5555
17298TIP3    H273386   2.336   4.523  11.027 -0.3936 -0.2379 -0.5104
17299TIP3   OH273387   4.582   6.246   5.094 -0.1470 -0.0083  0.1829
17299TIP3    H173388   4.598   6.171   5.151 -1.0368  0.2656  0.8243
17299TIP3    H273389   4.668   6.284   5.079  0.3408 -1.2673 -0.3211
17300TIP3   OH273390   3.649   4.107   5.039 -0.1048  0.7188 -0.2717
17300TIP3    H173391   3.717   4.052   5.079 -0.5016  1.3002  1.2607
17300TIP3    H273392   3.635   4.068   4.952  1.1968 -0.2396 -0.0845
17301TIP3   OH273393   2.447   0.927   5.436  0.2412 -0.5526  0.6822
17301TIP3    H173394   2.433   0.868   5.361 -0.2044 -0.7538  0.9198
17301TIP3    H273395   2.482   0.870   5.505 -0.8448 -0.6887  1.1392
17302TIP3   OH273396   1.347   5.049   4.536 -0.2339 -0.0397  0.0578
17302TIP3    H173397   1.399   5.001   4.601 -2.2798 -1.3170  0.8381
17302TIP3    H273398   1.373   5.010   4.452  1.0004  0.2618  0.2744
17303TIP3   OH273399   4.280   2.450   3.442  0.1446 -0.4621  0.5193
17303TIP3    H173400   4.290   2.359   3.470 -1.5814 -0.3270  1.7420
17303TIP3    H273401   4.186   2.466   3.445  0.3439  1.1374 -0.4916
17304TIP3   OH273402   2.746   6.108   4.059 -0.0261 -0.2792 -0.0384
17304TIP3    H173403   2.765   6.035   4.000  1.7537 -0.7624  1.0767
17304TIP3    H273404   2.669   6.079   4.109 -0.8093 -0.3585 -1.2373
17305TIP3   OH273405   4.949   4.446   3.334 -0.1928  0.1483 -0.1212
17305TIP3    H173406   5.039   4.454   3.302  0.0037 -2.4155 -0.4516
17305TIP3    H273407   4.897   4.499   3.273  0.9165  0.4316 -0.8604
17306TIP3   OH273408   3.159   3.520  13.969  0.3485 -0.5587 -0.1567
17306TIP3    H173409   3.158   3.504  14.063 -1.1860 -0.3791 -0.1156
17306TIP3    H273410   3.209   3.447  13.932 -0.6221 -1.6574  0.6379
17307TIP3   OH273411   3.360   1.785   4.767 -0.1585 -0.4043  0.4682
17307TIP3    H173412   3.297   1.714   4.781 -0.3584 -0.1760  0.7283
17307TIP3    H273413   3.429   1.770   4.831  1.6886 -2.4667 -1.7806
17308TIP3   OH273414   1.572   6.171   1.056  0.4680 -0.3403 -0.3044
17308TIP3    H173415   1.515   6.177   1.132 -0.0620  2.9257 -0.7837
17308TIP3    H273416   1.658   6.200   1.088  0.3178  0.7359 -0.8035
17309TIP3   OH273417   5.113   4.849  15.429 -0.3360 -0.3784 -0.5673
17309TIP3    H173418   5.207   4.830  15.433 -0.3614 -0.2812  1.5926
17309TIP3    H273419   5.084   4.847  15.520 -1.2538  5.5521 -0.3085
17310TIP3   OH273420   5.660   1.392   1.995 -0.0101 -0.2380 -0.0294
17310TIP3    H173421   5.682   1.436   2.078  0.3724 -0.2027 -0.1469
17310TIP3    H273422   5.741   1.348   1.970  0.7549  2.0229 -1.8188
17311TIP3   OH273423   4.237   4.171  12.625 -0.0902  0.7487 -0.0608
17311TIP3    H173424   4.186   4.149  12.702  1.1676 -1.5437  0.1910
17311TIP3    H273425   4.190   4.131  12.552  0.0172  0.8061 -0.1623
17312TIP3   OH273426   3.934   1.703  16.652 -0.3494  0.5579  1.4441
17312TIP3    H173427   3.854   1.744  16.685  0.0175  1.2460  1.4997
17312TIP3    H273428   3.910   1.670  16.565 -0.3541  1.8990  0.9164
17313TIP3   OH273429   2.592   5.664  14.884  0.2835  0.0970  0.1632
17313TIP3    H173430   2.502   5.683  14.909  0.1470  1.8607 -1.4450
17313TIP3    H273431   2.645   5.702  14.954 -0.1623  2.3850 -0.6657
17314TIP3   OH273432   6.362   1.096   4.014  0.1001  0.5108 -0.3253
17314TIP3    H173433   6.312   1.143   4.081  0.4733  0.8368 -0.2757
17314TIP3    H273434   6.446   1.076   4.055  0.3490  0.7556 -0.7110
17315TIP3   OH273435   2.622   6.406  16.583 -0.1977  0.0181  0.1035
17315TIP3    H173436   2.628   6.350  16.660  0.5417 -0.8903 -0.5833
17315TIP3    H273437   2.648   6.493  16.614  0.5897 -0.4458  0.7721
17316TIP3   OH273438   6.411   4.931  16.248 -0.4475  0.2393 -0.0548
17316TIP3    H173439   6.391   5.013  16.293  1.0851  0.6263 -0.0023
17316TIP3    H273440   6.483   4.953  16.189  0.3823 -1.1828  0.3724
17317TIP3   OH273441   5.547   4.967  15.475 -0.1119 -0.7031 -0.3363
17317TIP3    H173442   5.575   4.885  15.517 -0.1909 -1.3163 -1.4420
17317TIP3    H273443   5.543   4.946  15.382  0.9160  0.8590 -0.7804
17318TIP3   OH273444   2.322   2.583  15.373  0.3607 -0.5631  0.2115
17318TIP3    H173445   2.278   2.604  15.290 -0.0482  0.2444  0.6164
17318TIP3    H273446   2.267   2.624  15.440  1.8752  0.7361  0.7152
17319TIP3   OH273447   3.024   0.828  11.518 -0.3119 -0.6920 -0.6819
17319TIP3    H173448   3.003   0.741  11.551 -1.7779  0.1560  0.7533
17319TIP3    H273449   3.011   0.821  11.423 -0.8056 -1.9253 -0.5414
17320TIP3   OH273450   1.399   6.539   3.037  0.8532 -0.4856 -0.1637
17320TIP3    H173451   1.406   6.578   3.124  0.2845  0.1856 -0.4020
17320TIP3    H273452   1.310   6.561   3.008 -0.3596 -3.8791  0.5685
17321TIP3   OH273453   0.883   5.106  12.507 -0.3843 -0.2740 -0.5604
17321TIP3    H173454   0.894   5.023  12.461  0.9341 -0.8763  0.7456
17321TIP3    H273455   0.892   5.083  12.600  0.3266  1.3544 -0.1832
17322TIP3   OH273456   0.094   6.849  12.039  0.2631  0.4562  0.4733
17322TIP3    H173457   0.132   6.761  12.045  1.5425  1.0190  1.0651
17322TIP3    H273458   0.164   6.903  12.001 -0.1308  1.4219  1.0728
17323TIP3   OH273459   3.385   0.781   5.860  0.6560 -0.0457 -0.5688
17323TIP3    H173460   3.430   0.739   5.934  1.7494  1.9455 -0.0124
17323TIP3    H273461   3.360   0.867   5.894 -0.6272  0.1532 -1.9353
17324TIP3   OH273462   4.199   6.592  11.226 -1.2437 -0.1936 -0.1322
17324TIP3    H173463   4.185   6.653  11.154 -1.1026  0.2640  0.2235
17324TIP3    H273464   4.157   6.633  11.301  3.1235  2.0741  1.4405
17325TIP3   OH273465   0.538   6.687   6.014  0.0371  0.4015 -0.0962
17325TIP3    H173466   0.559   6.732   6.096  0.3098 -0.0677  0.0967
17325TIP3    H273467   0.623   6.665   5.976 -0.0675  1.6203 -1.0839
17326TIP3   OH273468   0.401   6.095  10.381 -0.3433 -0.2706  0.0899
17326TIP3    H173469   0.426   6.168  10.438  1.5541 -1.1566  0.5019
17326TIP3    H273470   0.400   6.132  10.293 -1.8065  0.7725  0.5142
17327TIP3   OH273471   0.540   2.307   2.817 -0.1493 -0.2848 -0.2249
17327TIP3    H173472   0.553   2.372   2.748 -0.2502 -1.2294 -1.1491
17327TIP3    H273473   0.597   2.337   2.888  2.4695 -0.9699 -1.8845
17328TIP3   OH273474   0.012   0.525  13.207 -0.4933 -0.5287  0.2444
17328TIP3    H173475   0.045   0.557  13.123  0.5467 -1.8210  0.1402
17328TIP3    H273476  -0.041   0.598  13.241 -0.9853 -0.0197 -1.5428
17329TIP3   OH273477   5.435   0.434   3.185 -0.1948 -0.5448 -0.0299
17329TIP3    H173478   5.455   0.527   3.195  0.7864 -0.7018 -0.4899
17329TIP3    H273479   5.344   0.432   3.155 -0.9421  0.1753  2.0385
17330TIP3   OH273480   1.373   0.178   2.452 -0.3009  1.0799  0.0983
17330TIP3    H173481   1.357   0.106   2.392  3.0182  1.5021 -1.5019
17330TIP3    H273482   1.343   0.146   2.537 -2.0879 -0.8115 -1.1550
17331TIP3   OH273483   4.473   5.205   3.258  0.1408  0.2108 -0.1788
17331TIP3    H173484   4.500   5.131   3.312  0.0735  0.6359  0.4589
17331TIP3    H273485   4.551   5.260   3.250  0.0444  0.3512 -0.1718
17332TIP3   OH273486   4.708   1.339  12.982  0.0775  0.1983 -0.1579
17332TIP3    H173487   4.644   1.277  13.017  0.4200  0.9078  1.8944
17332TIP3    H273488   4.706   1.326  12.888 -2.8558 -0.0170 -0.1458
17333TIP3   OH273489   4.764   4.712  14.214  0.0097 -0.3523  0.4143
17333TIP3    H173490   4.785   4.709  14.307  0.3761 -0.7522  0.3195
17333TIP3    H273491   4.697   4.645  14.201 -0.8103  0.4022  0.5720
17334TIP3   OH273492   6.507   4.693   4.784 -0.6337 -0.0014  0.2579
17334TIP3    H173493   6.524   4.617   4.728 -0.9694 -0.7166  1.0967
17334TIP3    H273494   6.583   4.749   4.774  0.3554 -1.2023  0.8234
17335TIP3   OH273495   0.013   3.669   5.311 -0.9430  0.3496  0.9477
17335TIP3    H173496  -0.051   3.636   5.247 -1.7255  2.2926  0.6390
17335TIP3    H273497  -0.023   3.753   5.339  0.9235  0.9720  1.6424
17336TIP3   OH273498   0.174   1.886   3.086  0.0676 -0.0389  0.0251
17336TIP3    H173499   0.203   1.891   2.995 -1.3783 -1.2750 -0.5413
17336TIP3    H273500   0.216   1.961   3.129  1.9800 -0.3007 -1.2839
17337TIP3   OH273501   0.435   3.087   0.789  0.0969  1.0554  0.3138
17337TIP3    H173502   0.405   3.158   0.845 -0.4639 -0.6414  2.2751
17337TIP3    H273503   0.522   3.115   0.759 -0.6925  3.1771 -0.2139
17338TIP3   OH273504   5.200   4.044   0.876 -0.5706  0.4035  0.6907
17338TIP3    H173505   5.280   4.095   0.887  0.8749 -1.3512 -0.9671
17338TIP3    H273506   5.179   4.012   0.964 -0.3866  2.1431  1.4104
17339TIP3   OH273507   0.653   1.644  10.685  0.2141  0.1589 -0.8981
17339TIP3    H173508   0.657   1.737  10.661  0.4602  1.2589  2.7430
17339TIP3    H273509   0.743   1.613  10.679  0.1235  0.0967 -2.1745
17340TIP3   OH273510   1.278   4.863  10.297 -0.0101  0.3517 -0.0967
17340TIP3    H173511   1.315   4.942  10.257 -1.0141  0.5373 -0.6876
17340TIP3    H273512   1.355   4.809  10.319  0.6648  1.3559  0.0425
17341TIP3   OH273513   0.703   5.591  14.848  0.0409 -0.2529  0.0141
17341TIP3    H173514   0.645   5.608  14.923 -0.6319 -0.2109 -0.5105
17341TIP3    H273515   0.777   5.650  14.862 -0.8540  0.9530 -0.2125
17342TIP3   OH273516   3.231   0.263   1.068  0.1956  0.4048 -0.2713
17342TIP3    H173517   3.280   0.326   1.015 -0.2581  2.4259  1.5601
17342TIP3    H273518   3.173   0.318   1.122 -0.9776 -1.6674  0.6825
17343TIP3   OH273519   1.671   1.747   1.196  0.1547  0.1805 -0.5496
17343TIP3    H173520   1.595   1.689   1.209 -0.3597  0.9428 -0.1100
17343TIP3    H273521   1.644   1.806   1.126  0.5749  0.0694 -0.8060
17344TIP3   OH273522   3.920   0.410   4.105 -0.4538  0.3244 -0.1850
17344TIP3    H173523   3.922   0.407   4.009 -1.2150  0.4371 -0.2113
17344TIP3    H273524   4.005   0.374   4.132 -0.2816  0.1810 -0.8991
17345TIP3   OH273525   2.572   6.834  10.966 -0.6334 -0.3476  0.0928
17345TIP3    H173526   2.598   6.775  10.895 -0.2430 -0.8803  0.6672
17345TIP3    H273527   2.631   6.812  11.038  0.9167  2.1257 -0.2982
17346TIP3   OH273528   2.872   1.233   4.975  0.3940 -0.4529 -0.1636
17346TIP3    H173529   2.890   1.142   4.997 -2.4861 -1.1112 -0.1652
17346TIP3    H273530   2.778   1.245   4.994  0.2134  1.9428 -2.0276
17347TIP3   OH273531   5.601   3.689   4.199  0.0138  0.0961  0.7771
17347TIP3    H173532   5.632   3.705   4.288 -1.6594  0.2136  1.3724
17347TIP3    H273533   5.539   3.760   4.183  0.7157  0.4156 -0.7233
17348TIP3   OH273534   1.199   4.136  16.847  0.7161  0.3012  0.5550
17348TIP3    H173535   1.264   4.122  16.777 -0.2478 -0.2040 -0.2643
17348TIP3    H273536   1.230   4.082  16.919 -0.0880 -1.9872 -0.7068
17349TIP3   OH273537   3.901   5.561   0.618  0.3071  0.2599  0.2993
17349TIP3    H173538   3.913   5.498   0.689 -0.9400 -1.2154 -0.7159
17349TIP3    H273539   3.843   5.627   0.654  1.0549  0.4575  1.1659
17350TIP3   OH273540   6.836   0.053   6.139  0.1810  0.4171 -0.0130
17350TIP3    H173541   6.765  -0.007   6.163 -0.2369  0.6200 -0.7159
17350TIP3    H273542   6.806   0.094   6.058 -0.0439  2.3567  0.9736
17351TIP3   OH273543   2.057   0.370   1.926 -0.2211 -0.2153 -0.1281
17351TIP3    H173544   2.026   0.316   1.998 -0.5795 -0.5299 -0.5140
17351TIP3    H273545   2.022   0.328   1.848 -0.1106  0.3107 -0.4652
17352TIP3   OH273546   6.845   2.701  16.096 -0.0704  0.2795 -0.3776
17352TIP3    H173547   6.773   2.691  16.158  1.3971  0.2027  1.4244
17352TIP3    H273548   6.907   2.759  16.141  1.0950  0.1374 -1.7408
17353TIP3   OH273549   4.263   6.117  16.885  0.5231  0.6427  0.2754
17353TIP3    H173550   4.333   6.123  16.950  1.3592  1.0835 -0.6567
17353TIP3    H273551   4.183   6.111  16.938  1.3823 -3.5628  1.4898
17354TIP3   OH273552   1.242   3.392   1.997 -0.1604  0.6552  0.1989
17354TIP3    H173553   1.275   3.465   2.049  0.7011  0.1319  0.4122
17354TIP3    H273554   1.170   3.356   2.048  0.5783  0.2396  0.9609
17355TIP3   OH273555   0.962   0.692   5.123 -0.3178  0.1827  0.4808
17355TIP3    H173556   0.886   0.749   5.113 -0.3794 -0.0296 -0.3497
17355TIP3    H273557   0.973   0.651   5.037 -0.1515 -0.8982  0.9962
17356TIP3   OH273558   2.466   6.029   1.106 -0.0397 -0.3709  0.1326
17356TIP3    H173559   2.399   6.098   1.107  1.9866  1.6842  0.8061
17356TIP3    H273560   2.495   6.026   1.015  0.0623 -0.1695  0.1598
17357TIP3   OH273561   6.119   0.298   0.682 -0.0209  0.3709 -0.6119
17357TIP3    H173562   6.048   0.263   0.629  0.0915 -2.7184  1.0548
17357TIP3    H273563   6.187   0.231   0.678  1.3823  1.6377  0.6551
17358TIP3   OH273564   4.472   2.650  16.176  0.2994  0.1613  0.3666
17358TIP3    H173565   4.561   2.643  16.140  0.0625 -2.2590  0.0771
17358TIP3    H273566   4.421   2.587  16.125 -1.3491  0.7487  1.2275
17359TIP3   OH273567   4.506   0.307  13.408 -0.3605 -0.2988  0.3564
17359TIP3    H173568   4.436   0.266  13.457 -0.2558  0.1589  0.9031
17359TIP3    H273569   4.481   0.400  13.403  0.9443  0.1766  1.9134
17360TIP3   OH273570   5.113   6.454  12.530  0.0921 -0.8502  0.1938
17360TIP3    H173571   5.106   6.362  12.555  0.8679 -1.0078 -0.1408
17360TIP3    H273572   5.046   6.498  12.582  0.4211 -1.4458  1.1477
17361TIP3   OH273573   2.146   4.492   3.033  0.4863 -0.1634  0.1642
17361TIP3    H173574   2.082   4.535   3.090 -0.4790  0.0896 -1.0679
17361TIP3    H273575   2.093   4.439   2.973  1.5044 -0.8583 -0.1419
17362TIP3   OH273576   0.703   2.482  12.481 -0.0232 -1.0422 -0.1708
17362TIP3    H173577   0.679   2.499  12.572 -0.1980 -2.3557  0.0378
17362TIP3    H273578   0.798   2.479  12.482  0.0807  0.9380 -0.4173
17363TIP3   OH273579   5.142   4.009   2.564 -0.0236 -0.4529 -0.4534
17363TIP3    H173580   5.133   4.103   2.579 -1.7718 -0.4684 -1.1256
17363TIP3    H273581   5.054   3.975   2.576  0.2805 -1.7677 -1.7288
17364TIP3   OH273582   3.851   2.552  16.018  0.4056 -0.1759  0.6774
17364TIP3    H173583   3.757   2.572  16.024  0.1966 -1.1795  0.9883
17364TIP3    H273584   3.889   2.630  15.979 -1.0127 -0.8236 -2.3177
17365TIP3   OH273585   1.556   2.708  17.000 -0.2945 -0.4074  0.0626
17365TIP3    H173586   1.590   2.724  17.088 -0.7423  1.2212 -0.0428
17365TIP3    H273587   1.461   2.719  17.008 -0.4959 -1.6433 -0.3500
17366TIP3   OH273588   4.347   3.498   5.651 -0.3315  0.1520  0.4775
17366TIP3    H173589   4.313   3.493   5.562  0.9020  0.5841 -0.0417
17366TIP3    H273590   4.428   3.447   5.648 -0.5696 -0.3015  1.5003
17367TIP3   OH273591   0.779   0.158   2.340 -0.4489 -0.3064 -0.1661
17367TIP3    H173592   0.810   0.245   2.365  1.0063 -1.0540  0.7784
17367TIP3    H273593   0.703   0.142   2.396 -0.7581  0.3750 -0.3858
17368TIP3   OH273594   2.145   4.564   0.717  0.3158 -1.0939  0.0478
17368TIP3    H173595   2.182   4.563   0.629  1.0564  1.0119  0.2785
17368TIP3    H273596   2.082   4.635   0.716  0.6096 -0.7871  1.3109
17369TIP3   OH273597   2.399   5.598  17.026 -0.2404 -0.0583 -0.1081
17369TIP3    H173598   2.446   5.620  17.106  3.1550 -0.4179 -1.8494
17369TIP3    H273599   2.409   5.503  17.018  0.8844  0.1614 -1.7139
17370TIP3   OH273600   3.669   6.230   5.269 -0.5120 -0.6485 -0.1446
17370TIP3    H173601   3.621   6.157   5.310 -1.4573 -0.0298 -0.1237
17370TIP3    H273602   3.636   6.232   5.179 -0.2318 -0.4612 -0.2419
17371TIP3   OH273603   6.605   0.760  12.312 -0.0647 -0.8498  0.3066
17371TIP3    H173604   6.674   0.819  12.283 -2.3148  1.8833  0.0439
17371TIP3    H273605   6.578   0.795  12.397 -1.8543 -1.1092 -0.1127
17372TIP3   OH273606   2.500   5.362   0.319 -0.0678  0.6464  0.1391
17372TIP3    H173607   2.512   5.423   0.391 -0.5738  0.7086  0.1776
17372TIP3    H273608   2.411   5.329   0.330  0.4124 -0.5835  0.4885
17373TIP3   OH273609   1.511   2.953  13.504 -1.2674 -0.0475 -0.0725
17373TIP3    H173610   1.472   2.993  13.426 -1.2462  0.0177 -0.0493
17373TIP3    H273611   1.605   2.950  13.484 -1.3981 -1.2177 -0.5955
17374TIP3   OH273612   6.724   4.282   1.155  0.0969 -0.3743  0.1523
17374TIP3    H173613   6.757   4.336   1.084 -0.6659 -0.8867 -0.6098
17374TIP3    H273614   6.801   4.233   1.185  0.6286  0.5517  0.3467
17375TIP3   OH273615   2.827   1.467   0.355  0.3901  0.0314 -0.4356
17375TIP3    H173616   2.803   1.557   0.378 -1.4408 -0.2719 -0.9639
17375TIP3    H273617   2.830   1.421   0.439  0.8701  0.4736 -0.2065
17376TIP3   OH273618   5.189   1.849   0.194  0.2493  0.5566  0.2372
17376TIP3    H173619   5.263   1.859   0.133  0.5533  0.3773  0.5732
17376TIP3    H273620   5.114   1.830   0.138  0.3833  1.1075 -0.1362
17377TIP3   OH273621   4.086   2.157  11.366  0.0231  0.6655 -0.0314
17377TIP3    H173622   4.106   2.065  11.355  0.3326  0.9069 -1.8017
17377TIP3    H273623   4.162   2.194  11.411 -0.1405  0.0634  0.7559
17378TIP3   OH273624   4.075   4.626   5.370 -0.7518 -0.2668 -0.0828
17378TIP3    H173625   4.086   4.719   5.387 -1.1340 -0.4123  1.0305
17378TIP3    H273626   4.082   4.585   5.456  3.1321 -1.6890 -0.8530
17379TIP3   OH273627   4.669   5.065   3.968  0.0389  0.3028 -0.1446
17379TIP3    H173628   4.614   5.070   3.890  0.3195  0.3895 -0.3345
17379TIP3    H273629   4.739   5.004   3.945 -0.8966 -1.1396  0.6566
17380TIP3   OH273630   1.764   6.233  16.380 -0.6197  0.2876  0.0977
17380TIP3    H173631   1.707   6.306  16.405 -1.8729 -1.0779  1.3915
17380TIP3    H273632   1.705   6.166  16.347  0.6135  0.1986 -2.1436
17381TIP3   OH273633   5.616   4.512  12.047  0.5334 -0.3291  0.0797
17381TIP3    H173634   5.634   4.449  12.117 -2.2729 -0.2114  1.0173
17381TIP3    H273635   5.618   4.597  12.090  0.0970 -0.1460 -0.2564
17382TIP3   OH273636   4.224   3.777   5.492 -0.1255  0.2628 -0.2263
17382TIP3    H173637   4.182   3.691   5.478  1.2185 -0.2590 -1.2330
17382TIP3    H273638   4.312   3.767   5.456  1.3494  0.9386  2.8626
17383TIP3   OH273639   6.583   5.908  16.204  0.3429 -0.6091  0.0612
17383TIP3    H173640   6.553   5.834  16.257  1.1587  0.0888  1.5451
17383TIP3    H273641   6.575   5.877  16.114 -2.9061 -1.1800  0.4153
17384TIP3   OH273642   2.289   1.290   3.935  0.1680  0.1094 -0.1099
17384TIP3    H173643   2.202   1.294   3.894 -0.6124 -1.8570  1.1773
17384TIP3    H273644   2.349   1.274   3.862 -1.0226 -1.9851 -0.7378
17385TIP3   OH273645   6.804   5.260   4.507 -0.3167 -0.2460 -0.4479
17385TIP3    H173646   6.731   5.272   4.446 -0.0374  0.5840 -0.6394
17385TIP3    H273647   6.779   5.310   4.585  0.4968  0.9600 -0.9248
17386TIP3   OH273648   3.411   6.635  16.862 -0.2586 -0.1472 -0.7670
17386TIP3    H173649   3.395   6.729  16.856 -2.4128 -0.4028  0.0021
17386TIP3    H273650   3.488   6.620  16.807  2.1962  2.5129  1.5939
17387TIP3   OH273651   1.598   4.804   3.358  0.6621 -0.2523  0.5380
17387TIP3    H173652   1.633   4.778   3.443 -0.4115 -0.5679  0.9022
17387TIP3    H273653   1.525   4.862   3.379 -1.3405 -2.4074 -0.0153
17388TIP3   OH273654   4.847   4.981   1.549 -0.0520 -0.0973  0.2511
17388TIP3    H173655   4.872   5.054   1.493  0.5982 -1.7642 -1.7432
17388TIP3    H273656   4.906   4.910   1.524 -1.2858 -1.6079  1.4405
17389TIP3   OH273657   3.190   0.932  13.167  0.0017 -0.0861  0.8854
17389TIP3    H173658   3.108   0.903  13.127  0.8679 -0.8651 -0.3909
17389TIP3    H273659   3.219   1.004  13.112  0.4662 -0.2047  0.9718
17390TIP3   OH273660   6.620   2.985  14.677 -0.3483  0.0155 -0.4555
17390TIP3    H173661   6.621   2.927  14.753  0.1069 -1.0174 -1.2139
17390TIP3    H273662   6.531   3.020  14.673 -0.1351  0.8020  1.0533
17391TIP3   OH273663   6.171   4.307   1.902  1.2706  0.1765 -0.1920
17391TIP3    H173664   6.261   4.275   1.898  1.6302  1.1004  0.3905
17391TIP3    H273665   6.174   4.393   1.861  0.8664  0.6421  0.7124
17392TIP3   OH273666   1.520   4.807   5.263  0.9647 -0.0712  0.1250
17392TIP3    H173667   1.467   4.728   5.266 -0.7051  0.9515 -0.5552
17392TIP3    H273668   1.503   4.851   5.346  2.1432 -0.5563  0.6403
17393TIP3   OH273669   3.931   5.712   2.121 -0.2842 -0.0896  0.4408
17393TIP3    H173670   3.874   5.749   2.054  1.1865  1.2185 -0.1547
17393TIP3    H273671   4.011   5.689   2.074  0.5264  0.2163  1.6319
17394TIP3   OH273672   1.456   0.272  14.766  0.9576 -0.4583 -0.0664
17394TIP3    H173673   1.454   0.366  14.749 -2.2730 -0.1400  1.2933
17394TIP3    H273674   1.386   0.236  14.712 -0.6374 -1.3671  2.4194
17395TIP3   OH273675   5.989   5.026  14.279  0.1756  0.6774 -0.2426
17395TIP3    H173676   6.009   4.935  14.254  1.4244  0.9848 -0.4695
17395TIP3    H273677   5.929   5.018  14.353  0.8866 -0.3555  0.2542
17396TIP3   OH273678   1.144   5.809   4.357 -0.3767  0.6953  0.2056
17396TIP3    H173679   1.186   5.833   4.275  1.0474  0.9822  0.9845
17396TIP3    H273680   1.079   5.877   4.372 -2.2070 -0.5315 -1.7423
17397TIP3   OH273681   2.087   1.914   2.106 -0.0013 -0.4359 -0.0266
17397TIP3    H173682   2.078   1.975   2.179  2.8329 -1.1901  1.0762
17397TIP3    H273683   2.059   1.964   2.029 -1.2585  1.0041  1.3012
17398TIP3   OH273684   3.303   5.615   6.761 -0.0191 -0.4682 -0.5627
17398TIP3    H173685   3.374   5.639   6.701 -0.9706  2.3396 -0.7130
17398TIP3    H273686   3.224   5.653   6.721 -1.3783 -2.1385  0.4062
17399TIP3   OH273687   5.498   0.140  14.817  0.3848 -0.2025 -0.2147
17399TIP3    H173688   5.460   0.226  14.836 -0.8781 -0.4476 -1.4451
17399TIP3    H273689   5.545   0.154  14.734 -1.7330 -1.1827 -1.6458
17400TIP3   OH273690   2.329   0.364   6.484  0.7026 -0.1442 -0.0714
17400TIP3    H173691   2.390   0.311   6.432  0.2647 -1.3102  0.5778
17400TIP3    H273692   2.271   0.300   6.527 -0.5178  0.8961 -0.0928
17401TIP3   OH273693   3.331   3.212   5.562 -0.3614  0.9571  0.6417
17401TIP3    H173694   3.305   3.194   5.653  0.8386 -1.5157  0.6002
17401TIP3    H273695   3.257   3.183   5.510  0.1007 -0.5997  0.7705
17402TIP3   OH273696   3.070   3.778   4.937  0.2234 -0.4869  0.0203
17402TIP3    H173697   2.991   3.748   4.983  1.3933 -4.8420 -0.2994
17402TIP3    H273698   3.103   3.850   4.991 -2.5514 -0.2169  1.5805
17403TIP3   OH273699   5.549   5.853   0.099 -0.1174 -0.3331  0.4234
17403TIP3    H173700   5.635   5.889   0.079 -0.4553  0.4093  0.2778
17403TIP3    H273701   5.565   5.792   0.171  0.2280  1.4264  1.9190
17404TIP3   OH273702   3.164   1.231  13.960 -0.1372  0.5669  0.1692
17404TIP3    H173703   3.189   1.171  13.890  0.8328  1.1262  0.0146
17404TIP3    H273704   3.117   1.302  13.916 -0.8233  0.1876  0.2832
17405TIP3   OH273705   1.629   3.483  15.307 -0.3443 -0.3283 -0.3188
17405TIP3    H173706   1.682   3.443  15.376 -1.7564 -0.8257  0.5165
17405TIP3    H273707   1.634   3.421  15.234  1.6645  0.4978 -0.9502
17406TIP3   OH273708   1.261   1.488   0.872  0.2135 -0.1964 -0.0620
17406TIP3    H173709   1.178   1.441   0.863  1.1452 -2.0560  0.6400
17406TIP3    H273710   1.243   1.575   0.835 -2.7128  0.3076  2.1151
17407TIP3   OH273711   5.145   1.785   5.500  0.1557 -0.2423  0.6128
17407TIP3    H173712   5.146   1.720   5.429 -1.8545  0.3162  0.0005
17407TIP3    H273713   5.184   1.863   5.462 -2.0905  0.4717 -0.3961
17408TIP3   OH273714   5.442   1.477  16.826 -0.8826  0.0043  0.1306
17408TIP3    H173715   5.535   1.456  16.841 -0.3693  0.7496 -1.7030
17408TIP3    H273716   5.399   1.392  16.828  0.0797 -0.5221 -0.3495
17409TIP3   OH273717   1.356   5.731   1.211 -0.0688 -0.1927  0.2087
17409TIP3    H173718   1.431   5.786   1.233 -0.4902  0.4135  0.1500
17409TIP3    H273719   1.350   5.669   1.284 -0.1405  0.4259  0.7384
17410TIP3   OH273720   0.110   3.842   1.894 -0.2721 -0.0414 -0.1273
17410TIP3    H173721   0.183   3.867   1.952 -0.9300 -1.5039  1.4042
17410TIP3    H273722   0.102   3.747   1.905 -2.0800  0.0190 -0.6733
17411TIP3   OH273723   2.280   6.662  11.806 -0.1046  0.3206  0.4656
17411TIP3    H173724   2.233   6.591  11.851 -0.3513 -0.1965 -0.5743
17411TIP3    H273725   2.211   6.716  11.769  0.0883  1.0834  1.1840
17412TIP3   OH273726   6.199   6.055  11.177  0.3330  0.2351  0.0915
17412TIP3    H173727   6.124   6.000  11.154 -0.5812  1.3002  0.4406
17412TIP3    H273728   6.201   6.121  11.108  2.5320 -1.1977 -1.3684
17413TIP3   OH273729   5.716   0.803  15.616 -0.0155  0.0939 -0.0772
17413TIP3    H173730   5.651   0.758  15.562  1.0032  1.2531 -2.4189
17413TIP3    H273731   5.797   0.753  15.604  0.4356  0.8675 -0.3886
17414TIP3   OH273732   1.202   5.624  14.984  0.0284  0.8294  0.1119
17414TIP3    H173733   1.127   5.650  14.930  1.2651  4.2777 -0.2030
17414TIP3    H273734   1.163   5.598  15.068 -1.5830  1.5585 -0.3773
17415TIP3   OH273735   2.285   5.508   5.637 -0.0248 -0.0942  0.2668
17415TIP3    H173736   2.330   5.454   5.572  0.8993  0.6775  0.2561
17415TIP3    H273737   2.257   5.586   5.590 -1.4727 -0.5755  0.2567
17416TIP3   OH273738   3.572   4.483   1.366 -0.2129  0.5063  0.8610
17416TIP3    H173739   3.533   4.496   1.279  0.1334 -2.0453  0.2479
17416TIP3    H273740   3.629   4.407   1.356  0.1671  0.3940  3.2483
17417TIP3   OH273741   3.693   6.692   2.338  0.1886 -0.3739  0.1234
17417TIP3    H173742   3.781   6.660   2.318 -0.3938 -1.6901 -0.4122
17417TIP3    H273743   3.677   6.759   2.271  0.4572 -0.7433 -0.3212
17418TIP3   OH273744   5.605   6.182  15.274 -0.0737  0.5741 -0.2403
17418TIP3    H173745   5.582   6.271  15.302  0.4779  0.4512  0.6314
17418TIP3    H273746   5.573   6.126  15.344 -0.7435  0.0339 -0.9563
17419TIP3   OH273747   5.477   6.296  12.756 -0.1446  0.2187 -0.5116
17419TIP3    H173748   5.511   6.242  12.827  0.4585  0.2044 -0.8092
17419TIP3    H273749   5.432   6.369  12.800 -0.7040 -0.3579 -0.1138
17420TIP3   OH273750   6.704   3.342  16.073  0.0315  0.2077  0.1122
17420TIP3    H173751   6.709   3.336  16.169  0.5594  2.4596  0.2872
17420TIP3    H273752   6.628   3.397  16.056 -0.3094 -0.5195 -0.8070
17421TIP3   OH273753   2.353   3.609   5.184 -0.0919  0.3869  0.0318
17421TIP3    H173754   2.298   3.672   5.137  1.4418  2.1389  0.5009
17421TIP3    H273755   2.439   3.649   5.187  1.9184 -3.1568 -2.5453
17422TIP3   OH273756   4.721   5.947  14.768 -0.1280 -0.2618 -0.2961
17422TIP3    H173757   4.752   5.932  14.679  1.7282  1.5703 -0.0412
17422TIP3    H273758   4.798   5.934  14.823 -0.6811  0.7893  0.7821
17423TIP3   OH273759   3.669   3.665   2.725 -0.0571 -0.9366  0.0262
17423TIP3    H173760   3.598   3.602   2.713 -1.4869  0.5418  0.3532
17423TIP3    H273761   3.628   3.751   2.710  1.2169  0.0869  1.9136
17424TIP3   OH273762   0.749   6.839  12.862 -0.4109 -0.2989  0.5701
17424TIP3    H173763   0.825   6.885  12.827 -0.5322  0.9741  1.8905
17424TIP3    H273764   0.773   6.746  12.856 -0.0688 -0.1137 -1.9155
17425TIP3   OH273765   6.377   3.978  14.777  0.1262  0.7737 -0.8209
17425TIP3    H173766   6.338   3.894  14.801  0.8028  0.5185 -0.5711
17425TIP3    H273767   6.358   3.988  14.683  0.8398 -0.1205 -1.0790
17426TIP3   OH273768   2.369   6.792   1.491  0.5243  0.0051  0.2286
17426TIP3    H173769   2.430   6.747   1.549  1.3623  0.5594 -0.2038
17426TIP3    H273770   2.404   6.777   1.403 -0.0769  0.1587 -0.0429
17427TIP3   OH273771   0.649   3.114  14.365 -0.7901  0.0516 -0.8728
17427TIP3    H173772   0.687   3.201  14.351  0.7225 -0.5470 -0.6819
17427TIP3    H273773   0.604   3.120  14.449  1.0314  0.1371  0.1577
17428TIP3   OH273774   1.286   6.038   0.212 -0.3721 -0.4165 -0.1253
17428TIP3    H173775   1.262   5.996   0.130  0.6121  0.2814 -0.7987
17428TIP3    H273776   1.382   6.040   0.211 -0.1956 -2.7011  2.2288
17429TIP3   OH273777   0.230   5.768  11.070  0.1680 -0.1222 -0.3284
17429TIP3    H173778   0.261   5.845  11.021 -0.2768  0.1879 -0.1307
17429TIP3    H273779   0.189   5.713  11.003 -2.6661  1.4140 -0.0440
17430TIP3   OH273780   6.600   2.847  16.631 -0.4475 -0.0907  0.7627
17430TIP3    H173781   6.593   2.830  16.538  0.2883  1.0719  0.4763
17430TIP3    H273782   6.652   2.774  16.665 -0.4957 -0.3799  0.2237
17431TIP3   OH273783   3.672   5.870  14.363 -0.0610 -0.9455  0.2123
17431TIP3    H173784   3.594   5.824  14.394 -2.1485  2.8172  1.3260
17431TIP3    H273785   3.652   5.892  14.272  0.2723 -1.1029  0.1031
17432TIP3   OH273786   4.380   6.263   1.211 -0.4002  0.0117  0.4656
17432TIP3    H173787   4.410   6.316   1.285 -0.8736  0.2046  0.5189
17432TIP3    H273788   4.351   6.326   1.146 -0.0867 -0.1632  0.1518
17433TIP3   OH273789   5.848   1.149   2.178  0.5209  0.2494 -0.1077
17433TIP3    H173790   5.771   1.104   2.143  2.0287 -2.0709 -0.6872
17433TIP3    H273791   5.890   1.186   2.100  1.9496 -1.8062 -0.4055
17434TIP3   OH273792   5.391   6.306   1.273 -0.2222 -0.2124  0.4916
17434TIP3    H173793   5.444   6.251   1.216 -1.7324 -3.5084  1.9731
17434TIP3    H273794   5.402   6.394   1.240  0.1262 -1.6962 -3.9487
17435TIP3   OH273795   1.124   6.032  14.529  0.2413 -0.5687  0.5171
17435TIP3    H173796   1.061   6.104  14.539 -0.4107 -1.1364  0.5642
17435TIP3    H273797   1.091   5.963  14.587  0.4979 -1.1499 -0.0186
17436TIP3   OH273798   1.784   5.274   2.498  0.0471  0.7957  0.3462
17436TIP3    H173799   1.776   5.361   2.458 -0.0331  0.5500 -0.1704
17436TIP3    H273800   1.697   5.236   2.490  0.0501  0.7092  0.6846
17437TIP3   OH273801   0.992   6.327   1.770  0.1641 -0.2242  0.8905
17437TIP3    H173802   0.898   6.310   1.777 -0.2151  1.6805  0.9940
17437TIP3    H273803   1.003   6.370   1.685  0.9708 -0.5636  0.8107
17438TIP3   OH273804   4.479   1.326   0.932 -0.0735 -0.3867  0.6828
17438TIP3    H173805   4.557   1.348   0.881 -0.1094  0.1633  0.8615
17438TIP3    H273806   4.473   1.231   0.925 -0.8909 -0.2408 -1.5388
17439TIP3   OH273807   4.823   1.859  10.930  0.2794 -0.2320  0.4549
17439TIP3    H173808   4.847   1.782  10.879 -1.0108  0.1660 -0.7950
17439TIP3    H273809   4.806   1.927  10.865 -0.9716  0.4122  1.4137
17440TIP3   OH273810   2.611   5.926   0.891  0.1562  0.5430 -0.5255
17440TIP3    H173811   2.622   5.844   0.939 -1.4659 -0.0444 -1.0821
17440TIP3    H273812   2.654   5.910   0.806  1.7819  1.0849  0.1612
17441TIP3   OH273813   4.304   0.346   4.957 -0.3894  0.4017  0.1899
17441TIP3    H173814   4.253   0.269   4.983  0.7578 -0.3061  0.4511
17441TIP3    H273815   4.279   0.361   4.866 -0.3434 -0.5470  0.0040
17442TIP3   OH273816   2.663   6.521  14.143 -0.1644 -0.1187 -0.2612
17442TIP3    H173817   2.713   6.546  14.066 -0.0465  1.9388  0.4109
17442TIP3    H273818   2.604   6.451  14.113  1.0663 -0.5596 -1.7560
17443TIP3   OH273819   4.378   5.848  14.004 -0.3604 -0.1883 -0.6618
17443TIP3    H173820   4.332   5.903  13.940 -1.2151  0.5221  0.5195
17443TIP3    H273821   4.346   5.878  14.089 -0.8163 -2.5030  0.0527
17444TIP3   OH273822   1.241   3.250  15.275 -0.4754  0.1672 -0.6652
17444TIP3    H173823   1.238   3.316  15.205  1.2857  1.8102  0.6812
17444TIP3    H273824   1.160   3.264  15.324  0.9411  3.3642  1.1600
17445TIP3   OH273825   3.007   2.504  14.481  0.0232 -0.3944 -0.1904
17445TIP3    H173826   3.086   2.460  14.449  0.4021 -0.5732  0.9324
17445TIP3    H273827   3.035   2.546  14.563 -0.4847  1.4571 -0.9242
17446TIP3   OH273828   2.532   0.753   1.219 -0.0034  0.4128 -0.1338
17446TIP3    H173829   2.465   0.811   1.255 -0.1097  0.8358 -0.9903
17446TIP3    H273830   2.517   0.756   1.124  0.4836 -0.4103 -0.2413
17447TIP3   OH273831   6.830   4.709  11.081 -0.6260  0.7658 -0.3445
17447TIP3    H173832   6.786   4.628  11.106 -0.0448  0.2504 -0.9434
17447TIP3    H273833   6.760   4.775  11.081 -0.9287  0.4845  1.0860
17448TIP3   OH273834   1.129   4.455   5.368  0.4070 -0.0431 -0.2916
17448TIP3    H173835   1.102   4.546   5.368  1.9086  0.4849  1.7427
17448TIP3    H273836   1.083   4.416   5.294 -2.7005  1.6001  0.6203
17449TIP3   OH273837   5.190   2.269  12.191  0.0825  0.3228  0.4746
17449TIP3    H173838   5.168   2.328  12.263  1.5990  1.3082  0.1810
17449TIP3    H273839   5.259   2.315  12.143  0.8171 -1.3967 -0.1802
17450TIP3   OH273840   2.705   1.914   0.638 -0.3986 -0.0003  0.1123
17450TIP3    H173841   2.658   1.909   0.721 -0.4717 -0.6516  0.0347
17450TIP3    H273842   2.654   1.974   0.584 -1.1671 -0.7148  0.0212
17451TIP3   OH273843   6.560   1.507   5.096 -0.4567 -0.1353  0.0945
17451TIP3    H173844   6.545   1.558   5.017 -0.7880 -0.1817  0.1268
17451TIP3    H273845   6.537   1.566   5.168 -2.1621 -0.7384  0.1040
17452TIP3   OH273846   0.575   1.244  12.408  0.2145 -0.4776 -0.8749
17452TIP3    H173847   0.572   1.152  12.381  0.0631 -0.6124 -0.4144
17452TIP3    H273848   0.639   1.245  12.479 -0.8542 -0.5032  0.1277
17453TIP3   OH273849   5.995   3.428  13.126  0.2698  0.2319  0.2059
17453TIP3    H173850   6.072   3.443  13.181  0.1710  1.7526 -0.0283
17453TIP3    H273851   5.925   3.409  13.188  0.4979  0.4024  0.5188
17454TIP3   OH273852   5.311   6.578   3.432  0.6005  0.7620  0.2288
17454TIP3    H173853   5.275   6.664   3.454 -0.0377  0.7949 -0.8800
17454TIP3    H273854   5.236   6.518   3.440  0.9052  0.3986  0.4030
17455TIP3   OH273855   4.519   5.532  15.900  0.6693 -0.0207 -0.1691
17455TIP3    H173856   4.484   5.620  15.886 -1.4826 -0.8176 -0.1027
17455TIP3    H273857   4.606   5.533  15.859  0.2277  1.7883 -1.1169
17456TIP3   OH273858   1.581   5.335   6.431  0.3577  0.8493 -0.3564
17456TIP3    H173859   1.580   5.364   6.522  1.0245 -0.7730  0.2039
17456TIP3    H273860   1.547   5.246   6.433  0.8267  0.6086 -1.6342
17457TIP3   OH273861   6.411   2.878  10.956  0.0427  0.7924 -0.7802
17457TIP3    H173862   6.385   2.950  11.014  0.5986 -1.1102  1.9870
17457TIP3    H273863   6.471   2.825  11.008  0.1550 -1.3668 -2.9403
17458TIP3   OH273864   0.055   1.285  16.911 -0.3415 -0.0010 -0.1133
17458TIP3    H173865   0.059   1.302  17.005  1.7773  1.3999 -0.3889
17458TIP3    H273866   0.052   1.190  16.904 -4.7245 -0.2075  1.3656
17459TIP3   OH273867   6.405   1.519   2.556 -0.4717 -0.6326  0.1121
17459TIP3    H173868   6.360   1.475   2.628  0.6123 -2.6780 -0.3873
17459TIP3    H273869   6.480   1.464   2.537 -0.4499  0.0974 -2.2768
17460TIP3   OH273870   2.078   1.509   1.209 -0.1379  0.0962 -0.0980
17460TIP3    H173871   2.031   1.436   1.247  0.2064 -0.0293  0.0957
17460TIP3    H273872   2.053   1.584   1.263 -1.7459  0.4479 -1.2771
17461TIP3   OH273873   6.324   5.887  11.951 -0.5025 -0.2384  0.3626
17461TIP3    H173874   6.391   5.826  11.981  0.0162  0.4136  0.5627
17461TIP3    H273875   6.262   5.833  11.902 -1.5654 -1.4293  2.8481
17462TIP3   OH273876   2.407   1.852  11.824  0.0161 -0.4178  0.9541
17462TIP3    H173877   2.485   1.900  11.848  0.8385 -0.1692 -1.8479
17462TIP3    H273878   2.439   1.776  11.776 -1.3969  0.4834 -1.6120
17463TIP3   OH273879   2.411   3.341   1.483  0.5003 -0.2233  0.0183
17463TIP3    H173880   2.374   3.253   1.488  1.1762 -0.6143 -1.5080
17463TIP3    H273881   2.505   3.329   1.490  0.5967  0.3944 -0.1030
17464TIP3   OH273882   6.233   3.708   0.020  1.2044  0.2520 -0.1950
17464TIP3    H173883   6.315   3.674  -0.016  0.5310  1.0793 -2.6879
17464TIP3    H273884   6.194   3.634   0.066  3.8000  0.1225  2.0696
17465TIP3   OH273885   5.392   5.198   6.427  0.3067  0.9517  0.4825
17465TIP3    H173886   5.436   5.228   6.348 -1.6119  0.0228 -0.9992
17465TIP3    H273887   5.451   5.223   6.498  2.6794  0.7182 -1.2994
17466TIP3   OH273888   0.457   3.033   5.080 -0.6434 -0.3886  0.6083
17466TIP3    H173889   0.543   3.071   5.060 -0.5760 -1.3916 -1.2317
17466TIP3    H273890   0.474   2.976   5.154  0.5560 -1.3774 -0.3700
17467TIP3   OH273891   2.686   0.051  16.037 -0.5345  0.3401 -0.2438
17467TIP3    H173892   2.718   0.006  15.959 -1.3388  0.3989 -0.6167
17467TIP3    H273893   2.701  -0.011  16.108  0.0027  0.1981 -0.4722
17468TIP3   OH273894   6.555   6.023  12.260 -0.1022  0.2856  0.4909
17468TIP3    H173895   6.501   5.956  12.218 -2.7921  2.2734  0.4996
17468TIP3    H273896   6.601   6.066  12.188 -0.7487  0.3921  0.1378
17469TIP3   OH273897   1.541   1.263  12.702  0.0051 -0.4593  0.1072
17469TIP3    H173898   1.555   1.348  12.745 -2.3670  0.1816 -0.2638
17469TIP3    H273899   1.479   1.217  12.759  0.9622 -1.8329  0.1039
17470TIP3   OH273900   1.658   0.107  11.805 -0.1199 -0.0450  0.6540
17470TIP3    H173901   1.683   0.138  11.892 -1.6799 -0.4637  1.2925
17470TIP3    H273902   1.567   0.137  11.794 -0.1276 -0.4724 -0.5921
17471TIP3   OH273903   1.782   6.642  14.679 -0.6364  0.2460  0.0584
17471TIP3    H173904   1.720   6.715  14.683 -0.1604  0.6912 -0.5758
17471TIP3    H273905   1.800   6.631  14.586  0.0700 -0.0234  0.2205
17472TIP3   OH273906   2.382   2.518  13.396  0.0853  0.2792 -0.0906
17472TIP3    H173907   2.389   2.614  13.401 -0.6960  0.3209  0.3331
17472TIP3    H273908   2.327   2.494  13.470  2.5452 -0.7894  1.5258
17473TIP3   OH273909   2.331   1.506  15.569 -0.3099  0.3442  0.0506
17473TIP3    H173910   2.281   1.462  15.500 -0.6689 -3.4197  2.3978
17473TIP3    H273911   2.422   1.478  15.553 -0.2973  0.0270  0.6423
17474TIP3   OH273912   1.616   6.582  11.140 -0.1021 -0.3415 -0.2113
17474TIP3    H173913   1.665   6.663  11.121 -1.5177  0.3002 -1.2987
17474TIP3    H273914   1.607   6.582  11.236  0.7280  0.2897 -0.1213
17475TIP3   OH273915   4.094   6.715   3.250 -0.6053  0.0733 -0.6239
17475TIP3    H173916   4.087   6.776   3.176 -0.5596 -0.4667 -1.0849
17475TIP3    H273917   4.069   6.767   3.326  1.2083  1.1966 -0.7308
17476TIP3   OH273918   4.122   4.036   5.581 -0.1481  0.1542 -0.7823
17476TIP3    H173919   4.142   4.094   5.507  2.6047  0.9946  0.4669
17476TIP3    H273920   4.173   3.957   5.563  0.2987  0.2472  0.0303
17477TIP3   OH273921   3.095   0.130  12.286  0.3182 -0.0483  0.2357
17477TIP3    H173922   3.124   0.105  12.198 -1.7260 -0.2291 -0.4446
17477TIP3    H273923   3.142   0.070  12.344 -0.0021 -1.5045 -0.9222
17478TIP3   OH273924   3.915   6.593  16.927  0.0609  0.2504  0.3866
17478TIP3    H173925   3.954   6.604  16.840  0.4136  1.0913  0.6378
17478TIP3    H273926   3.853   6.666  16.933 -1.9976 -1.3503 -0.2210
17479TIP3   OH273927   4.093   5.506  13.488 -0.3656 -0.0077 -0.3454
17479TIP3    H173928   4.158   5.566  13.451  0.4916 -0.2245  0.7624
17479TIP3    H273929   4.102   5.426  13.436 -0.2004  0.1777 -0.6073
17480TIP3   OH273930   1.591   0.005  12.219 -0.0120 -0.0472  0.4376
17480TIP3    H173931   1.610  -0.058  12.150  1.0111 -0.0344  0.6805
17480TIP3    H273932   1.589   0.090  12.174 -2.7840 -0.3344 -0.1247
17481TIP3   OH273933   5.683   4.299  15.399  0.1833 -0.1811  0.1412
17481TIP3    H173934   5.767   4.321  15.439  1.1930 -1.4105 -1.1872
17481TIP3    H273935   5.645   4.384  15.375  0.5234  0.4513  1.6998
17482TIP3   OH273936   0.663   2.377   5.580  0.8445  0.2492  0.6368
17482TIP3    H173937   0.758   2.381   5.578  1.0213 -2.2274 -0.5250
17482TIP3    H273938   0.637   2.376   5.488 -0.1333 -0.9452  0.8970
17483TIP3   OH273939   3.446   4.192   3.302 -0.0677  0.0969  0.0833
17483TIP3    H173940   3.432   4.255   3.373 -1.0667 -0.4931  0.4285
17483TIP3    H273941   3.485   4.116   3.346 -1.9576 -0.8149  0.2924
17484TIP3   OH273942   3.885   5.551   5.007 -0.1816 -0.1888  0.4749
17484TIP3    H173943   3.835   5.628   4.981  0.9108  0.3563 -0.0844
17484TIP3    H273944   3.820   5.481   5.014 -0.9024  0.2988 -1.0177
17485TIP3   OH273945   5.177   4.105   1.194  0.3138  0.8424 -0.9430
17485TIP3    H173946   5.211   4.077   1.279 -0.5022 -1.6220 -1.3242
17485TIP3    H273947   5.084   4.085   1.198  0.1958  1.0250 -2.2775
17486TIP3   OH273948   6.567   1.538  14.728 -0.1817  0.1232  0.2018
17486TIP3    H173949   6.518   1.543  14.645 -2.0309 -1.9651  1.0736
17486TIP3    H273950   6.640   1.479  14.709  0.3413  0.9033 -0.3101
17487TIP3   OH273951   0.198   4.972  16.872  0.1971 -0.2292  0.0439
17487TIP3    H173952   0.215   4.910  16.801 -0.6009  0.0660 -0.4159
17487TIP3    H273953   0.150   5.044  16.830  2.5681  1.5773  0.1685
17488TIP3   OH273954   3.030   1.131   4.018 -0.0189 -0.0594  0.5323
17488TIP3    H173955   3.071   1.084   4.091 -0.0015 -1.8266 -0.5605
17488TIP3    H273956   3.091   1.119   3.945 -1.2569 -0.5719 -0.4449
17489TIP3   OH273957   6.072   2.664  10.621  0.2173 -0.8469  0.4382
17489TIP3    H173958   6.000   2.635  10.564  0.1299 -1.6421  0.9454
17489TIP3    H273959   6.048   2.632  10.708 -0.4824  1.7307  1.3056
17490TIP3   OH273960   5.419   3.891   2.490  0.2109  0.4232  0.3309
17490TIP3    H173961   5.324   3.900   2.487  0.2163  0.8407  1.2838
17490TIP3    H273962   5.447   3.948   2.561  1.1716  0.2432  0.1119
17491TIP3   OH273963   4.953   4.342   5.109  0.2093  0.3977  0.3240
17491TIP3    H173964   5.001   4.343   5.191 -1.3211  0.4714  1.2481
17491TIP3    H273965   4.877   4.397   5.125 -0.0477  0.5325 -1.1979
17492TIP3   OH273966   5.308   1.379  13.952 -0.2531 -0.5445  0.3119
17492TIP3    H173967   5.241   1.341  13.895 -0.6506 -0.6572  0.8462
17492TIP3    H273968   5.361   1.305  13.980 -0.3541 -0.5567  0.4732
17493TIP3   OH273969   0.675   1.917   0.335  0.4361  0.2888  0.3321
17493TIP3    H173970   0.769   1.898   0.329  0.4525  0.6811 -1.2032
17493TIP3    H273971   0.660   1.983   0.267 -0.9198  0.3988  0.7121
17494TIP3   OH273972   6.561   0.518  10.960  0.4050  0.1699 -0.0965
17494TIP3    H173973   6.604   0.453  11.015  0.1048 -0.8910 -1.0744
17494TIP3    H273974   6.624   0.591  10.956  3.1531 -2.0290 -2.9716
17495TIP3   OH273975   1.072   4.839  15.095 -0.3342  0.0646  0.2168
17495TIP3    H173976   1.103   4.749  15.083 -0.7690 -0.0066 -0.4221
17495TIP3    H273977   1.151   4.892  15.091  0.0430 -0.3641  1.5480
17496TIP3   OH273978   5.148   2.806   2.196 -0.1987  0.1385 -0.1377
17496TIP3    H173979   5.098   2.816   2.277 -1.1327 -0.2725 -0.6498
17496TIP3    H273980   5.104   2.865   2.134 -0.8548 -1.1712 -0.9495
17497TIP3   OH273981   0.951   5.670  12.575 -0.1419  0.4211  0.0442
17497TIP3    H173982   0.931   5.624  12.494 -1.6105  0.2229  0.5000
17497TIP3    H273983   1.040   5.643  12.596  0.2760  0.4928 -1.4992
17498TIP3   OH273984   2.171   3.686   2.713 -0.0187  0.0688 -0.4166
17498TIP3    H173985   2.153   3.779   2.732  0.7890  0.0889  0.3136
17498TIP3    H273986   2.263   3.685   2.685  0.4320 -0.6832  1.0009
17499TIP3   OH273987   2.220   6.463   2.066  0.0092  0.5934  0.0047
17499TIP3    H173988   2.143   6.493   2.018 -0.7716  1.0563  1.4849
17499TIP3    H273989   2.248   6.540   2.117  0.9229  0.1829  0.1423
17500TIP3   OH273990   2.780   4.637   0.816  0.0630  0.1993  1.3000
17500TIP3    H173991   2.865   4.675   0.794 -0.4061  0.8864  0.5664
17500TIP3    H273992   2.778   4.633   0.911 -0.0196  2.4806  1.4452
17501TIP3   OH273993   5.044   0.218  11.054 -0.8319 -0.0845  0.0278
17501TIP3    H173994   5.001   0.218  11.140  0.1469 -1.6651  0.5716
17501TIP3    H273995   5.021   0.302  11.015 -0.6366  1.0527  2.1894
17502TIP3   OH273996   5.839   3.367   3.510 -0.3227 -0.0288  0.2840
17502TIP3    H173997   5.815   3.279   3.482 -0.5268  0.5943 -1.6616
17502TIP3    H273998   5.931   3.377   3.487 -0.5653  0.6016 -0.4473
17503TIP3   OH273999   1.918   4.465  15.555 -0.4399 -0.2781 -0.1712
17503TIP3    H174000   1.979   4.467  15.481 -0.1810  0.0296  0.0443
17503TIP3    H274001   1.841   4.513  15.524 -0.7683 -1.0670 -0.6062
17504TIP3   OH274002   2.084   1.830  13.924  0.3355  0.0207 -0.2208
17504TIP3    H174003   2.037   1.756  13.886 -1.1466  1.1849 -0.7272
17504TIP3    H274004   2.064   1.904  13.867  3.0842  0.5301 -0.6424
17505TIP3   OH274005   1.137   6.832   2.541 -0.5200 -0.4849 -0.0094
17505TIP3    H174006   1.042   6.823   2.541 -0.4850 -1.1996 -1.2436
17505TIP3    H274007   1.165   6.803   2.628 -1.3218 -1.8169 -0.1622
17506TIP3   OH274008   3.075   1.952   3.661  0.3314  0.2480  0.4430
17506TIP3    H174009   3.157   1.907   3.680  0.3715  0.8964  1.9906
17506TIP3    H274010   3.090   2.042   3.690 -1.4876 -0.0157  2.5400
17507TIP3   OH274011   3.338   6.158  15.838  0.0126  0.8447 -0.0802
17507TIP3    H174012   3.360   6.217  15.910 -0.4515  2.5344 -1.2467
17507TIP3    H274013   3.395   6.187  15.766  0.6382 -0.9552 -0.3578
17508TIP3   OH274014   1.628   4.869  16.969  0.0281  0.0195 -0.4782
17508TIP3    H174015   1.723   4.874  16.958 -0.1065  1.0503 -1.3946
17508TIP3    H274016   1.602   4.792  16.919  0.1848  0.8568 -1.9027
17509TIP3   OH274017   2.348   4.406  15.509 -0.5784  0.3533  0.0440
17509TIP3    H174018   2.336   4.373  15.421  0.3506  0.9148 -0.3051
17509TIP3    H274019   2.406   4.481  15.499  0.4679 -0.2475  1.2439
17510TIP3   OH274020   0.575   5.675   3.792  0.5162  0.3214  0.4304
17510TIP3    H174021   0.540   5.586   3.800 -0.3829  0.8229  3.1836
17510TIP3    H274022   0.660   5.664   3.748 -0.1843 -1.6853 -0.5514
17511TIP3   OH274023   0.711   2.502   2.678 -0.2625 -0.0960 -0.4888
17511TIP3    H174024   0.791   2.526   2.725 -0.8430  1.0672 -0.0544
17511TIP3    H274025   0.730   2.521   2.586 -0.9931  3.1087 -0.0850
17512TIP3   OH274026   5.322   1.094   3.434 -0.0201 -0.5044  0.4216
17512TIP3    H174027   5.296   1.006   3.408 -0.6155  0.3121 -2.0703
17512TIP3    H274028   5.414   1.087   3.459  0.4430 -1.5726 -1.4244
17513TIP3   OH274029   3.610   2.629  15.862 -0.2993  0.4817  0.1532
17513TIP3    H174030   3.530   2.652  15.814  0.0459  0.8525 -0.2485
17513TIP3    H274031   3.665   2.585  15.797 -0.3670 -0.2016  0.5499
17514TIP3   OH274032   1.941   3.936  16.827 -0.2347  0.1090  0.1938
17514TIP3    H174033   1.897   3.953  16.744 -0.6259 -1.5703  0.0272
17514TIP3    H274034   1.973   3.846  16.819 -2.4985 -1.0695  2.7796
17515TIP3   OH274035   0.259   6.434  12.941 -0.9093 -0.4790  0.2605
17515TIP3    H174036   0.337   6.419  12.995 -0.8768 -2.7943 -0.3026
17515TIP3    H274037   0.207   6.355  12.953 -1.9667 -0.0709 -1.3390
17516TIP3   OH274038   2.382   4.781  16.988  0.5509  0.7857 -0.3317
17516TIP3    H174039   2.402   4.847  17.054  0.5629  0.1377  0.3241
17516TIP3    H274040   2.463   4.731  16.978  0.4006  0.5650 -0.4695
17517TIP3   OH274041   6.762   4.648  14.131  0.2767  0.2352 -0.0373
17517TIP3    H174042   6.716   4.581  14.082 -0.6625  1.4724 -0.9056
17517TIP3    H274043   6.755   4.621  14.223 -0.0767 -0.8334 -0.3734
17518TIP3   OH274044   0.811   0.394  15.126  0.3822  0.0718  0.3540
17518TIP3    H174045   0.898   0.433  15.135  1.8581 -2.7724 -0.3578
17518TIP3    H274046   0.781   0.381  15.216  0.7048  0.9430  0.6052
17519TIP3   OH274047   0.057   4.540   0.356 -0.2925  0.1568 -0.2921
17519TIP3    H174048   0.120   4.573   0.293  0.2320 -2.0848 -1.0525
17519TIP3    H274049  -0.026   4.581   0.332  0.4160  1.3572 -0.7507
17520TIP3   OH274050   5.677   1.626  14.067 -0.1295 -0.1682 -0.3819
17520TIP3    H174051   5.612   1.591  14.006  0.8322  0.1943 -1.6624
17520TIP3    H274052   5.740   1.671  14.011  0.0693  1.3770  0.9990
17521TIP3   OH274053   0.946   5.606   2.545 -0.1221  0.4278  0.3911
17521TIP3    H174054   0.982   5.518   2.536  0.0541  0.3711  1.5020
17521TIP3    H274055   1.003   5.649   2.609 -0.1690  1.3768 -0.1805
17522TIP3   OH274056   4.059   6.657  16.699  0.0278  0.5745  0.0683
17522TIP3    H174057   4.046   6.735  16.753 -0.2281  0.6837 -0.1475
17522TIP3    H274058   4.152   6.657  16.679  0.2350  0.2169  0.9897
17523TIP3   OH274059   5.520   4.939  11.386 -0.5755  0.0162 -0.0625
17523TIP3    H174060   5.503   5.007  11.452 -0.3811  0.8843 -0.8929
17523TIP3    H274061   5.497   4.857  11.430  2.2202  0.2422  2.1184
17524TIP3   OH274062   3.839   4.888  11.359 -0.2249  0.0044 -0.3355
17524TIP3    H174063   3.795   4.827  11.418 -1.4542  0.2614 -0.9536
17524TIP3    H274064   3.800   4.870  11.273  1.3068 -0.1479 -1.0258
17525TIP3   OH274065   5.661   4.587  15.882 -0.3378  0.0692 -0.4175
17525TIP3    H174066   5.568   4.565  15.879  0.1831 -2.6582  0.2456
17525TIP3    H274067   5.702   4.526  15.821  1.1218  0.4840  0.0944
17526TIP3   OH274068   1.687   5.450  13.785 -0.4473 -0.0893  0.3727
17526TIP3    H174069   1.702   5.545  13.779 -0.6463  0.0607  1.9421
17526TIP3    H274070   1.766   5.412  13.747 -0.2203  0.7028  0.0116
17527TIP3   OH274071   6.239   3.466  13.591 -0.2939  0.0967  0.0436
17527TIP3    H174072   6.297   3.521  13.538 -0.8857  0.4939 -0.2052
17527TIP3    H274073   6.269   3.478  13.681 -0.8462  1.3703  0.0698
17528TIP3   OH274074   6.804   1.649  14.915 -0.2827 -0.1159 -0.0894
17528TIP3    H174075   6.891   1.624  14.945 -0.4285  0.4372  0.8333
17528TIP3    H274076   6.765   1.567  14.884  0.9232 -0.1967 -1.4985
17529TIP3   OH274077   3.496   6.690   6.619  0.3137  0.4823  0.1242
17529TIP3    H174078   3.585   6.696   6.654 -0.4115  1.8972  1.8535
17529TIP3    H274079   3.477   6.596   6.620  1.3111  0.2696  0.9711
17530TIP3   OH274080   4.576   2.473   0.080 -0.1288  0.8846  0.1548
17530TIP3    H174081   4.523   2.546   0.049 -2.0196 -0.5080 -0.0646
17530TIP3    H274082   4.528   2.438   0.155 -1.1484 -2.1334 -1.7277
17531TIP3   OH274083   4.732   3.869  14.633 -0.6510 -0.0405  0.4453
17531TIP3    H174084   4.651   3.826  14.662 -1.0799 -0.1887 -0.8857
17531TIP3    H274085   4.730   3.861  14.537 -0.5073  2.5260  0.1773
17532TIP3   OH274086   1.262   1.124  14.028  0.0951 -0.3061  0.0936
17532TIP3    H174087   1.331   1.075  14.074  0.1184  0.2067  0.6215
17532TIP3    H274088   1.296   1.136  13.939  0.1629 -1.0940  0.0079
17533TIP3   OH274089   0.957   4.188   2.163  0.2375  0.1455 -0.0057
17533TIP3    H174090   0.911   4.104   2.167  1.6638 -0.7399 -1.1443
17533TIP3    H274091   0.965   4.215   2.254  0.1354 -1.1730  0.4219
17534TIP3   OH274092   1.913   2.000   0.734  0.2474  0.2216  0.3698
17534TIP3    H174093   1.962   2.045   0.803 -0.1990  2.5058 -0.6871
17534TIP3    H274094   1.945   2.040   0.653 -1.0347 -0.5624 -0.5580
17535TIP3   OH274095   3.288   3.638   4.446  0.2887  0.0266  0.8034
17535TIP3    H174096   3.334   3.560   4.479  1.7957 -0.6474 -2.4582
17535TIP3    H274097   3.348   3.675   4.381 -1.7040  2.1496  0.0537
17536TIP3   OH274098   3.975   2.390  11.279 -0.2096 -0.4179 -0.0387
17536TIP3    H174099   4.010   2.376  11.191  2.7232  5.1308 -0.2247
17536TIP3    H274100   4.032   2.337  11.335  1.0194 -0.4256 -1.2250
17537TIP3   OH274101   6.243   2.810  14.116  0.5235  0.1636  0.3633
17537TIP3    H174102   6.332   2.846  14.119  0.2337  1.0552 -0.9137
17537TIP3    H274103   6.195   2.869  14.057 -0.3130 -1.6006 -0.8228
17538TIP3   OH274104   3.976   3.446  14.309  0.6841  0.2064 -0.8952
17538TIP3    H174105   4.002   3.536  14.329  0.9728  0.3994 -2.0504
17538TIP3    H274106   4.055   3.395  14.324 -0.0658 -0.2650  2.0278
17539TIP3   OH274107   5.302   5.986  11.254  0.1626  0.7430 -0.2984
17539TIP3    H174108   5.337   5.961  11.169 -1.5018 -1.8219 -0.3459
17539TIP3    H274109   5.346   5.926  11.316 -1.3208  0.0292  0.1058
17540TIP3   OH274110   6.600   6.266   4.560 -0.3319 -0.1319  0.6782
17540TIP3    H174111   6.534   6.209   4.598 -0.1555  0.4146  1.8647
17540TIP3    H274112   6.675   6.258   4.619  0.5525 -0.4936 -0.4653
17541TIP3   OH274113   0.357   2.065   3.533 -0.2450 -0.4632  0.8831
17541TIP3    H174114   0.385   2.155   3.517  0.3819 -0.9680 -1.2135
17541TIP3    H274115   0.413   2.012   3.476 -2.4200 -1.9206 -0.0662
17542TIP3   OH274116   6.393   3.167   2.118  0.1830  0.0983  0.1834
17542TIP3    H174117   6.484   3.197   2.116  0.5404 -0.9896 -0.2592
17542TIP3    H274118   6.387   3.118   2.200 -0.1323  0.5553  0.4338
17543TIP3   OH274119   5.163   5.669  16.412  0.9826  0.5380  0.4979
17543TIP3    H174120   5.188   5.606  16.344 -0.2600  0.5859 -0.0270
17543TIP3    H274121   5.135   5.616  16.486 -3.4581  0.2138 -1.1090
17544TIP3   OH274122   1.015   2.609  10.792 -0.3467  0.2604  0.0873
17544TIP3    H174123   0.965   2.687  10.815 -0.2823  0.6317 -0.9608
17544TIP3    H274124   1.000   2.598  10.698  2.7142  1.3015 -0.6578
17545TIP3   OH274125   5.186   0.605   1.857 -0.5118 -0.1140  0.9236
17545TIP3    H174126   5.124   0.534   1.873 -0.0094 -0.6157  0.7159
17545TIP3    H274127   5.133   0.684   1.857 -0.9936 -0.4206  1.8046
17546TIP3   OH274128   3.227   6.438  14.050 -0.0478 -0.2675  0.3917
17546TIP3    H174129   3.219   6.385  13.971 -1.4936 -1.2704  1.1514
17546TIP3    H274130   3.152   6.412  14.103  0.5153  0.8729  1.8068
17547TIP3   OH274131   3.243   1.244   4.514  0.4027 -0.1949 -0.1217
17547TIP3    H174132   3.202   1.163   4.486 -1.3519 -0.0030  1.7375
17547TIP3    H274133   3.186   1.279   4.582  1.1633  2.5426 -0.7489
17548TIP3   OH274134   5.800   1.800   1.231 -0.0327 -0.3721 -0.4887
17548TIP3    H174135   5.838   1.831   1.148 -0.6998  0.4338 -0.5141
17548TIP3    H274136   5.706   1.808   1.218 -0.2408 -2.3954 -0.4458
17549TIP3   OH274137   2.808   5.405   4.323 -0.0406  0.2715  0.9507
17549TIP3    H174138   2.872   5.346   4.284  1.9281  1.9675  1.4092
17549TIP3    H274139   2.727   5.388   4.276  0.5651 -2.3431  0.7015
17550TIP3   OH274140   5.144   2.586  12.628 -0.0556 -0.1675 -0.2092
17550TIP3    H174141   5.189   2.626  12.702  1.4246 -2.0296 -0.0144
17550TIP3    H274142   5.071   2.645  12.609 -0.1395  0.6689  2.3387
17551TIP3   OH274143   6.202   1.446  13.923  0.9097  0.5187 -0.3709
17551TIP3    H174144   6.258   1.486  13.856 -0.0180  0.2982 -1.3015
17551TIP3    H274145   6.165   1.369  13.881 -0.1395  0.6862  0.2071
17552TIP3   OH274146   4.395   6.559  16.183  0.1454 -0.0858  0.1687
17552TIP3    H174147   4.393   6.616  16.106 -0.2455  0.4555  0.5727
17552TIP3    H274148   4.478   6.512  16.176  0.1703  0.0465 -0.5166
17553TIP3   OH274149   1.567   5.316  14.178 -0.5624  0.5081  0.0163
17553TIP3    H174150   1.590   5.242  14.235  0.3287  0.5697 -0.2471
17553TIP3    H274151   1.567   5.278  14.090 -4.4753 -0.2273  0.1584
17554TIP3   OH274152   0.353   5.753  16.125 -0.1863  0.0492  0.8206
17554TIP3    H174153   0.445   5.733  16.145 -0.2902 -1.7942 -0.3832
17554TIP3    H274154   0.339   5.840  16.164  2.7696  1.5211 -1.0327
17555TIP3   OH274155   5.057   5.424  16.327  0.1985  0.0836 -0.6382
17555TIP3    H174156   5.055   5.493  16.393  0.1464  2.9267 -3.3707
17555TIP3    H274157   4.965   5.404  16.310  0.2188 -1.1056  0.4938
17556TIP3   OH274158   4.305   6.543  12.673  0.4022  0.6199  0.6258
17556TIP3    H174159   4.272   6.570  12.587  0.2156  1.7170  1.0192
17556TIP3    H274160   4.388   6.500  12.655  0.7920  1.6189 -0.0479
17557TIP3   OH274161   3.464   6.760   3.731 -0.1398 -0.4671  0.3729
17557TIP3    H174162   3.369   6.751   3.742 -0.4393  0.3444 -1.2913
17557TIP3    H274163   3.475   6.839   3.679  1.4482 -0.7179  0.2767
17558TIP3   OH274164   0.880   6.753  11.889  0.0529  0.0044  0.1411
17558TIP3    H174165   0.902   6.709  11.971  0.0944  0.4655  0.3809
17558TIP3    H274166   0.817   6.695  11.847  0.4162 -0.4821  0.2634
17559TIP3   OH274167   4.212   0.125  13.492  0.4805 -0.1465  0.0171
17559TIP3    H174168   4.204   0.031  13.510 -1.0965 -0.2302 -0.8992
17559TIP3    H274169   4.284   0.154  13.547  1.4233 -2.0155 -0.1487
17560TIP3   OH274170   3.753   1.150  15.216 -0.3682  0.3365  0.3391
17560TIP3    H174171   3.707   1.094  15.278  2.0344  1.1992  3.1048
17560TIP3    H274172   3.753   1.236  15.256  0.2610  1.2275 -1.4553
17561TIP3   OH274173   4.927   2.174  16.608 -0.6794 -0.1634 -0.2801
17561TIP3    H174174   4.845   2.211  16.641  0.1707  0.0108  1.8012
17561TIP3    H274175   4.993   2.240  16.626  0.3219 -1.3127  0.4533
17562TIP3   OH274176   4.936   6.502   2.237  0.1629  0.4839  0.0742
17562TIP3    H174177   4.932   6.559   2.160 -0.0854  1.2076  0.6129
17562TIP3    H274178   4.851   6.513   2.279 -0.3475 -1.2098 -0.4470
17563TIP3   OH274179   1.487   4.220  13.416  0.1643  0.4010 -0.2020
17563TIP3    H174180   1.572   4.195  13.378 -0.2410  0.3944 -1.1398
17563TIP3    H274181   1.482   4.171  13.498 -0.5509 -2.5700 -1.8942
17564TIP3   OH274182   2.657   0.085  16.515  0.1708 -0.3598 -0.1655
17564TIP3    H174183   2.671   0.064  16.607  1.5700  0.7510 -0.0801
17564TIP3    H274184   2.573   0.130  16.512  0.0794 -0.4784  0.5572
17565TIP3   OH274185   3.392   3.659  13.327 -0.3364  0.3553 -0.1166
17565TIP3    H174186   3.408   3.619  13.241 -0.4635  0.2603 -0.0972
17565TIP3    H274187   3.342   3.738  13.308 -1.2931 -0.2293 -0.0483
17566TIP3   OH274188   3.591   4.567  14.994  0.1483 -0.1304  0.1385
17566TIP3    H174189   3.662   4.588  14.933  0.7716 -0.7519  0.6368
17566TIP3    H274190   3.599   4.633  15.063 -0.6854  0.7011 -0.5219
17567TIP3   OH274191   4.235   4.698  16.097  0.5310  0.3828  0.1135
17567TIP3    H174192   4.261   4.782  16.134  0.4431  1.0804 -1.3779
17567TIP3    H274193   4.141   4.705  16.084  0.4504 -0.1179  0.3732
17568TIP3   OH274194   2.357   0.458  10.944 -0.6364 -0.4393  0.4897
17568TIP3    H174195   2.322   0.546  10.926 -0.9317 -0.9351 -1.5595
17568TIP3    H274196   2.387   0.463  11.035  1.6077  2.5138 -0.2730
17569TIP3   OH274197   0.906   6.833  10.251  0.5750  0.2988 -0.6738
17569TIP3    H174198   0.984   6.888  10.242  0.5292  0.1644 -2.2321
17569TIP3    H274199   0.833   6.893  10.235  0.4209  0.2070 -0.3019
17570TIP3   OH274200   5.909   5.216   5.586 -0.3040  0.0656  0.3311
17570TIP3    H174201   5.820   5.184   5.573 -0.2482 -0.3844  1.0157
17570TIP3    H274202   5.942   5.167   5.661  0.6086  0.0539 -0.0655
17571TIP3   OH274203   0.939   3.114   0.159 -0.0659 -1.0160 -0.3488
17571TIP3    H174204   0.900   3.198   0.182  1.1199  0.0331 -1.9693
17571TIP3    H274205   0.999   3.094   0.231  1.2591  0.6409 -0.9398
17572TIP3   OH274206   0.817   4.403  11.817 -0.4036  0.4222  0.1411
17572TIP3    H174207   0.779   4.440  11.737 -2.2372 -1.6934 -0.0601
17572TIP3    H274208   0.902   4.369  11.790 -1.7644 -1.9605 -1.4777
17573TIP3   OH274209   5.829   2.753   0.029 -0.2156  0.6371  0.0419
17573TIP3    H174210   5.844   2.838  -0.013 -0.1124  0.8624  0.5293
17573TIP3    H274211   5.806   2.694  -0.043  0.9962  0.7643 -0.4698
17574TIP3   OH274212   4.702   3.862   3.413  0.4482  0.0320 -0.0780
17574TIP3    H174213   4.622   3.832   3.456  0.6846 -1.4349 -0.5974
17574TIP3    H274214   4.710   3.805   3.336  1.5933  0.6477 -0.4277
17575TIP3   OH274215   2.917   1.816  15.892 -0.1574 -0.1631  0.0051
17575TIP3    H174216   2.990   1.777  15.846  1.0345  1.3780  0.4873
17575TIP3    H274217   2.956   1.859  15.968 -1.2230  2.3569 -0.7296
17576TIP3   OH274218   5.786   4.718  10.460  0.1705  0.1649 -0.5977
17576TIP3    H174219   5.823   4.663  10.529  0.3060  0.1170 -0.7072
17576TIP3    H274220   5.703   4.676  10.437 -0.4667  0.8611  0.3862
17577TIP3   OH274221   0.052   4.902   1.577 -0.2187 -0.6447 -0.0383
17577TIP3    H174222   0.080   4.930   1.664  1.2323  0.5744 -0.8531
17577TIP3    H274223   0.062   4.807   1.578  0.9636 -0.5302  0.7560
17578TIP3   OH274224   0.350   4.726   6.359 -0.2203  1.0304 -0.0286
17578TIP3    H174225   0.428   4.707   6.411  0.6686  2.1392 -0.9037
17578TIP3    H274226   0.339   4.649   6.303 -0.5209  0.3244  0.9785
17579TIP3   OH274227   1.237   2.771   0.646 -0.1093  1.0462  1.4348
17579TIP3    H174228   1.179   2.847   0.648 -1.0113  0.9923 -4.5197
17579TIP3    H274229   1.178   2.696   0.652 -0.8063  1.0178 -2.7329
17580TIP3   OH274230   2.519   3.453  13.880  0.3128  0.6674 -0.0152
17580TIP3    H174231   2.558   3.539  13.892  1.7263 -0.1182  1.3822
17580TIP3    H274232   2.571   3.395  13.935  0.9060 -1.5404 -2.6838
17581TIP3   OH274233   6.423   5.236   1.956  0.3898 -0.3546 -0.0141
17581TIP3    H174234   6.507   5.201   1.984  0.5085  0.2590  0.4138
17581TIP3    H274235   6.414   5.318   2.004  0.3016  0.4043 -1.2898
17582TIP3   OH274236   5.055   4.899   1.250 -0.0617 -0.0203 -0.2142
17582TIP3    H174237   5.028   4.849   1.327  1.6439 -1.0871 -0.2639
17582TIP3    H274238   5.094   4.834   1.191 -0.8181  0.8574 -1.7542
17583TIP3   OH274239   0.831   5.609   0.611 -0.0960 -0.2022  0.2162
17583TIP3    H174240   0.777   5.612   0.690 -0.6015  1.1050 -0.1475
17583TIP3    H274241   0.902   5.671   0.628 -0.6529  0.7048 -0.6343
17584TIP3   OH274242   0.335   6.727   0.887 -0.4943 -0.3599 -0.0208
17584TIP3    H174243   0.375   6.813   0.883 -0.3753 -0.3451  1.2054
17584TIP3    H274244   0.289   6.725   0.971 -0.8047 -1.3510 -0.1966
17585TIP3   OH274245   5.152   5.862  14.017 -0.2272 -0.5094  0.2571
17585TIP3    H174246   5.231   5.890  14.065 -0.0578  0.3644 -0.5026
17585TIP3    H274247   5.082   5.867  14.083 -0.1217  1.3210  0.3005
17586TIP3   OH274248   6.521   0.356   1.524 -1.0735 -0.3842 -0.6990
17586TIP3    H174249   6.535   0.280   1.580 -1.3669  0.4148  0.4856
17586TIP3    H274250   6.479   0.320   1.446  0.6931 -1.7318 -1.0936
17587TIP3   OH274251   3.212   2.974  13.079 -0.0197  0.1553 -0.0870
17587TIP3    H174252   3.295   2.952  13.121  0.4534  1.5176 -0.2540
17587TIP3    H274253   3.149   2.978  13.150  0.5549  1.3737  0.3932
17588TIP3   OH274254   3.437   2.967   5.457  0.0036 -0.0885 -0.6239
17588TIP3    H174255   3.362   2.909   5.463 -1.2663  1.4329 -1.1130
17588TIP3    H274256   3.412   3.045   5.506  1.9807 -0.2279  0.7001
17589TIP3   OH274257   0.573   1.383  13.810  0.2425  0.6906  0.4431
17589TIP3    H174258   0.566   1.453  13.745  0.6505  1.5242  1.2643
17589TIP3    H274259   0.592   1.429  13.892 -1.1787 -0.2583  1.3496
17590TIP3   OH274260   4.914   5.037  12.206  0.3351  0.6719 -0.0687
17590TIP3    H174261   4.954   4.961  12.249  2.6016  0.8497 -1.6845
17590TIP3    H274262   4.924   5.019  12.113 -2.0558  1.4992 -0.5302
17591TIP3   OH274263   1.281   3.880  14.553 -0.2399 -0.7182  0.0763
17591TIP3    H174264   1.217   3.936  14.595 -1.4056 -1.1626 -1.0474
17591TIP3    H274265   1.348   3.864  14.621  0.3527  2.2787  0.3155
17592TIP3   OH274266   0.213   3.826  14.917 -0.6381  0.3045 -0.0958
17592TIP3    H174267   0.299   3.864  14.938 -0.1739 -0.8159  0.1081
17592TIP3    H274268   0.184   3.874  14.839 -0.2088  1.2603  0.3122
17593TIP3   OH274269   3.618   4.930   4.440  0.0413  1.0499  0.5282
17593TIP3    H174270   3.691   4.976   4.482 -0.6826  1.7192  1.0934
17593TIP3    H274271   3.546   4.939   4.502 -0.8943  1.5366 -0.5844
17594TIP3   OH274272   2.761   2.112   5.368  0.1652  0.4355 -0.2924
17594TIP3    H174273   2.727   2.102   5.457  0.2323 -2.5887 -0.4980
17594TIP3    H274274   2.698   2.066   5.313  2.5781 -2.1447 -1.1166
17595TIP3   OH274275   5.048   3.626   2.310  0.1302 -0.4477  0.1660
17595TIP3    H174276   4.999   3.663   2.383  0.9013 -0.6397  0.7928
17595TIP3    H274277   4.983   3.576   2.260 -0.5107  0.1316  0.4106
17596TIP3   OH274278   2.995   6.499  15.372  0.0360 -0.7481  0.1290
17596TIP3    H174279   3.031   6.587  15.381  1.3060 -1.3112  0.7625
17596TIP3    H274280   3.042   6.460  15.299 -1.5740 -0.4239 -1.1335
17597TIP3   OH274281   4.394   1.307  12.242  0.1853 -0.1403  0.2966
17597TIP3    H174282   4.399   1.402  12.238  0.3380 -0.1839 -0.6032
17597TIP3    H274283   4.437   1.285  12.325  0.4234  0.5514  0.3656
17598TIP3   OH274284   5.098   6.777   6.051  0.0874  0.5302  0.6401
17598TIP3    H174285   5.142   6.824   6.121 -0.5365 -0.4812  1.7467
17598TIP3    H274286   5.032   6.839   6.018 -2.4021 -0.2370  3.6965
17599TIP3   OH274287   0.120   3.524   1.601  0.3809 -0.0703  0.1066
17599TIP3    H174288   0.156   3.605   1.637 -1.8024 -0.2217  3.0006
17599TIP3    H274289   0.036   3.513   1.646 -1.5991 -1.6229 -3.4919
17600TIP3   OH274290   2.283   5.935   5.945  0.1543  0.1122 -0.6529
17600TIP3    H174291   2.193   5.942   5.976 -0.5741 -1.4371 -2.2366
17600TIP3    H274292   2.337   5.956   6.022 -1.5345 -1.6256  1.1287
17601TIP3   OH274293   2.542   6.062  10.298  0.0712 -0.2290 -0.4681
17601TIP3    H174294   2.533   5.972  10.266  0.5794 -1.5120  2.6540
17601TIP3    H274295   2.456   6.082  10.336  0.5988 -0.2740  0.7872
17602TIP3   OH274296   5.169   2.350  16.881  0.1972  0.7109 -0.3615
17602TIP3    H174297   5.099   2.409  16.853 -1.1231 -0.4867  0.2813
17602TIP3    H274298   5.204   2.314  16.799  0.6305  1.8910 -0.7295
17603TIP3   OH274299   4.788   6.140  17.051  0.0130 -0.0561 -0.3739
17603TIP3    H174300   4.857   6.123  16.986 -1.0530 -0.5540 -1.4104
17603TIP3    H274301   4.831   6.194  17.117  1.1219  0.5412 -1.5290
17604TIP3   OH274302   1.857   5.965  11.111  0.2295 -0.4082  0.0463
17604TIP3    H174303   1.810   5.954  11.194 -1.3071 -2.7566 -1.0179
17604TIP3    H274304   1.818   5.900  11.053  2.9492 -0.5399 -1.8058
17605TIP3   OH274305   5.789   1.775   4.250  0.1511  0.0680 -0.2936
17605TIP3    H174306   5.735   1.699   4.231  0.5410 -0.7636  1.6775
17605TIP3    H274307   5.878   1.748   4.225  0.0020  0.6648 -1.5421
17606TIP3   OH274308   2.620   2.466   3.928  0.0580 -0.5149 -0.8144
17606TIP3    H174309   2.678   2.420   3.867 -0.2966 -0.7507 -0.9756
17606TIP3    H274310   2.536   2.421   3.920 -0.4717  0.5665 -1.4412
17607TIP3   OH274311   3.538   3.339   2.629  0.1294  0.1613 -0.3575
17607TIP3    H174312   3.504   3.401   2.693  2.1572  0.4734  0.4877
17607TIP3    H274313   3.550   3.390   2.549 -0.9715  0.1250 -0.5638
17608TIP3   OH274314   6.118   6.421  10.884  0.2914  0.4840 -0.2235
17608TIP3    H174315   6.188   6.423  10.819  1.5053 -2.6865  0.7815
17608TIP3    H274316   6.164   6.409  10.968 -1.3669  0.1850  0.6938
17609TIP3   OH274317   2.058   0.172  16.284 -0.7469 -0.9305  0.5757
17609TIP3    H174318   1.980   0.206  16.239 -1.2419 -0.7940  1.5000
17609TIP3    H274319   2.023   0.127  16.361  0.0631 -1.3427  0.7117
17610TIP3   OH274320   2.359   0.191   5.185 -0.1522 -0.5486 -0.1693
17610TIP3    H174321   2.303   0.122   5.220 -1.2924  0.0665 -0.7257
17610TIP3    H274322   2.385   0.160   5.098  0.8434 -1.0788  0.3049
17611TIP3   OH274323   5.602   6.640   5.378  0.0667 -0.4378 -0.3054
17611TIP3    H174324   5.557   6.720   5.351 -0.4093  0.5058  2.8827
17611TIP3    H274325   5.695   6.664   5.381 -0.1417  0.2528  1.2963
17612TIP3   OH274326   0.653   5.497   0.150  0.6620  0.7302 -0.0325
17612TIP3    H174327   0.559   5.488   0.132  0.7289  0.8178 -0.4510
17612TIP3    H274328   0.658   5.564   0.218  0.4225  0.7821 -0.0648
17613TIP3   OH274329   6.745   0.048  13.472 -0.4713  0.0783  0.0600
17613TIP3    H174330   6.828   0.070  13.431 -0.9349  3.7027  0.7158
17613TIP3    H274331   6.756   0.073  13.564 -2.0494 -0.1153  0.3348
17614TIP3   OH274332   6.060   0.232   2.920 -0.2039  0.1619 -0.8886
17614TIP3    H174333   6.008   0.309   2.939  1.6948  1.5773 -1.1492
17614TIP3    H274334   6.072   0.233   2.825 -0.4421 -0.6501 -0.9345
17615TIP3   OH274335   5.875   0.271  14.833  0.0401  0.0116  0.1520
17615TIP3    H174336   5.846   0.180  14.836  0.5471 -0.1392  0.6339
17615TIP3    H274337   5.964   0.267  14.796  0.2678  0.2591  0.6621
17616TIP3   OH274338   6.735   1.225   1.524 -0.6124  0.2952 -0.1683
17616TIP3    H174339   6.758   1.136   1.549 -1.9587  0.0885  0.4442
17616TIP3    H274340   6.767   1.279   1.596  0.0831  0.3026 -0.4750
17617TIP3   OH274341   2.886   1.863   4.551 -0.5543 -0.2619 -0.3144
17617TIP3    H174342   2.823   1.871   4.480  0.2412  1.4686 -0.8774
17617TIP3    H274343   2.915   1.771   4.547 -0.7904 -0.2885 -2.0042
17618TIP3   OH274344   2.839   0.799  15.429  0.3897  0.7464 -0.2904
17618TIP3    H174345   2.818   0.706  15.431  1.4087  0.5087 -0.3983
17618TIP3    H274346   2.915   0.806  15.372 -0.4682  1.8268 -1.3726
17619TIP3   OH274347   5.861   6.515  16.704  0.5361  0.0622  0.4611
17619TIP3    H174348   5.790   6.565  16.663  0.0703  1.0120  2.3136
17619TIP3    H274349   5.940   6.567  16.687  0.1478  1.1509  1.8269
17620TIP3   OH274350   4.746   2.691   4.264  0.3565  0.1619  0.4707
17620TIP3    H174351   4.697   2.692   4.182 -1.7702  0.2640  1.6782
17620TIP3    H274352   4.762   2.598   4.281 -0.5103  0.0405  0.6639
17621TIP3   OH274353   5.874   1.694  14.438 -0.2205  0.2319 -0.3683
17621TIP3    H174354   5.822   1.702  14.357  1.2941  0.9691 -1.3036
17621TIP3    H274355   5.838   1.616  14.481  0.4821 -1.6520 -2.9533
17622TIP3   OH274356   2.070   2.259  11.527  0.8490  0.2516  0.3009
17622TIP3    H174357   2.012   2.215  11.465 -0.7320  1.9665  0.4755
17622TIP3    H274358   2.138   2.298  11.473 -1.3497  3.0530 -0.6934
17623TIP3   OH274359   3.052   4.234   0.517  0.1106 -0.4317  0.3884
17623TIP3    H174360   2.977   4.246   0.575 -1.3676  0.4709 -1.5647
17623TIP3    H274361   3.067   4.139   0.516 -0.5575 -0.5592  1.3497
17624TIP3   OH274362   5.256   4.614  13.165  0.1459 -0.1680  0.2387
17624TIP3    H174363   5.339   4.656  13.139  0.7408 -1.6113 -0.2919
17624TIP3    H274364   5.250   4.537  13.109 -1.8377  0.1726 -0.0889
17625TIP3   OH274365   6.711   6.273   2.255 -0.0385 -0.2110 -0.0881
17625TIP3    H174366   6.705   6.368   2.252  0.9575 -0.1071  0.6875
17625TIP3    H274367   6.725   6.247   2.164  0.9059  0.4939 -0.1627
17626TIP3   OH274368   6.179   0.016   2.792  0.1871 -0.0275 -0.3432
17626TIP3    H174369   6.163   0.031   2.886  0.0330 -0.4683 -0.2997
17626TIP3    H274370   6.242   0.085   2.768  1.5822 -0.9590  0.4830
17627TIP3   OH274371   3.872   0.048   2.061  0.1639 -0.4548 -0.0645
17627TIP3    H174372   3.816   0.097   2.000  3.1490  2.2710 -0.8840
17627TIP3    H274373   3.897  -0.031   2.012 -0.3121 -0.0652 -0.9765
17628TIP3   OH274374   5.376   2.079   1.602  0.5346 -0.0745 -0.1454
17628TIP3    H174375   5.301   2.048   1.652  1.0472 -0.0975  0.6222
17628TIP3    H274376   5.426   2.132   1.664  2.0331 -1.4200 -0.1461
17629TIP3   OH274377   4.757   5.946   5.847 -0.4028 -0.1074 -0.3434
17629TIP3    H174378   4.709   5.910   5.922  0.8821  0.2606  0.6916
17629TIP3    H274379   4.691   5.994   5.797 -1.4866 -1.1914 -0.0129
17630TIP3   OH274380   3.531   3.041  13.376  0.2720 -0.0571 -0.1651
17630TIP3    H174381   3.613   3.080  13.406  0.4229 -0.5926  0.1221
17630TIP3    H274382   3.511   2.974  13.440 -0.3220 -0.0273 -0.3138
17631TIP3   OH274383   3.056   5.681   1.493  0.0882  0.6817 -0.0847
17631TIP3    H174384   3.090   5.771   1.501  2.5940  0.1107 -2.4776
17631TIP3    H274385   3.002   5.684   1.414 -0.8885  0.3536  0.5685
17632TIP3   OH274386   4.936   3.413  11.092  0.0414  0.6960 -0.1274
17632TIP3    H174387   5.001   3.386  11.027  0.8613 -0.5170  1.1528
17632TIP3    H274388   4.855   3.423  11.041  0.3458 -1.4797 -1.1607
17633TIP3   OH274389   4.979   3.573  14.821  0.3407 -0.1165  0.5964
17633TIP3    H174390   5.050   3.634  14.838 -0.7062  1.6887 -1.1894
17633TIP3    H274391   5.005   3.526  14.742 -1.0988  1.8245 -1.1626
17634TIP3   OH274392   2.311   0.136  13.569 -0.1180  0.1259  0.7620
17634TIP3    H174393   2.246   0.068  13.590 -1.0190  0.6016 -0.4030
17634TIP3    H274394   2.283   0.172  13.485  2.0392 -0.0985 -0.1332
17635TIP3   OH274395   6.242   3.686   5.310 -0.0561  0.5751  0.0415
17635TIP3    H174396   6.274   3.655   5.394 -0.2682  0.2534  0.0070
17635TIP3    H274397   6.251   3.610   5.251 -0.3338  0.6561 -0.1082
17636TIP3   OH274398   2.687   2.834  11.797  0.5250  0.2028  0.4078
17636TIP3    H174399   2.650   2.807  11.713 -1.1012  2.2215  0.3943
17636TIP3    H274400   2.776   2.863  11.776  0.2943  0.2535 -0.5502
17637TIP3   OH274401   1.685   5.921  15.478  0.3400  0.0472  0.0026
17637TIP3    H174402   1.683   5.916  15.574  1.6489 -1.1995 -0.0026
17637TIP3    H274403   1.747   5.991  15.459  0.2056  0.1837  0.0697
17638TIP3   OH274404   2.794   1.583  16.273 -0.6390  0.1775  0.0522
17638TIP3    H174405   2.851   1.563  16.199  0.6428  1.1502  0.7245
17638TIP3    H274406   2.853   1.590  16.348 -1.9055 -0.8123  1.2024
17639TIP3   OH274407   4.459   2.935   5.741 -0.0798  0.2703 -0.4707
17639TIP3    H174408   4.515   2.862   5.767  1.0216  1.3715  0.2970
17639TIP3    H274409   4.458   2.994   5.816 -0.0803  1.5883 -1.4621
17640TIP3   OH274410   6.543   6.551   4.761  0.3945  0.0977 -0.1821
17640TIP3    H174411   6.554   6.578   4.669 -1.0956 -0.2996 -0.5073
17640TIP3    H274412   6.476   6.483   4.758 -0.0249  0.4123  1.2513
17641TIP3   OH274413   5.937   4.932  11.786 -0.3874  0.0085  0.0428
17641TIP3    H174414   5.881   4.883  11.846 -0.4229 -1.2096 -0.9400
17641TIP3    H274415   5.876   4.970  11.723 -0.1238 -2.0094 -1.5228
17642TIP3   OH274416   6.814   3.790  13.633  0.2474  0.0214  0.2959
17642TIP3    H174417   6.860   3.810  13.551 -1.6084 -1.9380 -1.3306
17642TIP3    H274418   6.856   3.711  13.665  0.3081  0.2240  0.7220
17643TIP3   OH274419   0.611   0.274   4.854 -0.1669 -0.1635  0.2037
17643TIP3    H174420   0.565   0.282   4.937  0.4717  0.5646  0.5055
17643TIP3    H274421   0.606   0.181   4.832 -2.1612 -0.0376 -0.0115
17644TIP3   OH274422   5.621   1.121   3.635  0.2983 -0.2344 -0.2032
17644TIP3    H174423   5.572   1.203   3.628  0.5550  0.0506  1.0410
17644TIP3    H274424   5.615   1.098   3.728  0.8636 -1.2280 -0.4027
17645TIP3   OH274425   3.306   6.035  11.791 -0.7599  0.7291 -0.3012
17645TIP3    H174426   3.308   5.997  11.704 -0.9841 -1.5484  0.6204
17645TIP3    H274427   3.391   6.015  11.829 -0.5892  1.8668 -0.0322
17646TIP3   OH274428   0.778   6.140  16.356 -0.0126 -0.4287 -0.1882
17646TIP3    H174429   0.794   6.065  16.298 -2.7557 -1.9038  0.7599
17646TIP3    H274430   0.827   6.119  16.435  2.0598  0.5846 -1.1197
17647TIP3   OH274431   3.100   0.909   3.542 -0.3346  0.7631 -0.3808
17647TIP3    H174432   3.114   0.917   3.636 -0.4634  2.0314 -0.4567
17647TIP3    H274433   3.053   0.989   3.518  3.3119  2.6195 -2.1873
17648TIP3   OH274434   5.560   0.831   2.192  0.0849 -0.4556  0.3790
17648TIP3    H174435   5.569   0.738   2.174  1.2808 -0.4945  1.1078
17648TIP3    H274436   5.470   0.852   2.167 -0.8055 -2.1810  1.9404
17649TIP3   OH274437   1.532   0.245  12.907 -0.3597 -0.2877  0.4480
17649TIP3    H174438   1.500   0.233  12.818 -0.1477  3.1985 -0.2347
17649TIP3    H274439   1.616   0.290  12.897 -0.4414  0.4160  2.3984
17650TIP3   OH274440   1.879   5.019   1.989 -0.0809  0.3218 -0.1978
17650TIP3    H174441   1.892   5.114   1.997 -0.9065  0.4306 -0.0641
17650TIP3    H274442   1.957   4.981   2.028 -0.2467  0.9422  0.7863
17651TIP3   OH274443   1.870   6.319  12.889 -0.4957  0.1198  0.7316
17651TIP3    H174444   1.785   6.319  12.844 -0.1290  0.6201  0.0360
17651TIP3    H274445   1.885   6.227  12.910 -1.9617  0.1874  2.3140
17652TIP3   OH274446   1.899   6.037  13.702 -0.0353 -0.1195 -0.3135
17652TIP3    H174447   1.935   6.103  13.643 -0.8806  1.1015  0.4886
17652TIP3    H274448   1.972   6.013  13.760  0.5653 -0.7070 -1.2895
17653TIP3   OH274449   4.802   1.678  16.574 -0.7301 -0.5786 -0.0454
17653TIP3    H174450   4.894   1.670  16.550 -0.9346 -1.3047 -0.6133
17653TIP3    H274451   4.772   1.759  16.532 -0.6051 -0.8657 -0.6968
17654TIP3   OH274452   5.763   2.831   4.906 -0.2613  0.2797  0.5456
17654TIP3    H174453   5.704   2.897   4.943 -0.3434  0.3233  0.3345
17654TIP3    H274454   5.812   2.799   4.982 -0.5136  0.2845  0.7147
17655TIP3   OH274455   5.827   4.235   5.629  0.0561  0.0440  0.1568
17655TIP3    H174456   5.885   4.201   5.561 -0.4166 -1.3609  0.4229
17655TIP3    H274457   5.745   4.254   5.584  0.1130  0.2241  0.1274
17656TIP3   OH274458   4.647   1.148  16.420  0.7654  0.7257 -0.0112
17656TIP3    H174459   4.620   1.075  16.475  1.3255 -0.2505 -1.0107
17656TIP3    H274460   4.605   1.225  16.460 -0.6459 -0.2671  0.4583
17657TIP3   OH274461   4.475   4.283  11.734 -0.6336  0.5370  0.2721
17657TIP3    H174462   4.470   4.290  11.638  1.0330  0.9222  0.1714
17657TIP3    H274463   4.408   4.344  11.766 -0.2547  1.4884 -0.6638
17658TIP3   OH274464   3.882   4.614   1.031  0.0875 -0.0409  0.9368
17658TIP3    H174465   3.966   4.591   1.071  1.8041  1.3169 -1.6065
17658TIP3    H274466   3.861   4.701   1.067  0.6888  0.3783  0.2967
17659TIP3   OH274467   6.098   0.246   1.419 -0.7755 -0.3085 -0.2284
17659TIP3    H174468   6.108   0.285   1.506  2.0237 -0.6500 -0.3302
17659TIP3    H274469   6.076   0.319   1.362  1.4802  0.6729  0.0960
17660TIP3   OH274470   2.190   3.972   2.725 -0.0856 -0.6901  0.0151
17660TIP3    H174471   2.166   4.014   2.643 -0.1156  0.6591  0.6713
17660TIP3    H274472   2.122   3.999   2.787 -0.9185 -2.9218  0.1634
17661TIP3   OH274473   4.865   6.602   2.646 -0.6430 -0.4618  0.1003
17661TIP3    H174474   4.848   6.677   2.590 -0.6233  0.3878  1.1963
17661TIP3    H274475   4.779   6.567   2.667 -0.8819  1.0291  1.8946
17662TIP3   OH274476   2.402   1.853   1.518 -0.2840  0.1489  0.1345
17662TIP3    H174477   2.420   1.815   1.604 -1.0966  0.4388  0.4400
17662TIP3    H274478   2.418   1.782   1.456 -0.8022 -0.3952  0.6190
17663TIP3   OH274479   4.482   3.748  11.539 -0.6691 -0.0862 -0.4836
17663TIP3    H174480   4.469   3.782  11.451  0.2644  0.1623 -0.5321
17663TIP3    H274481   4.575   3.728  11.544 -0.7071 -0.0911  0.4509
17664TIP3   OH274482   5.625   4.980  14.927 -0.0859  0.4374  0.3357
17664TIP3    H174483   5.694   4.948  14.869 -1.4976 -0.3121 -1.0137
17664TIP3    H274484   5.639   5.075  14.930  0.0204  0.4984 -1.2641
17665TIP3   OH274485   0.621   5.112   3.492 -0.4413  0.0099 -0.0880
17665TIP3    H174486   0.562   5.112   3.417 -0.6878  2.2481  0.0541
17665TIP3    H274487   0.709   5.106   3.454 -0.6448 -1.2683 -0.3982
17666TIP3   OH274488   2.767   5.854   0.661 -0.0518  0.3313  0.7403
17666TIP3    H174489   2.791   5.764   0.639  0.4663  0.7095 -0.3327
17666TIP3    H274490   2.841   5.887   0.711  0.2959  0.5075  0.1308
17667TIP3   OH274491   1.583   5.812  16.994 -0.3702 -0.2625  0.2125
17667TIP3    H174492   1.586   5.805  16.899  0.5178 -0.6134  0.2493
17667TIP3    H274493   1.634   5.890  17.014 -0.9000  0.0427  0.3797
17668TIP3   OH274494   0.069   5.067   1.088 -0.1765  0.4125 -0.8707
17668TIP3    H174495   0.122   5.125   1.032 -0.8046  1.0646 -0.8052
17668TIP3    H274496   0.128   5.041   1.158  0.3015  0.4626 -1.2479
17669TIP3   OH274497   5.323   3.039  14.198 -0.0126  0.2231  0.1554
17669TIP3    H174498   5.331   2.957  14.247  1.1991  1.4024  2.0346
17669TIP3    H274499   5.265   3.093  14.252  1.1472  1.4636  0.2000
17670TIP3   OH274500   2.064   0.017   4.966  0.1507  0.1735  0.0717
17670TIP3    H174501   2.157   0.019   4.943  0.5382 -0.3932  1.5125
17670TIP3    H274502   2.022   0.073   4.900  1.3843 -0.2298 -1.0914
17671TIP3   OH274503   5.449   4.838  10.551  0.5469 -0.1005  0.4216
17671TIP3    H174504   5.435   4.923  10.511  1.1027 -0.2691 -0.1539
17671TIP3    H274505   5.441   4.775  10.479  0.1187 -0.5383  0.8414
17672TIP3   OH274506   2.100   6.329   3.421 -0.0138 -0.6349 -0.0183
17672TIP3    H174507   2.083   6.332   3.515 -1.1010  0.5971 -0.2203
17672TIP3    H274508   2.080   6.239   3.396 -0.3435 -0.8039  0.8209
17673TIP3   OH274509   6.202   2.976  17.041 -0.0272 -0.0203  0.2240
17673TIP3    H174510   6.276   2.916  17.043 -0.0032 -0.1280 -1.8458
17673TIP3    H274511   6.188   2.994  16.948 -2.4785  0.1381  0.5638
17674TIP3   OH274512   5.681   6.256   4.415 -0.5580  0.2502 -0.0071
17674TIP3    H174513   5.719   6.337   4.381 -1.5732  1.3848  1.3809
17674TIP3    H274514   5.705   6.189   4.352  2.3403  1.1577 -0.0028
17675TIP3   OH274515   5.307   6.768  10.368 -0.3320  0.0404  0.2343
17675TIP3    H174516   5.322   6.856  10.403 -2.3882  0.2302  0.7690
17675TIP3    H274517   5.321   6.777  10.274  1.2215  0.4894  0.4730
17676TIP3   OH274518   1.999   2.934   0.152  0.4132  0.4558  0.4151
17676TIP3    H174519   1.994   2.839   0.161 -0.0638  0.4670  0.2513
17676TIP3    H274520   1.919   2.967   0.192 -0.4014  0.6723 -1.2996
17677TIP3   OH274521   1.877   6.440   2.263  0.1877  1.1698 -0.0438
17677TIP3    H174522   1.909   6.513   2.316  1.1299  0.9372 -0.2625
17677TIP3    H274523   1.921   6.363   2.300 -0.3179  0.8008 -0.2047
17678TIP3   OH274524   1.214   3.584   5.707 -0.0178 -0.0458  0.2134
17678TIP3    H174525   1.185   3.542   5.788  0.0317  0.3562  0.4411
17678TIP3    H274526   1.294   3.537   5.683 -0.5219 -0.7673 -0.0963
17679TIP3   OH274527   2.264   1.103   5.627  0.0161  0.6784 -0.4489
17679TIP3    H174528   2.276   1.188   5.584  0.8959  1.4158  1.1517
17679TIP3    H274529   2.325   1.045   5.583  0.5526  1.2825 -0.5114
17680TIP3   OH274530   5.596   1.516  10.289 -0.6269  0.0574 -0.2381
17680TIP3    H174531   5.576   1.570  10.365  3.4689  0.6407  0.6891
17680TIP3    H274532   5.627   1.433  10.326 -1.1950 -0.7244 -1.4379
17681TIP3   OH274533   0.739   2.531   2.389 -0.0875  0.3025 -0.4129
17681TIP3    H174534   0.763   2.586   2.314 -2.0191 -0.7862 -1.9128
17681TIP3    H274535   0.713   2.448   2.350 -1.3493 -0.2336  1.4625
17682TIP3   OH274536   6.056   3.979  16.420  0.3976  0.0015  0.1971
17682TIP3    H174537   5.980   3.934  16.383  0.4914 -0.1378  0.1752
17682TIP3    H274538   6.112   3.997  16.344  1.0708 -1.1926  0.3965
17683TIP3   OH274539   2.304   1.269   4.416  0.1260  0.3176 -0.8944
17683TIP3    H174540   2.361   1.192   4.417 -2.8337 -2.1282  1.9180
17683TIP3    H274541   2.342   1.326   4.349  3.5292 -2.7543 -1.9125
17684TIP3   OH274542   6.281   0.786  10.970  0.2064 -0.4754  0.1100
17684TIP3    H174543   6.272   0.697  10.936 -0.2645 -0.7914  1.0311
17684TIP3    H274544   6.199   0.830  10.945  0.9623  0.1322 -1.4961
17685TIP3   OH274545   5.446   0.817  12.045  0.5688  0.2423  0.3196
17685TIP3    H174546   5.536   0.817  12.011  0.7960 -0.3215  0.8968
17685TIP3    H274547   5.450   0.874  12.122  0.5841 -0.2565  0.6984
17686TIP3   OH274548   2.820   3.250   2.391  0.2617 -0.2196  0.5769
17686TIP3    H174549   2.883   3.223   2.458  0.2879  1.2164  1.1839
17686TIP3    H274550   2.864   3.320   2.343 -0.5071  0.1698  0.4086
17687TIP3   OH274551   5.962   1.674  15.774  0.2711 -0.0068 -0.0434
17687TIP3    H174552   5.950   1.581  15.794 -0.1730  0.0507 -0.0222
17687TIP3    H274553   5.917   1.720  15.845  2.8330  0.2961  1.4732
17688TIP3   OH274554   1.722   0.613  13.997 -1.0275  0.4092 -0.1061
17688TIP3    H174555   1.804   0.611  13.948 -0.7312  3.0683  0.1237
17688TIP3    H274556   1.654   0.597  13.931 -0.4829  1.2764 -0.9013
17689TIP3   OH274557   3.280   0.196  12.682  0.4825 -0.4866  0.0224
17689TIP3    H174558   3.298   0.282  12.645  0.8058 -0.2347  0.7515
17689TIP3    H274559   3.280   0.137  12.607  2.4111 -0.1966 -0.2567
17690TIP3   OH274560   1.907   2.382   1.081  0.3574  0.0284 -0.1108
17690TIP3    H174561   1.823   2.426   1.072 -0.4696 -0.9164  2.2839
17690TIP3    H274562   1.885   2.291   1.100  1.9814 -0.6741 -1.3534
17691TIP3   OH274563   4.042   1.460  12.819  0.5372  0.1382 -0.3053
17691TIP3    H174564   4.009   1.388  12.872  0.9865 -0.4433 -0.7901
17691TIP3    H274565   4.062   1.530  12.882  3.1346 -1.3041  0.6253
17692TIP3   OH274566   6.044   5.407   6.085  0.2318  0.6816 -0.1940
17692TIP3    H174567   6.028   5.322   6.127  0.5229  0.7489  0.0575
17692TIP3    H274568   5.961   5.453   6.091 -0.9876 -0.8598 -3.3506
17693TIP3   OH274569   4.274   2.814   0.469  0.1990 -0.2762  0.1561
17693TIP3    H174570   4.257   2.889   0.413  0.8219  0.5574  1.0589
17693TIP3    H274571   4.187   2.788   0.501 -0.4316 -1.9554 -2.6010
17694TIP3   OH274572   2.522   6.400  15.189 -0.5296 -0.5135 -0.3277
17694TIP3    H174573   2.541   6.354  15.270 -1.9754 -2.7040 -1.1437
17694TIP3    H274574   2.436   6.441  15.205  1.4286  3.6554  1.0042
17695TIP3   OH274575   4.354   2.911   2.387  0.1089  0.1788 -0.2166
17695TIP3    H174576   4.375   2.864   2.467  0.2265  0.2931 -0.1796
17695TIP3    H274577   4.429   2.897   2.329  1.0379  1.8575  0.4812
17696TIP3   OH274578   1.473   5.886  15.776  0.8720  0.2447  0.3881
17696TIP3    H174579   1.567   5.893  15.761  1.0153 -0.2975  0.9913
17696TIP3    H274580   1.457   5.941  15.853  0.7977 -0.1190  0.6376
17697TIP3   OH274581   1.982   4.887   3.985 -0.0338  0.5984 -0.1213
17697TIP3    H174582   2.028   4.824   3.930  1.0226  0.1506  1.2221
17697TIP3    H274583   1.985   4.969   3.936  0.6849  0.1556 -0.8264
17698TIP3   OH274584   0.931   4.272  12.041  0.5508 -0.0100  0.1183
17698TIP3    H174585   0.895   4.342  11.986  1.3091  0.1458 -0.1858
17698TIP3    H274586   0.996   4.314  12.096  0.7858 -0.4191  0.1607
17699TIP3   OH274587   3.149   4.038   5.611  0.3370  0.2514 -0.1648
17699TIP3    H174588   3.075   3.999   5.564 -0.5768  0.6490  0.9028
17699TIP3    H274589   3.171   3.973   5.678  0.7622  0.2756 -0.2799
17700TIP3   OH274590   2.689   6.642  15.204  0.0069 -0.6716 -0.0553
17700TIP3    H174591   2.672   6.549  15.190 -0.9122 -0.7126  1.1358
17700TIP3    H274592   2.753   6.666  15.137 -0.5448 -1.9098 -1.0563
17701TIP3   OH274593   1.478   0.447   2.765 -0.3021  0.0440  0.1044
17701TIP3    H174594   1.558   0.432   2.713  0.6094  1.2619  1.0949
17701TIP3    H274595   1.428   0.365   2.756  1.9350 -1.5375  0.9943
17702TIP3   OH274596   5.624   2.805   3.426  0.4769  0.5467 -0.2202
17702TIP3    H174597   5.571   2.853   3.490  1.8819  1.6324  0.1826
17702TIP3    H274598   5.690   2.760   3.478  0.5610  0.0076 -0.7807
17703TIP3   OH274599   3.745   5.462   5.402  0.0913 -0.3214 -0.1303
17703TIP3    H174600   3.837   5.465   5.377  0.8136 -1.7885  2.1341
17703TIP3    H274601   3.707   5.392   5.348  0.5338 -0.4085 -0.3279
17704TIP3   OH274602   5.691   5.827   1.082  0.7075 -0.1655  0.1571
17704TIP3    H174603   5.618   5.765   1.073  0.1394  0.7279 -2.1229
17704TIP3    H274604   5.726   5.810   1.169 -1.4816 -1.4449  0.8789
17705TIP3   OH274605   1.580   1.316  12.419  0.4364  0.0687 -0.4371
17705TIP3    H174606   1.571   1.291  12.511 -1.8709 -0.1963 -0.6621
17705TIP3    H274607   1.596   1.234  12.372  2.5900  0.3156 -0.2285
17706TIP3   OH274608   3.978   0.408  14.527 -0.0282 -0.5338 -0.1525
17706TIP3    H174609   3.908   0.350  14.557 -0.7517  0.5081  0.2333
17706TIP3    H274610   3.976   0.402  14.431 -1.4410  0.3672 -0.2044
17707TIP3   OH274611   6.229   1.113  12.900  0.1124  0.5437 -0.0207
17707TIP3    H174612   6.142   1.074  12.917 -0.1276  0.2148 -1.7800
17707TIP3    H274613   6.260   1.067  12.822  2.0645  0.3870  0.8085
17708TIP3   OH274614   1.409   6.409   2.764 -0.2631 -0.8871 -0.3818
17708TIP3    H174615   1.326   6.402   2.813 -0.1003 -0.5140 -0.0462
17708TIP3    H274616   1.471   6.443   2.828 -0.0353 -0.4323 -0.8412
17709TIP3   OH274617   5.804   0.624   2.630  0.3408 -0.0330  1.0538
17709TIP3    H174618   5.797   0.698   2.569 -1.3555 -1.0363 -0.0690
17709TIP3    H274619   5.764   0.657   2.711 -0.9219  0.1507  0.3886
17710TIP3   OH274620   4.664   4.300  13.483  0.2535  0.3791 -1.0020
17710TIP3    H174621   4.573   4.296  13.452 -0.2568 -0.7775  0.4948
17710TIP3    H274622   4.716   4.306  13.403 -1.1348  1.0752 -1.8942
17711TIP3   OH274623   2.309   6.729   2.105  0.1292  0.2029 -0.4988
17711TIP3    H174624   2.296   6.802   2.044  1.7747  0.2604 -0.8141
17711TIP3    H274625   2.274   6.760   2.188 -0.3735  0.8460 -0.9387
17712TIP3   OH274626   3.301   1.428   0.184  0.1355 -0.1548 -0.0291
17712TIP3    H174627   3.286   1.501   0.244 -1.5355 -1.4836  1.2424
17712TIP3    H274628   3.228   1.432   0.122  0.5920 -0.1720 -0.5804
17713TIP3   OH274629   0.191   0.784   6.243  0.2776 -0.2926  0.3041
17713TIP3    H174630   0.113   0.832   6.273 -0.9695 -2.4681  0.7132
17713TIP3    H274631   0.172   0.763   6.152 -0.8595 -3.0498  1.0941
17714TIP3   OH274632   4.941   6.654   2.018 -0.3314 -0.3032  0.4969
17714TIP3    H174633   4.958   6.745   1.996 -0.5540 -0.2294  0.6266
17714TIP3    H274634   4.888   6.621   1.945  0.3554 -0.5317  0.0955
17715TIP3   OH274635   3.742   0.611  16.329  0.3996 -0.0372  0.4286
17715TIP3    H174636   3.665   0.654  16.293  1.6734  1.7853 -0.2585
17715TIP3    H274637   3.737   0.521  16.297 -0.5020  0.5290 -1.1056
17716TIP3   OH274638   5.050   5.497  16.588 -0.2311 -0.2447  0.3441
17716TIP3    H174639   5.084   5.443  16.659  2.2388  0.6633 -0.0366
17716TIP3    H274640   4.959   5.516  16.613 -0.5703 -2.8596  1.4408
17717TIP3   OH274641   1.139   4.132  12.646  0.9785 -0.3739 -0.4606
17717TIP3    H174642   1.136   4.200  12.713  0.2092 -2.4817  1.8095
17717TIP3    H274643   1.102   4.174  12.568 -0.5222  1.5087  1.1291
17718TIP3   OH274644   2.221   6.410  13.462 -0.0907  1.0365  0.2340
17718TIP3    H174645   2.301   6.373  13.426  0.0438  0.9134  0.6459
17718TIP3    H274646   2.185   6.464  13.392 -1.8786 -2.1534 -1.5437
17719TIP3   OH274647   2.475   0.966   0.196  0.0561 -0.3824  0.8600
17719TIP3    H174648   2.513   0.971   0.108 -0.6056  0.2839  0.6031
17719TIP3    H274649   2.488   0.874   0.222  0.3973 -0.5494  0.1318
17720TIP3   OH274650   1.541   6.718  11.709 -0.5353 -0.0991  0.0964
17720TIP3    H174651   1.605   6.745  11.775 -1.5770 -0.3500  1.2412
17720TIP3    H274652   1.555   6.778  11.636  0.9594 -0.1130  0.3369
17721TIP3   OH274653   2.960   1.437   5.493 -0.3590  0.2731 -0.6369
17721TIP3    H174654   2.882   1.484   5.464 -2.6022 -1.4365  2.0666
17721TIP3    H274655   2.938   1.344   5.481  0.6153 -0.2968  1.4754
17722TIP3   OH274656   6.787   1.998  16.682 -0.0576  0.0694 -1.0677
17722TIP3    H174657   6.834   1.994  16.599 -0.8701 -0.3442 -1.5281
17722TIP3    H274658   6.808   2.084  16.719 -1.0934  1.0084 -2.5657
17723TIP3   OH274659   2.920   5.547   2.694 -0.1152  0.5080 -0.3428
17723TIP3    H174660   2.869   5.619   2.657  2.2876  1.4999 -1.9837
17723TIP3    H274661   2.974   5.516   2.622  0.5268 -1.4902  0.9200
17724TIP3   OH274662   6.693   2.193  11.823  0.6240  0.2221  0.2924
17724TIP3    H174663   6.694   2.287  11.805  0.2346  0.2117  0.1958
17724TIP3    H274664   6.774   2.160  11.785  0.5949  0.4642  0.0169
17725TIP3   OH274665   3.595   5.099   0.579 -0.0367 -0.5951 -0.2729
17725TIP3    H174666   3.568   5.120   0.668 -0.4684 -2.5216  0.0896
17725TIP3    H274667   3.515   5.109   0.527  0.5916  2.2601 -0.8271
17726TIP3   OH274668   3.813   3.338  15.891  0.0836  0.5291 -0.2278
17726TIP3    H174669   3.865   3.357  15.812  1.4938 -2.5307 -0.1789
17726TIP3    H274670   3.747   3.407  15.893  1.6849  2.3140 -2.5423
17727TIP3   OH274671   2.827   3.188   0.559 -0.2955  0.1307  0.0257
17727TIP3    H174672   2.803   3.242   0.484  1.8617  2.5579  0.9165
17727TIP3    H274673   2.920   3.206   0.573 -0.3884 -0.9776  2.6906
17728TIP3   OH274674   1.294   5.093   0.617  0.1752  0.5848 -0.0485
17728TIP3    H174675   1.257   5.161   0.561  0.7264  0.4402 -0.5900
17728TIP3    H274676   1.281   5.126   0.706  0.1775  1.2593 -0.2950
17729TIP3   OH274677   3.325   2.148  12.424  0.3749 -0.2244 -0.1105
17729TIP3    H174678   3.403   2.203  12.419 -0.2907  0.8249  0.4604
17729TIP3    H274679   3.252   2.211  12.429 -0.6123 -1.1670 -1.7962
17730TIP3   OH274680   0.887   1.741  13.129 -0.1364 -0.1050  0.2847
17730TIP3    H174681   0.858   1.725  13.219  0.6518  1.1061  0.7815
17730TIP3    H274682   0.925   1.829  13.132 -0.7652  0.2474 -1.4031
17731TIP3   OH274683   0.744   3.315   5.091  0.1144 -0.3133  0.0988
17731TIP3    H174684   0.807   3.358   5.149  1.6521 -1.1108 -0.9089
17731TIP3    H274685   0.663   3.364   5.104  0.1951 -0.8181  3.3277
17732TIP3   OH274686   6.837   4.946  11.456 -0.4910  0.4763  0.1079
17732TIP3    H174687   6.804   4.866  11.495 -0.5253  0.2603 -0.3634
17732TIP3    H274688   6.762   5.005  11.455 -0.3297  0.7234  0.9741
17733TIP3   OH274689   0.448   2.733  13.093  0.0134 -0.5287 -0.1959
17733TIP3    H174690   0.483   2.821  13.103  0.1909 -0.7546  1.3445
17733TIP3    H274691   0.482   2.703  13.009  0.8447  0.4656 -0.2298
17734TIP3   OH274692   4.284   1.943  13.370  0.0631  0.1976 -0.1298
17734TIP3    H174693   4.297   2.024  13.321 -2.5253  1.0767  0.5171
17734TIP3    H274694   4.258   1.878  13.304  0.2168  0.3803 -0.3727
17735TIP3   OH274695   4.648   0.904  13.310 -0.0234 -0.2284  0.2698
17735TIP3    H174696   4.554   0.906  13.326 -0.1048 -1.7193  0.1110
17735TIP3    H274697   4.659   0.846  13.235  0.8082  2.4154 -1.8303
17736TIP3   OH274698   0.574   3.722  16.356  0.2172 -0.7492 -0.2031
17736TIP3    H174699   0.643   3.785  16.334  0.2656 -1.1358 -1.2006
17736TIP3    H274700   0.568   3.665  16.279 -1.5052 -0.4641 -0.3121
17737TIP3   OH274701   4.938   4.280  13.339  0.6140  0.3356 -0.3368
17737TIP3    H174702   4.984   4.205  13.376 -0.9188 -0.7590 -0.5514
17737TIP3    H274703   4.942   4.346  13.408 -0.2867 -0.8946  0.9708
17738TIP3   OH274704   5.060   2.775  10.921  0.1481 -0.2498  0.1125
17738TIP3    H174705   5.060   2.803  10.829 -0.5010  1.0078  0.4728
17738TIP3    H274706   5.036   2.683  10.918 -1.0416  0.0699 -0.9148
17739TIP3   OH274707   3.546   0.560  11.402 -0.0736  0.1674  0.5065
17739TIP3    H174708   3.500   0.513  11.472  0.5650  0.1214  0.9061
17739TIP3    H274709   3.573   0.493  11.340  1.5145 -0.1186  1.4631
17740TIP3   OH274710   6.761   3.710   2.430  0.3195 -0.0327  0.1186
17740TIP3    H174711   6.781   3.803   2.421 -0.9549  0.3572  0.9791
17740TIP3    H274712   6.683   3.707   2.486  0.6971 -1.6544  0.6214
17741TIP3   OH274713   1.339   0.741  13.281  0.5656 -0.6478 -0.3971
17741TIP3    H174714   1.250   0.775  13.273 -0.5380 -2.5535  2.4003
17741TIP3    H274715   1.395   0.819  13.274 -1.4869  1.0032  0.4458
17742TIP3   OH274716   1.593   0.780   4.830  0.6035 -0.1060  0.3459
17742TIP3    H174717   1.607   0.729   4.910  1.6867  1.0358  0.9281
17742TIP3    H274718   1.510   0.825   4.845  0.3677 -0.5628  0.4460
17743TIP3   OH274719   5.871   1.779  16.037 -0.0354  0.1487 -0.5057
17743TIP3    H174720   5.948   1.763  16.091  0.5694  2.7893 -0.4142
17743TIP3    H274721   5.821   1.846  16.085 -0.7334  0.7964 -2.0346
17744TIP3   OH274722   6.247   2.658  16.263 -0.7032  0.6865 -0.2771
17744TIP3    H174723   6.161   2.639  16.225 -1.1344  0.4609  0.7514
17744TIP3    H274724   6.228   2.677  16.355  0.6721 -2.6724  0.8434
17745TIP3   OH274725   1.683   1.824   1.612 -0.1592 -0.9959  0.4635
17745TIP3    H174726   1.597   1.865   1.618 -0.8430 -2.4060  0.8179
17745TIP3    H274727   1.694   1.779   1.696  0.9014 -0.8911  0.3964
17746TIP3   OH274728   5.313   0.135   5.768  0.1431  0.5427 -0.0873
17746TIP3    H174729   5.405   0.146   5.744 -0.2730 -0.0847 -2.1768
17746TIP3    H274730   5.307   0.173   5.856  2.3189  0.8570 -0.0013
17747TIP3   OH274731   5.671   1.086   0.554 -0.4849 -0.4121  0.3656
17747TIP3    H174732   5.748   1.032   0.537  1.6468  2.2511  0.9422
17747TIP3    H274733   5.669   1.148   0.482 -1.0432  0.6582  1.2725
17748TIP3   OH274734   6.050   1.855  15.428 -0.2462 -0.5286 -0.2096
17748TIP3    H174735   5.955   1.854  15.420 -0.2438 -1.3265 -0.2812
17748TIP3    H274736   6.077   1.940  15.393 -0.9219 -0.3355 -0.2718
17749TIP3   OH274737   5.423   2.482   5.180 -0.3210  0.4312  0.1576
17749TIP3    H174738   5.390   2.398   5.149 -3.1592  1.2909  0.5231
17749TIP3    H274739   5.425   2.538   5.102 -0.1745  0.5154  0.2214
17750TIP3   OH274740   6.181   4.265  14.083 -0.2867  0.2155 -0.0271
17750TIP3    H174741   6.238   4.208  14.031  0.4726 -0.2003  1.1964
17750TIP3    H274742   6.126   4.309  14.019  0.6883 -0.1709 -1.1790
17751TIP3   OH274743   2.826   1.014  12.385  0.8945 -0.2809 -0.2008
17751TIP3    H174744   2.846   1.074  12.314  1.3183  2.5638  2.1385
17751TIP3    H274745   2.907   0.966  12.400  1.8117  1.3870  0.3703
17752TIP3   OH274746   4.281   5.353  14.551  0.0143  0.0336  0.4430
17752TIP3    H174747   4.289   5.429  14.493 -0.7129 -0.4328 -0.2953
17752TIP3    H274748   4.308   5.385  14.637  0.1322  1.0131  0.0520
17753TIP3   OH274749   0.704   2.262   1.419 -0.0284  0.0161  0.0592
17753TIP3    H174750   0.750   2.345   1.407  1.2412 -0.6413  0.2472
17753TIP3    H274751   0.614   2.280   1.392 -0.1528  1.8544  1.5468
17754TIP3   OH274752   5.193   2.841  17.091 -0.3290 -0.2454 -0.5666
17754TIP3    H174753   5.105   2.855  17.055 -1.1777 -4.3951 -0.6373
17754TIP3    H274754   5.252   2.874  17.023 -1.8238  0.8038 -1.4175
17755TIP3   OH274755   1.323   1.910  10.907  0.3270  0.1143 -0.2426
17755TIP3    H174756   1.367   1.830  10.876 -0.7213 -0.7512  0.4456
17755TIP3    H274757   1.387   1.979  10.892  2.0028 -1.1129  0.8171
17756TIP3   OH274758   1.253   4.100   2.963  0.1191  0.0950 -0.6959
17756TIP3    H174759   1.242   4.026   2.903  0.6317  0.5466 -1.3563
17756TIP3    H274760   1.289   4.061   3.043  0.2199 -0.3956 -0.9771
17757TIP3   OH274761   2.910   1.227   1.820  0.1200 -0.4225  0.3392
17757TIP3    H174762   2.862   1.243   1.738 -1.3742  0.8822  1.3847
17757TIP3    H274763   3.002   1.228   1.795 -0.2319  1.4261 -1.1370
17758TIP3   OH274764   6.594   0.015   2.830  0.3871 -0.5843  0.6075
17758TIP3    H174765   6.517   0.055   2.790  1.0683 -0.4947 -0.6611
17758TIP3    H274766   6.668   0.065   2.796  1.0415 -0.8679  1.5619
17759TIP3   OH274767   2.381   1.989   6.924  0.2840 -0.4602  0.2510
17759TIP3    H174768   2.348   2.078   6.939 -0.5956 -0.0628 -3.1735
17759TIP3    H274769   2.473   2.000   6.900  0.3469 -0.5420  0.4542
17760TIP3   OH274770   3.409   1.498  15.711  0.3953 -0.3498  0.3981
17760TIP3    H174771   3.417   1.581  15.665  1.0672  0.0208  1.1506
17760TIP3    H274772   3.340   1.450  15.665 -0.1374  0.7070  0.0836
17761TIP3   OH274773   3.536   4.574   0.305 -0.0625  0.0338  0.2569
17761TIP3    H174774   3.623   4.583   0.341  0.6802 -0.8112 -1.2039
17761TIP3    H274775   3.505   4.489   0.337  0.5266 -0.6366 -0.8991
17762TIP3   OH274776   6.397   6.746   0.922  0.1535 -0.6635  0.1707
17762TIP3    H174777   6.309   6.733   0.955  0.3081 -0.6370  0.5938
17762TIP3    H274778   6.446   6.784   0.995  0.6707 -1.2509  0.1450
17763TIP3   OH274779   5.381   3.939  11.815  0.6326 -0.0811 -0.5592
17763TIP3    H174780   5.292   3.975  11.807  0.7665  0.3125 -0.2937
17763TIP3    H274781   5.421   3.957  11.729  0.4832 -0.1845 -0.6511
17764TIP3   OH274782   5.073   1.691   0.957 -0.2112 -0.1674 -0.2303
17764TIP3    H174783   5.129   1.765   0.934 -2.7379  1.5332 -1.3117
17764TIP3    H274784   4.984   1.724   0.950 -1.4455 -2.8568  0.9842
17765TIP3   OH274785   0.767   2.238   2.414 -0.0096 -0.1884  0.2891
17765TIP3    H174786   0.699   2.185   2.456  0.0140 -0.4800 -0.0305
17765TIP3    H274787   0.729   2.261   2.329  0.2409 -0.2468  0.1614
17766TIP3   OH274788   6.806   5.231  11.305  0.3954 -0.5309 -0.4431
17766TIP3    H174789   6.738   5.293  11.332  1.4402 -0.1771  1.5315
17766TIP3    H274790   6.797   5.226  11.210 -1.0308  1.0941 -0.4454
17767TIP3   OH274791   5.823   3.893  17.069  0.4508  0.5222  0.4506
17767TIP3    H174792   5.758   3.956  17.101 -0.0678  0.1906  0.0709
17767TIP3    H274793   5.778   3.846  16.999  1.7119  1.5369 -1.1056
17768TIP3   OH274794   4.672   4.355   0.342  0.3519  0.1790  0.1759
17768TIP3    H174795   4.733   4.426   0.324  0.7230 -0.1966 -0.0710
17768TIP3    H274796   4.686   4.334   0.434  0.6656  0.0324  0.0961
17769TIP3   OH274797   0.922   1.787  13.446  0.5071 -0.0776  0.6365
17769TIP3    H174798   0.931   1.693  13.429  0.3213 -0.1550  0.9585
17769TIP3    H274799   0.887   1.792  13.535 -0.0940  0.2833  0.3875
17770TIP3   OH274800   0.081   1.301   2.320  0.2586 -0.0704 -0.5521
17770TIP3    H174801   0.043   1.349   2.394  1.7050  0.1614  0.0807
17770TIP3    H274802   0.036   1.217   2.320  0.0549  0.0259  0.4452
17771TIP3   OH274803   1.066   2.380  11.835  0.1224 -0.9691 -0.4384
17771TIP3    H174804   1.034   2.374  11.925 -2.7617  0.8552 -1.2165
17771TIP3    H274805   1.148   2.428  11.842  1.9652 -4.0698  1.4759
17772TIP3   OH274806   2.212   1.228   6.531  0.4200 -0.4581 -0.5131
17772TIP3    H174807   2.186   1.316   6.558  0.2071 -1.2683  2.2463
17772TIP3    H274808   2.289   1.242   6.476  0.5669  1.4332  0.0974
17773TIP3   OH274809   2.230   1.454  13.263 -0.2891  0.0021  0.4265
17773TIP3    H174810   2.258   1.414  13.181 -0.1733 -0.5947  0.7522
17773TIP3    H274811   2.269   1.541  13.262 -0.6733  0.1807 -0.3635
17774TIP3   OH274812   5.474   5.937   6.434 -0.3278 -0.0848 -0.3631
17774TIP3    H174813   5.421   6.014   6.414 -0.1428 -0.0175 -0.5968
17774TIP3    H274814   5.459   5.921   6.527 -0.4511  0.1675 -0.3384
17775TIP3   OH274815   0.692   2.018  13.785 -0.5007 -0.7652  0.2093
17775TIP3    H174816   0.609   1.996  13.742 -0.2793  0.8796 -1.1492
17775TIP3    H274817   0.666   2.070  13.861 -0.7293  0.8632 -0.9234
17776TIP3   OH274818   3.059   0.931  13.809  0.0345 -0.1590  0.1581
17776TIP3    H174819   3.043   0.908  13.718  0.7745  1.1292 -0.3300
17776TIP3    H274820   3.153   0.948  13.814 -0.0983  0.4436  0.9902
17777TIP3   OH274821   3.508   6.500   4.101 -0.5706  0.0469 -0.5464
17777TIP3    H174822   3.532   6.466   4.014 -0.4624  0.6321 -0.7493
17777TIP3    H274823   3.548   6.587   4.104 -0.4548 -0.0276  0.1490
17778TIP3   OH274824   6.555   2.472  16.491  0.2762  0.4154 -0.8540
17778TIP3    H174825   6.541   2.389  16.446 -1.6348  0.4571 -0.4444
17778TIP3    H274826   6.558   2.449  16.584  0.9599  0.6752 -0.8091
17779TIP3   OH274827   4.680   6.428  14.605  0.0540 -0.0088  0.0866
17779TIP3    H174828   4.613   6.360  14.619  1.1476 -0.8741  1.3411
17779TIP3    H274829   4.683   6.475  14.688  0.1308  0.8343 -0.3926
17780TIP3   OH274830   5.559   4.970   4.111 -0.3578  0.1308 -0.2351
17780TIP3    H174831   5.551   4.992   4.018 -1.5261  1.4233  0.1315
17780TIP3    H274832   5.487   4.911   4.129 -0.7409  0.6707  0.0471
17781TIP3   OH274833   1.980   0.494   2.264  0.0441  0.1927 -0.4161
17781TIP3    H174834   2.012   0.579   2.235 -0.8866  0.7913  0.2307
17781TIP3    H274835   1.909   0.473   2.203  1.2840 -0.8759 -1.5263
17782TIP3   OH274836   6.400   5.875  13.697 -0.4533  0.0714 -0.5628
17782TIP3    H174837   6.415   5.948  13.636 -3.6358 -0.4616 -2.2022
17782TIP3    H274838   6.486   5.834  13.706  1.0155  2.7517 -1.2370
17783TIP3   OH274839   4.662   0.015  13.591  0.1170  0.0288 -0.2757
17783TIP3    H174840   4.588   0.011  13.532 -0.4470 -0.4550  0.4438
17783TIP3    H274841   4.623   0.017  13.679  0.8245  2.9119  0.0880
17784TIP3   OH274842   6.038   5.361  11.095 -0.0346  0.2977 -0.0611
17784TIP3    H174843   6.042   5.267  11.079 -0.4344  0.6584 -2.5477
17784TIP3    H274844   6.129   5.390  11.091  0.0273  0.1279  0.0835
17785TIP3   OH274845   2.675   6.729  14.869  0.7709  0.5832 -0.1261
17785TIP3    H174846   2.765   6.743  14.900  1.5055  3.8067 -3.0732
17785TIP3    H274847   2.626   6.803  14.904  0.0524  0.5904 -1.0956
17786TIP3   OH274848   0.886   5.024   5.925  0.6130  0.2024  0.1748
17786TIP3    H174849   0.874   5.048   6.017 -1.6480 -1.0939  0.3088
17786TIP3    H274850   0.963   5.073   5.897 -0.4942  3.1772  1.8647
17787TIP3   OH274851   3.761   5.268   4.883 -0.0542  0.0262  0.5531
17787TIP3    H174852   3.769   5.186   4.932  1.7983  0.5165  1.1614
17787TIP3    H274853   3.824   5.260   4.812 -1.4246  0.0651 -0.7077
17788TIP3   OH274854   0.143   5.914  12.152 -0.1785  0.1538 -0.3966
17788TIP3    H174855   0.156   6.008  12.161 -1.0693  0.2970 -0.4858
17788TIP3    H274856   0.179   5.893  12.066  2.6195 -0.1110  0.7615
17789TIP3   OH274857   3.711   4.455  12.169  0.1923 -0.1273 -0.3681
17789TIP3    H174858   3.788   4.463  12.226  0.1703 -0.8861 -0.2193
17789TIP3    H274859   3.713   4.363  12.140 -1.2752 -0.4608  0.5131
17790TIP3   OH274860   6.651   2.210  12.671 -0.3279  0.3902  0.7464
17790TIP3    H174861   6.640   2.129  12.621 -0.6631  1.3064 -0.7450
17790TIP3    H274862   6.669   2.276  12.604 -1.3109  1.7876  1.8119
17791TIP3   OH274863   2.648   4.862   1.256  0.0281 -0.2492  0.4223
17791TIP3    H174864   2.680   4.951   1.263  0.6398 -0.3829 -0.4858
17791TIP3    H274865   2.638   4.847   1.162  1.5097 -1.6571  0.4361
17792TIP3   OH274866   4.915   3.201   0.641 -0.8045 -0.3126  0.1556
17792TIP3    H174867   4.988   3.152   0.604 -0.9666 -0.6622  0.2938
17792TIP3    H274868   4.862   3.135   0.686 -1.5318 -0.1580 -0.4537
17793TIP3   OH274869   2.626   5.656  16.888 -0.1282  0.1554 -0.1229
17793TIP3    H174870   2.552   5.656  16.949 -0.0814 -0.1690 -0.0642
17793TIP3    H274871   2.605   5.586  16.826  0.2166 -0.0603  0.0038
17794TIP3   OH274872   4.604   2.374  10.944 -0.0936 -0.3462 -0.2109
17794TIP3    H174873   4.565   2.450  10.988 -0.3448 -0.2605 -0.5765
17794TIP3    H274874   4.676   2.347  11.001  0.5520  0.6991 -0.5085
17795TIP3   OH274875   3.188   2.153  11.929  0.2800  0.1488  0.2305
17795TIP3    H174876   3.212   2.082  11.871 -1.4174 -0.1391 -0.1855
17795TIP3    H274877   3.168   2.111  12.013 -2.8485 -0.2556 -0.5957
17796TIP3   OH274878   6.439   0.563  11.588  0.2005  0.6457 -0.0230
17796TIP3    H174879   6.462   0.473  11.612  1.1146  0.8553 -0.0540
17796TIP3    H274880   6.439   0.611  11.671 -2.4979  0.1903  0.3005
17797TIP3   OH274881   2.049   6.271   2.960 -0.0641  0.2619  0.2781
17797TIP3    H174882   2.059   6.335   3.030 -1.6389  0.2336  0.5797
17797TIP3    H274883   2.086   6.313   2.883  1.4146  0.4166  1.0466
17798TIP3   OH274884   3.921   3.492   2.181  0.1533 -0.1199 -0.1333
17798TIP3    H174885   3.892   3.583   2.191  1.0566  0.3716 -1.6114
17798TIP3    H274886   3.852   3.440   2.221 -1.0046  1.1611 -0.3920
17799TIP3   OH274887   2.617   1.053   0.954 -0.0450  0.1309 -0.3486
17799TIP3    H174888   2.545   1.117   0.959 -0.2480 -0.0900 -0.4025
17799TIP3    H274889   2.572   0.968   0.948  0.1534 -0.3114  2.6982
17800TIP3   OH274890   2.243   0.447  15.480 -0.0728 -0.1567  0.2403
17800TIP3    H174891   2.211   0.429  15.568 -2.5442  1.2522 -0.3056
17800TIP3    H274892   2.208   0.376  15.426 -1.5084  0.8321 -0.1763
17801TIP3   OH274893   0.807   3.037   6.053  0.3301 -0.1737  0.1997
17801TIP3    H174894   0.720   3.072   6.073 -0.8289 -1.1068 -2.6713
17801TIP3    H274895   0.801   2.944   6.076  2.0572  0.4753  3.9295
17802TIP3   OH274896   6.338   6.742  10.591  0.7104  0.6359 -0.4339
17802TIP3    H174897   6.387   6.692  10.656  1.0041  0.0388 -1.0926
17802TIP3    H274898   6.390   6.735  10.511 -0.7448 -0.6114 -1.3508
17803TIP3   OH274899   2.584   1.420  16.376 -0.1059 -0.2495  0.6829
17803TIP3    H174900   2.552   1.479  16.444  0.1316 -2.1171  2.5027
17803TIP3    H274901   2.632   1.477  16.315 -0.2743  1.4820  2.0992
17804TIP3   OH274902   6.325   5.481   5.074 -0.2407 -0.3367 -0.0182
17804TIP3    H174903   6.289   5.552   5.127  1.3091  1.3488 -1.0775
17804TIP3    H274904   6.249   5.436   5.039 -1.2759  0.1444  1.4934
17805TIP3   OH274905   3.291   6.256  12.688  0.4046 -0.0147  0.0473
17805TIP3    H174906   3.208   6.300  12.704 -0.5184 -1.5240 -0.3123
17805TIP3    H274907   3.357   6.325  12.693 -0.7385  1.0189  1.4979
17806TIP3   OH274908   4.236   2.810   5.252  0.3661 -0.0324 -0.5834
17806TIP3    H174909   4.263   2.880   5.192 -1.0668  0.4371 -0.7240
17806TIP3    H274910   4.234   2.851   5.338 -1.6401  0.4876 -0.8262
17807TIP3   OH274911   2.324   4.572   5.084 -0.0517 -0.0371  0.8492
17807TIP3    H174912   2.233   4.564   5.057  0.3472  0.3363 -0.7049
17807TIP3    H274913   2.320   4.608   5.173 -1.3995  0.9058  0.4386
17808TIP3   OH274914   5.889   2.030  16.850 -0.0491  0.0851 -0.5198
17808TIP3    H174915   5.810   1.980  16.869  1.1908 -1.5543  0.5740
17808TIP3    H274916   5.942   1.973  16.795  0.8814  0.6506 -0.2420
17809TIP3   OH274917   1.245   3.015  14.674 -0.2605 -0.6215 -0.1648
17809TIP3    H174918   1.261   3.019  14.579  0.3763 -0.5503 -0.0587
17809TIP3    H274919   1.321   2.970  14.709 -0.7393 -1.1051  0.2612
17810TIP3   OH274920   6.007   5.937   4.277  0.4076 -0.3424  0.3526
17810TIP3    H174921   5.913   5.922   4.264  0.1859 -0.4164  1.8974
17810TIP3    H274922   6.049   5.861   4.236 -0.2335 -0.6531  0.2557
17811TIP3   OH274923   4.215   0.658  13.890 -0.0889 -0.2166 -0.2132
17811TIP3    H174924   4.195   0.587  13.951  2.0792  0.2559  1.1595
17811TIP3    H274925   4.182   0.628  13.806 -2.9643 -1.0084  1.0789
17812TIP3   OH274926   0.894   6.527   3.250 -0.0524 -0.0246 -0.6144
17812TIP3    H174927   0.841   6.597   3.213 -2.0009 -1.5997 -0.9245
17812TIP3    H274928   0.981   6.566   3.261 -1.3892  2.8665  0.5764
17813TIP3   OH274929   5.386   0.739  16.254 -0.2240  0.0092  0.0803
17813TIP3    H174930   5.474   0.721  16.222  0.1856 -0.4681  1.3795
17813TIP3    H274931   5.398   0.767  16.345 -1.3352  1.1093 -0.0758
17814TIP3   OH274932   3.713   1.424  12.214  0.3640  0.1766  0.4145
17814TIP3    H174933   3.704   1.367  12.290  0.3518  0.1724  0.4100
17814TIP3    H274934   3.714   1.365  12.139 -0.4039  0.2296  0.3514
17815TIP3   OH274935   2.738   4.393   2.618  0.7489  0.0035 -0.3156
17815TIP3    H174936   2.644   4.378   2.607  0.2418  1.0972  1.9009
17815TIP3    H274937   2.765   4.326   2.680  1.1865  0.3754 -0.1024
17816TIP3   OH274938   2.072   6.454  10.241  0.2902  0.4000 -0.1584
17816TIP3    H174939   2.138   6.402  10.194  0.3209 -0.2085  0.5358
17816TIP3    H274940   2.124   6.512  10.297  0.2579 -1.0523  1.4339
17817TIP3   OH274941   1.808   1.362  14.992  0.9056 -0.5328  0.3879
17817TIP3    H174942   1.765   1.303  15.054  1.1139  0.4330  1.4772
17817TIP3    H274943   1.736   1.400  14.941  0.4189  1.0431  2.1707
17818TIP3   OH274944   3.829   0.431  13.222  0.2707  0.0403 -0.1532
17818TIP3    H174945   3.766   0.359  13.228 -0.6879  0.9385  1.5851
17818TIP3    H274946   3.912   0.389  13.200 -0.5990 -1.3705 -0.8936
17819TIP3   OH274947   0.158   2.492  11.608  0.1062 -0.3285 -0.1929
17819TIP3    H174948   0.199   2.469  11.691 -0.0934  1.7455  0.5378
17819TIP3    H274949   0.176   2.418  11.550  1.2733 -1.2833  1.3396
17820TIP3   OH274950   2.945   1.416  11.812  0.0969  0.1070 -0.2282
17820TIP3    H174951   2.931   1.426  11.718 -1.3157 -1.9865 -0.3134
17820TIP3    H274952   3.002   1.489  11.836  1.7260 -0.1383 -2.9634
17821TIP3   OH274953   1.456   6.808   3.740  0.1410 -0.4951  0.2078
17821TIP3    H174954   1.488   6.819   3.830 -0.6850 -1.4254  0.6289
17821TIP3    H274955   1.528   6.765   3.694 -0.3259 -2.2562  1.0583
17822TIP3   OH274956   5.612   0.549   1.689  0.7598  0.2108  0.1364
17822TIP3    H174957   5.688   0.606   1.701  0.1225  1.0752  0.1696
17822TIP3    H274958   5.642   0.462   1.715  1.9796  0.3707 -0.6548
17823TIP3   OH274959   4.462   3.419  13.086  0.2704 -0.3569  0.0137
17823TIP3    H174960   4.435   3.506  13.057  1.1774 -0.8750 -2.6235
17823TIP3    H274961   4.381   3.368  13.085 -0.3552  0.4661  1.9987
17824TIP3   OH274962   6.233   3.707   2.274 -0.3398 -0.3716 -0.3257
17824TIP3    H174963   6.158   3.724   2.217 -0.3422  1.2736  0.1019
17824TIP3    H274964   6.274   3.793   2.284  0.2282 -0.8163  1.3510
17825TIP3   OH274965   6.258   0.879  14.719  0.2940 -0.2535  0.8397
17825TIP3    H174966   6.265   0.884  14.815  1.6651  1.8121  0.6807
17825TIP3    H274967   6.303   0.797  14.697 -0.2619 -0.8891  1.9616
17826TIP3   OH274968   6.763   4.802  13.415  0.4458 -0.2201 -0.4807
17826TIP3    H174969   6.858   4.815  13.413  0.4194  0.1959  0.3938
17826TIP3    H274970   6.751   4.709  13.395  0.9167  0.0922 -2.3742
17827TIP3   OH274971   5.726   3.635   6.108  0.0523 -0.0406  0.1179
17827TIP3    H174972   5.659   3.567   6.114 -0.8454  0.8659  0.5183
17827TIP3    H274973   5.730   3.673   6.195 -0.4408  1.3359 -0.4378
17828TIP3   OH274974   2.215   3.898  15.468  0.1974  0.1812  0.1792
17828TIP3    H174975   2.125   3.914  15.442 -0.1464 -0.8921  0.6253
17828TIP3    H274976   2.226   3.803  15.459  1.9853  0.5229 -2.0333
17829TIP3   OH274977   5.665   4.937  16.124 -0.3108 -0.4206 -0.1215
17829TIP3    H174978   5.652   4.843  16.126 -0.4109 -0.5168 -2.3851
17829TIP3    H274979   5.658   4.965  16.215  0.2133 -2.6429  0.6495
17830TIP3   OH274980   4.895   0.858   2.399 -0.1756  0.1170  0.4581
17830TIP3    H174981   4.864   0.940   2.437 -0.3975 -0.4313  1.4942
17830TIP3    H274982   4.840   0.845   2.322 -1.0276  0.2976  1.0223
17831TIP3   OH274983   1.672   5.657   0.105 -0.1672  0.3530  0.6012
17831TIP3    H174984   1.732   5.728   0.127 -0.2987  0.4602  0.6142
17831TIP3    H274985   1.632   5.684   0.022  0.6513 -0.2487 -0.0108
17832TIP3   OH274986   1.739   3.782  15.101 -0.1236  0.1477  0.0361
17832TIP3    H174987   1.697   3.700  15.075 -1.4042 -0.1619  2.7768
17832TIP3    H274988   1.692   3.850  15.052 -0.9957 -0.5267 -0.0843
17833TIP3   OH274989   1.197   6.683  17.080 -0.0586 -0.2735 -0.1723
17833TIP3    H174990   1.172   6.591  17.090  0.2867 -0.3917 -0.3431
17833TIP3    H274991   1.152   6.729  17.151  1.0647 -0.8338  0.9347
17834TIP3   OH274992   0.183   6.445   4.805 -0.0502  0.2576 -0.1554
17834TIP3    H174993   0.214   6.482   4.888 -0.7985  1.4021 -0.3735
17834TIP3    H274994   0.256   6.390   4.775  0.5513  0.4906  0.8395
17835TIP3   OH274995   5.740   1.501   4.234 -0.6475 -0.0457 -0.4424
17835TIP3    H174996   5.799   1.426   4.235  0.1365  0.5515 -0.4179
17835TIP3    H274997   5.681   1.486   4.308 -1.2391 -1.1941 -1.1311
17836TIP3   OH274998   3.600   1.565   6.234  0.7045 -0.2662  0.0502
17836TIP3    H174999   3.576   1.614   6.155  1.6934  0.7217  0.3399
17836TIP3    H275000   3.517   1.529   6.265 -0.7059  3.6171  1.4194
17837TIP3   OH275001   2.716   5.977  12.380  0.2307 -0.3667 -0.0742
17837TIP3    H175002   2.663   5.924  12.322  0.1912 -2.0781  1.4341
17837TIP3    H275003   2.711   5.932  12.465 -0.1274  2.2598  1.4066
17838TIP3   OH275004   1.555   2.765   4.922 -0.0238  0.6291 -0.1562
17838TIP3    H175005   1.529   2.720   4.841  0.3456  0.9132 -0.4373
17838TIP3    H275006   1.530   2.856   4.907 -1.9701  0.3254  0.9285
17839TIP3   OH275007   3.165   5.411   6.300 -0.1868  0.0068  0.4082
17839TIP3    H175008   3.098   5.434   6.363 -0.3665  0.2454  0.1310
17839TIP3    H275009   3.236   5.472   6.316  1.2893 -2.1127  2.7603
17840TIP3   OH275010   1.118   0.576  16.239 -0.0357  0.6374 -0.2246
17840TIP3    H175011   1.050   0.641  16.255 -1.3291  0.2017 -3.3010
17840TIP3    H275012   1.199   0.619  16.265 -1.1993  2.0327  1.3472
17841TIP3   OH275013   5.461   3.950   2.025  0.0685  0.5411 -0.1374
17841TIP3    H175014   5.527   3.997   1.975  2.2035 -1.1112  0.9648
17841TIP3    H275015   5.382   4.004   2.018  1.5534  2.6807 -1.3823
17842TIP3   OH275016   0.436   3.698   2.537 -0.0958  0.0631  0.4038
17842TIP3    H175017   0.468   3.610   2.559 -0.1062 -0.3803 -1.2257
17842TIP3    H275018   0.366   3.714   2.600 -0.3201 -1.2424  0.5235
17843TIP3   OH275019   1.579   1.991  11.550  0.3881 -0.0784 -0.4733
17843TIP3    H175020   1.491   1.976  11.515  0.5865 -1.9794 -0.2656
17843TIP3    H275021   1.638   1.969  11.478  0.7266 -0.0361 -0.2110
17844TIP3   OH275022   2.674   6.266  12.708  0.2130  0.4008  0.0729
17844TIP3    H175023   2.736   6.306  12.647  1.8237 -2.1571 -0.1091
17844TIP3    H275024   2.591   6.264  12.660  0.9055  0.4908 -1.1767
17845TIP3   OH275025   2.565   2.567   6.331 -0.6678  0.1595 -0.1475
17845TIP3    H175026   2.541   2.598   6.243 -0.6282 -0.2694 -0.3144
17845TIP3    H275027   2.501   2.499   6.350  0.1137 -0.6716 -0.3994
17846TIP3   OH275028   5.581   2.578  17.017 -0.6455  0.0096 -0.1585
17846TIP3    H175029   5.569   2.486  17.040 -0.4697  0.5250  2.2402
17846TIP3    H275030   5.643   2.577  16.944 -0.0763 -1.7268  0.3068
17847TIP3   OH275031   1.307   0.391  15.053  0.1411 -0.1029  0.0468
17847TIP3    H175032   1.366   0.315  15.053 -0.4223 -0.5427 -0.4890
17847TIP3    H275033   1.365   0.466  15.061  0.7514 -0.5549 -0.0791
17848TIP3   OH275034   4.159   1.347  16.074  0.6795  0.0960  0.4831
17848TIP3    H175035   4.206   1.266  16.095  2.0420  0.6807 -0.2278
17848TIP3    H275036   4.160   1.351  15.978  2.1220  1.7989  0.5400
17849TIP3   OH275037   6.526   2.876  14.175 -0.1698 -0.5010  0.1444
17849TIP3    H175038   6.497   2.919  14.255 -0.7478  1.1136 -0.8917
17849TIP3    H275039   6.620   2.894  14.171  0.1498 -1.7682  1.1191
17850TIP3   OH275040   0.652   3.763  13.806  0.1219 -0.1895  0.0193
17850TIP3    H175041   0.616   3.811  13.731  0.2312 -1.2507 -0.7385
17850TIP3    H275042   0.723   3.711  13.769  0.9471  0.1523  1.0887
17851TIP3   OH275043   5.227   2.956   1.161  0.0407 -0.5293  1.0322
17851TIP3    H175044   5.164   3.006   1.109  1.0144  0.5914  0.9018
17851TIP3    H275045   5.228   2.870   1.120  0.7432  0.3060 -0.8084
17852TIP3   OH275046   3.813   3.384  15.371  0.3522 -0.0373  0.8424
17852TIP3    H175047   3.790   3.451  15.307  1.1475 -1.0697 -0.5781
17852TIP3    H275048   3.763   3.408  15.449 -0.8498  1.1273 -0.2189
17853TIP3   OH275049   0.353   5.181   4.684 -0.4204 -0.0798  0.2782
17853TIP3    H175050   0.408   5.194   4.762  3.1082 -1.6856 -1.7105
17853TIP3    H275051   0.367   5.090   4.660  0.0117  0.7630 -3.1197
17854TIP3   OH275052   3.210   5.994  12.800  0.2433 -0.3497 -0.2715
17854TIP3    H175053   3.148   6.045  12.748 -0.5544 -1.2766 -0.2688
17854TIP3    H275054   3.289   6.046  12.802 -0.5075  0.8247 -0.3657
17855TIP3   OH275055   3.235   6.300  16.114 -0.1206 -0.0481  0.7731
17855TIP3    H175056   3.143   6.325  16.107  0.5573  2.1445 -3.3198
17855TIP3    H275057   3.275   6.372  16.162 -0.0894  0.6729 -0.3009
17856TIP3   OH275058   4.307   2.692   6.439  0.0466  1.2452  0.1102
17856TIP3    H175059   4.243   2.720   6.504  0.8841 -0.8151  1.9350
17856TIP3    H275060   4.371   2.762   6.437 -0.1304  1.4665  1.3324
17857TIP3   OH275061   2.362   2.699   3.895  0.4768 -0.6305 -0.1362
17857TIP3    H175062   2.448   2.726   3.929 -0.5104  1.3392  0.9748
17857TIP3    H275063   2.372   2.701   3.800  1.3394  0.8482 -0.0519
17858TIP3   OH275064   4.198   5.773  13.421  0.2804 -0.6953  0.1709
17858TIP3    H175065   4.122   5.814  13.380 -0.4850  1.5853  3.4950
17858TIP3    H275066   4.267   5.779  13.354 -1.1418  1.7591 -1.2348
17859TIP3   OH275067   2.011   0.942   5.383  0.1996 -0.1611  0.1978
17859TIP3    H175068   2.073   0.905   5.320  1.6571  0.3867  1.2743
17859TIP3    H275069   1.982   1.024   5.342  1.2040  0.2350  0.2586
17860TIP3   OH275070   2.139   0.764   0.901  0.0377 -0.4924  0.5082
17860TIP3    H175071   2.093   0.791   0.980  0.9060  1.2158  0.4854
17860TIP3    H275072   2.154   0.670   0.912  0.0177 -0.3183  2.3092
17861TIP3   OH275073   6.689   0.917   1.146 -0.5757 -0.0846  0.1791
17861TIP3    H175074   6.779   0.940   1.122 -0.6937  0.3606  0.1544
17861TIP3    H275075   6.690   0.822   1.157 -0.5171 -0.3104 -1.5729
17862TIP3   OH275076   0.874   0.697  12.889  0.2050  0.4676 -0.3805
17862TIP3    H175077   0.955   0.648  12.902 -1.1335 -1.4465  1.4060
17862TIP3    H275078   0.877   0.767  12.953  0.9350  1.1261 -1.1162
17863TIP3   OH275079   1.026   4.334  16.034  0.6372  0.1670  0.1040
17863TIP3    H175080   0.970   4.316  16.110 -2.0985  2.4446 -1.1725
17863TIP3    H275081   1.049   4.426  16.044  2.3796 -0.1675 -0.5833
17864TIP3   OH275082   4.763   0.786   2.782 -0.0892  0.2074 -0.0528
17864TIP3    H175083   4.746   0.836   2.703  0.6338 -1.9990 -1.6860
17864TIP3    H275084   4.854   0.757   2.774 -0.1517 -0.4903  1.3398
17865TIP3   OH275085   6.449   6.051   4.649 -0.1443 -0.5826  1.2418
17865TIP3    H175086   6.386   5.996   4.696 -0.0796 -0.2065  1.7823
17865TIP3    H275087   6.528   6.047   4.704 -0.2035  0.2061  1.3938
17866TIP3   OH275088   0.139   2.851   4.760  0.0608 -0.2016 -0.5662
17866TIP3    H175089   0.068   2.805   4.806  1.2459 -1.6288 -0.1034
17866TIP3    H275090   0.100   2.877   4.677 -1.3765  0.2015  0.1917
17867TIP3   OH275091   1.264   0.216   5.115  0.7531  0.8356  0.4708
17867TIP3    H175092   1.261   0.175   5.028  1.4124 -0.2254  0.9342
17867TIP3    H275093   1.195   0.283   5.112  1.4596  1.5540 -1.2369
17868TIP3   OH275094   2.380   6.171  16.251  0.1075  0.5362  0.3401
17868TIP3    H175095   2.459   6.211  16.288  1.6325 -1.4098 -0.6053
17868TIP3    H275096   2.311   6.234  16.267  1.6376  1.8414  2.2032
17869TIP3   OH275097   6.135   1.083  11.254  0.0023 -0.8730 -0.4643
17869TIP3    H175098   6.116   1.000  11.298 -1.2002 -1.0972 -1.3471
17869TIP3    H275099   6.220   1.069  11.212 -0.2754 -1.7351 -0.7650
17870TIP3   OH275100   3.669   3.043   5.622  0.1937 -0.5164 -0.8204
17870TIP3    H175101   3.733   3.107   5.592  0.6280 -0.5732 -0.0611
17870TIP3    H275102   3.693   2.961   5.578  1.6347 -0.9212  0.6208
17871TIP3   OH275103   2.337   5.096  15.195  0.5382  0.1701  0.2171
17871TIP3    H175104   2.385   5.020  15.162  1.0997 -0.2789  1.9348
17871TIP3    H275105   2.266   5.109  15.132  2.3015  0.2277 -1.8715
17872TIP3   OH275106   1.658   6.021   3.382 -0.0747 -1.0170 -0.5571
17872TIP3    H175107   1.599   5.949   3.406  1.1007 -1.7139  0.3734
17872TIP3    H275108   1.647   6.085   3.452 -1.1012 -0.2655 -1.3723
17873TIP3   OH275109   4.133   4.114  13.833 -0.1423 -0.2083  0.0042
17873TIP3    H175110   4.114   4.195  13.880 -1.2823  0.4485 -1.4773
17873TIP3    H275111   4.157   4.051  13.901 -1.4663  0.7433  1.4278
17874TIP3   OH275112   5.042   0.648   5.608 -0.6187 -0.1815  0.2993
17874TIP3    H175113   4.991   0.691   5.676  2.5196  2.0424  1.5170
17874TIP3    H275114   5.100   0.589   5.656  1.2297  0.9730 -0.4064
17875TIP3   OH275115   3.533   6.431  13.980  0.1285 -0.0590  0.3342
17875TIP3    H175116   3.591   6.444  14.055  0.9599  0.0953 -0.3157
17875TIP3    H275117   3.471   6.365  14.009  0.8481 -0.4911  0.9437
17876TIP3   OH275118   3.555   4.990  13.582 -0.1114 -0.9086  0.3231
17876TIP3    H175119   3.495   4.934  13.533  1.6895 -2.4751 -0.1966
17876TIP3    H275120   3.566   5.067  13.526 -0.6342 -1.1834 -0.1738
17877TIP3   OH275121   0.963   5.566  16.808 -0.4813  0.2729  0.0127
17877TIP3    H175122   0.872   5.542  16.828 -0.3576  0.1448  0.4313
17877TIP3    H275123   0.987   5.508  16.735 -0.4840 -0.2328  0.4080
17878TIP3   OH275124   5.639   2.359  16.358  0.2085  0.0236 -0.5356
17878TIP3    H175125   5.710   2.383  16.298  1.5403 -1.7682  0.2080
17878TIP3    H275126   5.628   2.436  16.414  0.2736  1.0017 -1.8175
17879TIP3   OH275127   1.187   1.779  15.506  0.3318  0.5253 -0.2061
17879TIP3    H175128   1.157   1.772  15.415  0.5264 -0.4731 -0.2034
17879TIP3    H275129   1.145   1.706  15.551 -0.7004  1.6829  0.7911
17880TIP3   OH275130   4.786   4.593  11.566 -0.0610 -0.3879  0.1779
17880TIP3    H175131   4.833   4.672  11.591  1.5352 -0.9792 -0.8057
17880TIP3    H275132   4.775   4.544  11.648  1.6720 -0.5427  0.3423
17881TIP3   OH275133   0.256   4.919   5.954 -0.2583  0.5416 -0.6652
17881TIP3    H175134   0.242   5.006   5.992 -2.6479  0.1013 -0.3754
17881TIP3    H275135   0.238   4.931   5.860 -2.9885 -0.0113 -0.3021
17882TIP3   OH275136   2.706   1.961   4.951 -0.0320  0.4703 -0.0849
17882TIP3    H175137   2.749   2.037   4.911 -3.4265  2.9044  0.4589
17882TIP3    H275138   2.676   1.908   4.878  0.6083  0.6895 -0.5173
17883TIP3   OH275139   2.272   2.836  16.263 -0.2779 -0.3190 -0.1421
17883TIP3    H175140   2.219   2.815  16.186 -0.1609  1.6372 -0.8113
17883TIP3    H275141   2.208   2.847  16.334 -0.8271  1.9073 -0.9173
17884TIP3   OH275142   0.254   0.261   2.843 -0.5331 -0.3206 -0.0806
17884TIP3    H175143   0.336   0.213   2.832 -0.0704  0.2152  0.8543
17884TIP3    H275144   0.192   0.197   2.876 -0.4406 -0.6938 -0.6303
17885TIP3   OH275145   5.089   3.285  15.763 -0.1106  0.6485 -0.5784
17885TIP3    H175146   5.068   3.205  15.715  0.4200 -0.3656  0.7899
17885TIP3    H275147   5.165   3.261  15.817 -2.0897  0.9165  2.5735
17886TIP3   OH275148   3.529   6.181   3.311 -0.6441  0.6407  0.5166
17886TIP3    H175149   3.496   6.258   3.358 -3.7891  1.5839 -2.8041
17886TIP3    H275150   3.469   6.111   3.337 -1.7055  0.9051 -1.0854
17887TIP3   OH275151   0.821   6.786  16.072 -0.3975  0.1487  0.3498
17887TIP3    H175152   0.801   6.725  16.001 -1.5015  1.3875 -0.4305
17887TIP3    H275153   0.782   6.746  16.150  0.9041 -1.2620  0.3253
17888TIP3   OH275154   6.619   3.303  13.236 -0.0619 -0.4400 -0.6941
17888TIP3    H175155   6.542   3.316  13.291  0.4003 -1.0283  0.1089
17888TIP3    H275156   6.584   3.301  13.147 -0.9982 -0.8401 -0.3325
17889TIP3   OH275157   1.882   3.488   2.714 -0.3704  0.4971  0.0702
17889TIP3    H175158   1.919   3.482   2.802 -2.3311 -1.7663  0.8475
17889TIP3    H275159   1.958   3.491   2.656  0.9735  0.8622  1.7851
17890TIP3   OH275160   4.688   3.825   1.226  0.0440 -0.0190 -0.3094
17890TIP3    H175161   4.676   3.736   1.258 -1.2431 -0.0536 -0.8652
17890TIP3    H275162   4.634   3.879   1.284  0.2062  0.3150 -0.4646
17891TIP3   OH275163   1.893   0.565   2.681  0.5510  0.0609  0.0882
17891TIP3    H175164   1.848   0.485   2.653  0.4173  0.6684 -1.5745
17891TIP3    H275165   1.837   0.635   2.650  1.2357  0.8071  0.5136
17892TIP3   OH275166   2.997   6.576  16.688 -0.6626  0.2581  0.2441
17892TIP3    H175167   3.008   6.576  16.593 -0.9317 -2.6153  0.1237
17892TIP3    H275168   3.072   6.526  16.720 -1.6271 -0.5462  1.3273
17893TIP3   OH275169   6.800   2.436  16.949  0.1298  0.0701 -0.3281
17893TIP3    H175170   6.756   2.354  16.971  0.3220 -0.0708 -0.4694
17893TIP3    H275171   6.882   2.434  16.999 -0.6898  1.0260  1.1641
17894TIP3   OH275172   6.513   1.959   0.563  0.3341  0.1436 -0.7204
17894TIP3    H175173   6.517   1.951   0.659 -0.3244  1.8860 -0.5153
17894TIP3    H275174   6.443   1.899   0.537 -2.4144  2.6490  0.3886
17895TIP3   OH275175   0.508   5.849   2.047  0.5979 -0.2804 -0.7733
17895TIP3    H175176   0.515   5.825   2.140  1.5370  0.5402 -0.6143
17895TIP3    H275177   0.530   5.942   2.045  0.0483 -0.1551 -1.7620
17896TIP3   OH275178   3.732   3.297   3.320  0.2320  0.2452  0.1355
17896TIP3    H175179   3.777   3.336   3.394  0.0246 -0.5044  0.6637
17896TIP3    H275180   3.798   3.244   3.275  0.6719  1.6438 -0.9342
17897TIP3   OH275181   1.940   4.913   0.987  0.4543 -0.4315 -0.4366
17897TIP3    H175182   1.941   4.845   1.054  0.3227 -0.8370 -0.8380
17897TIP3    H275183   1.863   4.966   1.007 -0.6029 -1.5797 -1.2632
17898TIP3   OH275184   1.770   0.545  16.507  0.5928 -0.1069  0.2483
17898TIP3    H175185   1.800   0.473  16.562  0.7906  1.1438  1.8613
17898TIP3    H275186   1.832   0.548  16.434  0.6173 -1.4936  0.1910
17899TIP3   OH275187   4.574   6.494  15.978  0.3518 -0.2317  0.1286
17899TIP3    H175188   4.657   6.496  15.931  0.0993 -0.2844 -0.3247
17899TIP3    H275189   4.508   6.512  15.911 -0.1110 -1.4152  0.2353
17900TIP3   OH275190   2.134   4.041  15.859 -0.5906  0.7606  0.3249
17900TIP3    H175191   2.217   4.078  15.829 -0.4698 -0.1668 -0.5356
17900TIP3    H275192   2.068   4.080  15.803 -0.9064  2.3896  1.7608
17901TIP3   OH275193   5.877   5.730   5.357  0.2650  0.4350 -0.2984
17901TIP3    H175194   5.921   5.725   5.442 -0.9805  0.5922  0.3703
17901TIP3    H275195   5.876   5.823   5.336 -0.9507  0.5810  0.3479
17902TIP3   OH275196   0.018   3.010   5.232 -0.3204 -0.1976  0.0744
17902TIP3    H175197   0.095   3.011   5.175 -2.3382 -0.7495 -2.8841
17902TIP3    H275198  -0.027   3.092   5.213 -2.2660 -1.4459 -1.1163
17903TIP3   OH275199   6.591   6.266  11.001 -0.3535  0.4493 -0.0958
17903TIP3    H175200   6.652   6.250  10.929 -1.2620  1.6412 -1.1808
17903TIP3    H275201   6.632   6.224  11.077  1.3222  0.3790 -0.9916
17904TIP3   OH275202   4.993   3.969   5.570 -0.0902  1.1522 -0.6474
17904TIP3    H175203   5.025   3.990   5.482 -2.1060  1.8767 -1.2684
17904TIP3    H275204   4.977   4.055   5.610 -1.0324  0.8339 -0.3138
17905TIP3   OH275205   4.682   1.102   1.314 -0.5383 -0.0120  0.5635
17905TIP3    H175206   4.641   1.019   1.290 -1.8571  0.4624  1.0990
17905TIP3    H275207   4.705   1.143   1.231 -0.1378 -0.7702  0.2886
17906TIP3   OH275208   0.281   4.983   1.224 -0.1765  0.2381  0.6412
17906TIP3    H175209   0.346   5.052   1.212 -0.5943  0.4952 -0.2244
17906TIP3    H275210   0.280   4.966   1.318  0.7268  0.6305  0.7280
17907TIP3   OH275211   6.346   4.361  13.133 -0.2127  0.0290 -0.0162
17907TIP3    H175212   6.348   4.417  13.055 -2.4350  0.6515  0.3067
17907TIP3    H275213   6.291   4.287  13.107 -0.6678  0.0618  0.8367
17908TIP3   OH275214   5.548   5.864   2.662  0.5293  0.4182  0.2322
17908TIP3    H175215   5.601   5.787   2.644 -1.6447 -1.7459  2.3845
17908TIP3    H275216   5.486   5.869   2.590 -0.9131 -1.4488  1.2553
17909TIP3   OH275217   4.473   2.960   3.939 -0.3146 -0.6292  0.0271
17909TIP3    H175218   4.562   2.985   3.965 -0.7041  0.6132  0.2103
17909TIP3    H275219   4.478   2.952   3.844  0.1630 -1.2866  0.1001
17910TIP3   OH275220   0.170   5.573  16.806 -0.4205 -0.2794  0.3126
17910TIP3    H175221   0.252   5.575  16.757 -0.1177  0.8853  0.8240
17910TIP3    H275222   0.104   5.606  16.744 -0.7209 -2.1708 -0.4249
17911TIP3   OH275223   0.565   0.114  12.217 -0.1157  0.0011  0.0578
17911TIP3    H175224   0.660   0.126  12.216  0.0325 -1.0242  0.7616
17911TIP3    H275225   0.550   0.039  12.160 -0.5959  0.6299 -0.6687
17912TIP3   OH275226   6.771   6.119  11.797  0.7039  0.0137 -0.5279
17912TIP3    H175227   6.744   6.189  11.737 -0.7174 -0.1675 -0.1352
17912TIP3    H275228   6.726   6.041  11.766  0.8374 -0.3260  0.1049
17913TIP3   OH275229   3.569   0.499   1.316 -0.3444  0.1293 -0.1482
17913TIP3    H175230   3.477   0.483   1.297 -0.3281 -2.8199  1.5425
17913TIP3    H275231   3.569   0.568   1.381 -1.7157 -1.9156  2.1921
17914TIP3   OH275232   2.839   1.238   6.547  0.5544  1.0988  0.3249
17914TIP3    H175233   2.773   1.253   6.615 -0.6962 -0.6780 -0.4178
17914TIP3    H275234   2.902   1.179   6.587 -1.5135 -2.0543 -0.6551
17915TIP3   OH275235   4.642   1.113  12.273  0.6107  0.3087  0.2910
17915TIP3    H175236   4.643   1.199  12.232 -1.9506  0.1128 -0.3418
17915TIP3    H275237   4.571   1.117  12.337  2.9089 -0.1819  3.0780
17916TIP3   OH275238   2.807   3.634  16.194 -1.0903 -0.3708  0.0737
17916TIP3    H175239   2.866   3.569  16.233 -2.0448 -0.1163  2.0673
17916TIP3    H275240   2.784   3.692  16.267 -1.5048  1.2745 -1.3165
17917TIP3   OH275241   0.625   6.333   0.789  0.5201 -0.2362 -0.0350
17917TIP3    H175242   0.672   6.317   0.708  1.7010 -0.8538  0.7412
17917TIP3    H275243   0.643   6.425   0.810 -0.7681  0.2755 -1.0567
17918TIP3   OH275244   4.818   3.993  16.687 -0.2985 -0.4960  0.2453
17918TIP3    H175245   4.840   4.004  16.779  0.9101 -1.2485  0.0841
17918TIP3    H275246   4.800   3.899  16.678  0.0651 -0.5178 -0.3518
17919TIP3   OH275247   2.417   2.272  10.582 -0.1517 -0.1670 -0.0829
17919TIP3    H175248   2.336   2.262  10.632 -0.9662  2.2468 -0.7804
17919TIP3    H275249   2.467   2.193  10.601 -2.4677 -1.5320  0.7384
17920TIP3   OH275250   0.005   2.624   3.462  0.6463 -0.0225 -0.2707
17920TIP3    H175251  -0.031   2.551   3.413  2.5529 -0.9599 -0.3944
17920TIP3    H275252   0.018   2.693   3.396  0.7849 -0.3475 -0.5910
17921TIP3   OH275253   6.750   3.477  12.635 -0.1288 -0.2161 -0.2774
17921TIP3    H175254   6.666   3.489  12.591 -0.4303 -1.7399 -0.1839
17921TIP3    H275255   6.799   3.418  12.579  1.1536  1.1208 -0.6310
17922TIP3   OH275256   4.066   4.000   3.985 -0.0529 -0.3959  0.4899
17922TIP3    H175257   4.007   4.074   3.994  1.0335  0.6419 -0.5062
17922TIP3    H275258   4.084   3.972   4.074 -0.8966  0.1995  0.8529
17923TIP3   OH275259   3.576   0.597  10.966 -0.0686  0.3215  0.4278
17923TIP3    H175260   3.548   0.546  10.890 -0.5223 -0.8112  1.3270
17923TIP3    H275261   3.655   0.643  10.936  0.3419 -0.8862 -0.4288
17924TIP3   OH275262   3.856   3.636   0.542 -0.4391 -0.0418  1.1292
17924TIP3    H175263   3.825   3.707   0.598 -4.4050  0.8728 -1.7686
17924TIP3    H275264   3.780   3.579   0.531 -0.3510  0.3211 -3.7825
17925TIP3   OH275265   5.071   1.873  15.854  0.4812 -0.6025 -0.3190
17925TIP3    H175266   4.990   1.823  15.857 -1.2654  1.9012 -1.9951
17925TIP3    H275267   5.070   1.927  15.933  0.7346 -0.8603 -0.1364
17926TIP3   OH275268   2.587   2.492  12.948 -0.2893  0.4760  0.3635
17926TIP3    H175269   2.505   2.464  12.909  0.2687 -0.5269 -0.1108
17926TIP3    H275270   2.591   2.586  12.930 -1.6303  0.6744  0.9748
17927TIP3   OH275271   5.766   4.641   1.010  0.1518 -0.0927 -0.0140
17927TIP3    H175272   5.739   4.584   0.939 -0.6132 -0.8045  0.8265
17927TIP3    H275273   5.718   4.722   0.996  0.6287  0.0722 -0.7562
17928TIP3   OH275274   3.107   6.717  16.294 -0.1838  0.1042 -0.0593
17928TIP3    H175275   3.140   6.765  16.369  0.5557 -0.1091 -0.2421
17928TIP3    H275276   3.016   6.695  16.317 -0.4761  1.4003  0.1122
17929TIP3   OH275277   4.014   2.208  12.584 -0.1556  0.1172 -0.1659
17929TIP3    H175278   3.925   2.243  12.582 -0.7185 -1.2776 -1.3465
17929TIP3    H275279   4.062   2.262  12.521 -0.3869  0.3471 -0.1494
17930TIP3   OH275280   3.417   6.172   5.562  0.0546  0.0088  0.2343
17930TIP3    H175281   3.324   6.160   5.541  0.1910 -0.3776 -0.1612
17930TIP3    H275282   3.427   6.267   5.568  0.0422  0.1750 -1.7155
17931TIP3   OH275283   6.033   4.713   0.501  0.1470  0.7371  0.4288
17931TIP3    H175284   6.069   4.644   0.445 -0.4492  1.3579 -0.7589
17931TIP3    H275285   5.980   4.666   0.566  0.0489  0.0475 -0.1395
17932TIP3   OH275286   3.244   6.516  12.866  0.1852 -0.3962 -0.0826
17932TIP3    H175287   3.195   6.453  12.917 -0.3932  0.3514  0.3022
17932TIP3    H275288   3.324   6.531  12.916 -1.1593  1.7094  1.6486
17933TIP3   OH275289   5.978   0.017  12.021 -0.0402  0.2465 -0.3239
17933TIP3    H175290   6.013  -0.028  12.098  0.5804 -2.9979 -2.2859
17933TIP3    H275291   6.019   0.103  12.023  1.4954 -0.4475  1.9326
17934TIP3   OH275292   3.206   6.114   5.263  0.1649 -0.1165  0.0499
17934TIP3    H175293   3.182   6.116   5.170  1.5983  0.0687 -0.3298
17934TIP3    H275294   3.245   6.200   5.279  0.2710 -0.2897  0.7279
17935TIP3   OH275295   1.140   1.698  15.895 -0.2423 -0.1478 -0.3042
17935TIP3    H175296   1.123   1.606  15.876 -1.7621 -0.4817  2.2575
17935TIP3    H275297   1.215   1.720  15.840 -0.6719 -2.5056 -1.9931
17936TIP3   OH275298   1.095   3.067  13.507  0.1712 -0.1748  0.5841
17936TIP3    H175299   1.138   3.152  13.495  0.3648 -0.3594 -0.1297
17936TIP3    H275300   1.085   3.058  13.601  2.1443 -0.3242  0.8341
17937TIP3   OH275301   4.783   5.229  13.001  0.2773  0.1231  0.0557
17937TIP3    H175302   4.834   5.167  12.949 -1.6261 -0.9246 -0.6387
17937TIP3    H275303   4.731   5.277  12.937 -0.3939  0.4342  0.8245
17938TIP3   OH275304   0.443   1.086  12.688 -0.2383 -0.1235 -0.1250
17938TIP3    H175305   0.472   1.045  12.770 -1.8700  0.7412  0.9333
17938TIP3    H275306   0.519   1.137  12.660  0.0607  0.3273  1.3762
17939TIP3   OH275307   3.526   3.412   4.162 -0.1924  0.3258  0.2289
17939TIP3    H175308   3.443   3.369   4.180  0.0677  0.5223  2.0631
17939TIP3    H275309   3.542   3.395   4.069 -2.5298  0.7586 -0.3088
17940TIP3   OH275310   3.132   4.380  16.388  0.2483  0.0893 -0.4555
17940TIP3    H175311   3.064   4.392  16.454  0.9320 -1.0449  0.4924
17940TIP3    H275312   3.084   4.372  16.305 -0.7238  0.0044  0.0989
17941TIP3   OH275313   3.484   4.206  11.599 -0.3810 -0.2999  0.6460
17941TIP3    H175314   3.572   4.204  11.637 -0.4274  0.5464  0.8233
17941TIP3    H275315   3.494   4.253  11.517 -0.3707 -1.7163 -0.1864
17942TIP3   OH275316   0.586   3.028   2.324 -0.2632  0.0227 -0.4296
17942TIP3    H175317   0.564   3.051   2.234 -0.3615  1.5628 -0.0442
17942TIP3    H275318   0.566   3.108   2.374 -2.3245 -1.4534  1.2980
17943TIP3   OH275319   4.270   5.418   0.975  0.0736  0.0224  0.9956
17943TIP3    H175320   4.271   5.504   0.932 -0.2422  1.1058  3.0434
17943TIP3    H275321   4.341   5.369   0.933 -0.7240  0.6769 -1.2976
17944TIP3   OH275322   3.515   5.325   2.399 -0.3086 -0.2019 -0.1997
17944TIP3    H175323   3.573   5.398   2.376 -0.5132 -0.0035 -0.0970
17944TIP3    H275324   3.451   5.323   2.328 -0.9055  0.3730  0.3094
17945TIP3   OH275325   1.806   4.803   6.342 -0.5076  0.1569  0.4744
17945TIP3    H175326   1.850   4.760   6.415 -1.0353 -0.0833  0.6561
17945TIP3    H275327   1.877   4.837   6.287 -0.0416 -2.0641 -0.3783
17946TIP3   OH275328   6.382   0.016  11.229 -0.5256 -0.5482  0.3393
17946TIP3    H175329   6.405   0.094  11.280 -1.8688 -1.1771  1.9747
17946TIP3    H275330   6.293   0.033  11.199 -1.4038 -2.0147  1.9506
17947TIP3   OH275331   5.748   5.148  15.373  0.0003 -0.0470 -0.1427
17947TIP3    H175332   5.694   5.069  15.377 -3.3008  2.1066  1.3736
17947TIP3    H275333   5.807   5.140  15.449 -0.3232 -1.0010  0.0264
17948TIP3   OH275334   1.915   5.547  14.028  0.3076 -0.1088  0.6477
17948TIP3    H175335   1.981   5.530  14.095 -0.8477 -0.1591  1.8347
17948TIP3    H275336   1.891   5.461  13.995  1.4251 -0.0302 -0.3992
17949TIP3   OH275337   0.793   0.876   0.574 -0.9030 -0.0449  0.2715
17949TIP3    H175338   0.839   0.960   0.578 -2.8855  1.1902 -1.4183
17949TIP3    H275339   0.723   0.884   0.639 -0.2412 -1.0237  1.1582
17950TIP3   OH275340   2.111   2.343  11.155 -0.0881 -0.2342  0.0899
17950TIP3    H175341   2.122   2.425  11.107 -1.6781 -0.6801 -1.1053
17950TIP3    H275342   2.177   2.347  11.225  0.1635  1.8492 -0.2119
17951TIP3   OH275343   6.336   0.750  16.235 -0.7499 -0.2820 -0.0342
17951TIP3    H175344   6.260   0.800  16.262 -0.6923 -0.4642  0.4729
17951TIP3    H275345   6.397   0.757  16.309 -0.9986 -1.6319  0.3306
17952TIP3   OH275346   2.085   2.296   2.119 -0.0886 -0.6032 -0.1690
17952TIP3    H175347   2.114   2.367   2.063  0.8476 -0.4238  0.5122
17952TIP3    H275348   2.039   2.236   2.061  1.0962 -0.5627 -1.1936
17953TIP3   OH275349   2.686   2.975   4.312 -0.1259  0.3747  0.0677
17953TIP3    H175350   2.623   2.969   4.240 -1.6919  1.9862  1.2172
17953TIP3    H275351   2.634   3.003   4.387  1.5162 -0.9012  1.7864
17954TIP3   OH275352   6.295   5.521  11.755  0.5110  0.5755  0.2217
17954TIP3    H175353   6.280   5.518  11.850  0.7058 -4.0043  0.3098
17954TIP3    H275354   6.208   5.518  11.717  0.4604  1.8293  0.1783
17955TIP3   OH275355   1.002   1.699  17.053  0.3328  0.2652 -0.1924
17955TIP3    H175356   0.968   1.640  17.122  0.2595 -0.2404 -0.6532
17955TIP3    H275357   1.091   1.668  17.038  0.3018  0.2918 -0.4225
17956TIP3   OH275358   1.893   2.315   3.725 -0.4795  0.1306 -0.2234
17956TIP3    H175359   1.913   2.226   3.698 -0.9403  0.4156 -1.6134
17956TIP3    H275360   1.801   2.328   3.701 -0.5808  0.8093  0.4562
17957TIP3   OH275361   3.802   3.458  12.068 -0.4883  0.2587 -0.2073
17957TIP3    H175362   3.871   3.518  12.042 -0.6507  0.3052 -0.5333
17957TIP3    H275363   3.831   3.373  12.036  0.1887 -0.0100  1.0634
17958TIP3   OH275364   3.672   6.434   3.859 -0.1834  0.2357  0.4303
17958TIP3    H175365   3.736   6.363   3.860 -0.8316 -0.3662 -0.0497
17958TIP3    H275366   3.690   6.481   3.777 -1.4818 -1.0064 -0.6136
17959TIP3   OH275367   3.790   0.729   3.781  0.5760 -0.0135 -0.6681
17959TIP3    H175368   3.859   0.781   3.740  1.2009 -0.9898 -0.8724
17959TIP3    H275369   3.753   0.788   3.848  0.5384  1.0662 -1.6035
17960TIP3   OH275370   5.525   2.601  11.352  0.7819 -0.3168 -0.4880
17960TIP3    H175371   5.557   2.547  11.425  0.1692  2.0485  1.6958
17960TIP3    H275372   5.605   2.631  11.308  1.3050  0.1792  0.7579
17961TIP3   OH275373   5.080   1.023  12.239 -0.4892 -0.1181 -0.7476
17961TIP3    H175374   5.000   0.991  12.282 -0.0694 -0.4847 -0.2341
17961TIP3    H275375   5.126   1.072  12.307 -1.0942  1.5936 -1.4953
17962TIP3   OH275376   6.677   6.022   4.819  0.6370  0.2981  0.5204
17962TIP3    H175377   6.693   5.939   4.863  0.8010 -0.5077 -1.0159
17962TIP3    H275378   6.665   6.085   4.890 -1.9806 -1.4647  1.8074
17963TIP3   OH275379   0.237   6.202  16.965  0.0870  0.0834  0.8133
17963TIP3    H175380   0.305   6.139  16.985 -0.7123 -0.5203  1.7420
17963TIP3    H275381   0.223   6.250  17.047 -0.3513  0.4461  0.5370
17964TIP3   OH275382   0.286   6.371  11.881 -0.0437  0.4034  0.1425
17964TIP3    H175383   0.276   6.286  11.838  1.8483  0.8410 -1.2865
17964TIP3    H275384   0.246   6.433  11.820 -0.7093  0.6449  0.8098
17965TIP3   OH275385   5.897   0.158  14.345 -0.2694  1.0991 -0.0644
17965TIP3    H175386   5.856   0.239  14.374  0.7071  2.0517 -1.2045
17965TIP3    H275387   5.964   0.186  14.282 -1.8101 -0.7286 -2.7659
17966TIP3   OH275388   0.546   3.770  11.644 -0.0026  0.2786  0.5061
17966TIP3    H175389   0.605   3.770  11.720  0.3983 -2.4172  0.3184
17966TIP3    H275390   0.463   3.802  11.679  0.4983  0.2770  1.7837
17967TIP3   OH275391   2.668   6.035  14.052  0.0458 -0.1645  0.2267
17967TIP3    H175392   2.708   5.956  14.089  0.0489 -0.6094 -0.7035
17967TIP3    H275393   2.732   6.104  14.071  0.1595 -0.4228  0.8268
17968TIP3   OH275394   5.276   4.252   3.437 -0.1662  0.5513  0.2330
17968TIP3    H175395   5.208   4.212   3.492 -0.4299  2.2376  1.1990
17968TIP3    H275396   5.288   4.190   3.365 -1.8393 -0.3847  0.7036
17969TIP3   OH275397   3.220   5.174   3.936 -0.2948  0.5128  0.2058
17969TIP3    H175398   3.151   5.115   3.967 -1.9410  1.1582 -2.0160
17969TIP3    H275399   3.184   5.261   3.945  0.5743  0.9288 -0.1969
17970TIP3   OH275400   3.276   4.291  13.711 -0.7166 -0.6125  0.3918
17970TIP3    H175401   3.202   4.327  13.759 -0.9110 -1.2790  0.6161
17970TIP3    H275402   3.270   4.196  13.726  0.0219 -0.7000  0.1932
17971TIP3   OH275403   2.665   6.076  11.108  0.7157  0.3503  0.1900
17971TIP3    H175404   2.641   6.145  11.046 -1.0319 -1.0857 -0.7903
17971TIP3    H275405   2.609   6.092  11.184  1.5080  0.9636  0.6709
17972TIP3   OH275406   5.613   0.241  13.399  0.0841  0.2834 -0.3455
17972TIP3    H175407   5.560   0.209  13.326  1.2085  0.4042 -1.2510
17972TIP3    H275408   5.552   0.289  13.455 -0.7011  0.6609 -1.4967
17973TIP3   OH275409   4.116   6.479  16.155  0.0747 -0.1290 -0.6194
17973TIP3    H175410   4.132   6.396  16.199 -0.6971  0.2410  0.3778
17973TIP3    H275411   4.203   6.513  16.135  0.4546 -0.0912  1.0224
17974TIP3   OH275412   6.306   6.192  10.941  0.5558 -0.6883 -0.4395
17974TIP3    H175413   6.338   6.237  10.863 -0.4551 -0.5286 -0.7731
17974TIP3    H275414   6.255   6.119  10.907  0.4860 -0.8885  0.0841
17975TIP3   OH275415   2.814   3.602  14.653 -0.5694 -0.2252  0.4934
17975TIP3    H175416   2.761   3.533  14.614  0.5408 -0.8896  0.1228
17975TIP3    H275417   2.779   3.611  14.742  0.4799 -2.6264  1.2279
17976TIP3   OH275418   2.280   4.959  10.541 -0.3421  0.1529 -0.4513
17976TIP3    H175419   2.366   4.961  10.583 -0.6442  0.7316  0.1645
17976TIP3    H275420   2.229   4.899  10.595 -0.9004  1.3333  0.3744
17977TIP3   OH275421   2.261   4.856   1.916  0.0234 -0.7834 -0.2914
17977TIP3    H175422   2.352   4.877   1.936 -0.3303 -0.2273  0.7795
17977TIP3    H275423   2.265   4.766   1.881  1.0551 -0.4847 -1.0128
17978TIP3   OH275424   2.370   0.954   1.863 -0.1457  0.3517 -0.4468
17978TIP3    H175425   2.299   0.901   1.827 -0.6257  1.1639 -0.7214
17978TIP3    H275426   2.396   0.908   1.943  0.0331 -0.7555 -1.1172
17979TIP3   OH275427   2.673   2.325  16.374  0.4339 -0.0799 -0.3796
17979TIP3    H175428   2.673   2.230  16.364  1.6399 -0.1018 -0.3069
17979TIP3    H275429   2.635   2.358  16.292 -0.2411 -0.6170 -0.2898
17980TIP3   OH275430   1.293   6.788  11.927 -0.1531 -0.0599  0.5317
17980TIP3    H175431   1.353   6.730  11.882 -0.4366 -0.2339  0.3789
17980TIP3    H275432   1.249   6.732  11.991  0.3412  0.2111  1.1172
17981TIP3   OH275433   2.013   6.054   3.366  0.7399  0.6020 -0.3051
17981TIP3    H175434   1.936   6.052   3.310  0.6117 -0.5052 -0.1113
17981TIP3    H275435   2.085   6.031   3.308  0.9189  1.5031 -0.4562
17982TIP3   OH275436   5.221   2.299  14.830 -0.3371  0.2652 -0.5845
17982TIP3    H175437   5.234   2.275  14.738 -2.3668  0.6632 -1.0154
17982TIP3    H275438   5.244   2.392  14.834  0.6628  0.0326 -0.4436
17983TIP3   OH275439   6.788   3.764  15.662 -0.3336 -0.0967 -0.0499
17983TIP3    H175440   6.798   3.751  15.568  0.6403  0.4978 -0.0449
17983TIP3    H275441   6.848   3.702  15.702 -0.5171 -0.1346  0.1718
17984TIP3   OH275442   1.691   2.046   6.162 -0.4716 -0.4685  0.2518
17984TIP3    H175443   1.607   2.082   6.133  0.2474  1.0987  0.0384
17984TIP3    H275444   1.687   1.954   6.137 -1.8649 -0.2766 -0.3416
17985TIP3   OH275445   0.776   5.370   6.109  0.6944  0.0659  0.1993
17985TIP3    H175446   0.768   5.279   6.138 -0.6238  0.3266  0.7160
17985TIP3    H275447   0.860   5.399   6.144 -0.2479 -0.0276  2.7270
17986TIP3   OH275448   5.974   5.723  14.247 -0.7202  0.4119  0.3794
17986TIP3    H175449   6.010   5.811  14.233 -0.4062  0.7018  2.7228
17986TIP3    H275450   5.953   5.692  14.158  0.5568  2.2352 -0.6346
17987TIP3   OH275451   3.049   3.211  16.096  0.4738 -0.1558 -0.0940
17987TIP3    H175452   2.995   3.164  16.160  0.8239 -0.7333 -0.2229
17987TIP3    H275453   3.073   3.145  16.031 -1.0870  0.7174 -1.6392
17988TIP3   OH275454   6.211   1.273  15.866  0.4016  0.1611  0.2369
17988TIP3    H175455   6.281   1.338  15.861 -0.6573  1.4596  1.5861
17988TIP3    H275456   6.173   1.284  15.953 -1.6558 -0.3176 -0.5393
17989TIP3   OH275457   4.743   5.953   1.893  0.5638  0.4581  0.7314
17989TIP3    H175458   4.810   5.973   1.827 -0.3164 -0.3723 -0.4648
17989TIP3    H275459   4.778   5.988   1.975  1.5792  1.7540 -0.2215
17990TIP3   OH275460   0.224   4.518   4.584  0.0643 -0.0532 -0.5809
17990TIP3    H175461   0.153   4.581   4.571  1.4069  1.6107 -0.1548
17990TIP3    H275462   0.269   4.516   4.499 -0.3368 -0.9540 -0.7867
17991TIP3   OH275463   0.260   4.526   2.070  0.8482  0.4541  0.4837
17991TIP3    H175464   0.204   4.559   2.141  0.9280  2.9524 -0.5008
17991TIP3    H275465   0.199   4.510   1.998  1.0721  0.5500  0.2729
17992TIP3   OH275466   0.311   3.992  16.372 -0.3025 -0.1365  0.1270
17992TIP3    H175467   0.338   3.907  16.406 -1.0154 -0.3591  0.1593
17992TIP3    H275468   0.306   3.980  16.278  0.6025  0.1673  0.0357
17993TIP3   OH275469   1.731   0.258  13.717  0.3602 -0.0877 -0.3258
17993TIP3    H175470   1.799   0.192  13.699  2.4329  1.7081  0.5124
17993TIP3    H275471   1.736   0.318  13.642  2.2060  1.9674  1.3302
17994TIP3   OH275472   4.241   3.981  10.338  0.0004  0.0487 -0.4084
17994TIP3    H175473   4.209   3.899  10.373 -1.5413  0.6232 -0.4005
17994TIP3    H275474   4.213   3.981  10.246 -0.5300  0.8004 -0.2573
17995TIP3   OH275475   2.786   1.561   5.141 -0.1794  0.1685 -0.3691
17995TIP3    H175476   2.826   1.595   5.220 -0.0597  1.4484 -0.9498
17995TIP3    H275477   2.710   1.513   5.171 -1.1099  2.0455  0.4723
17996TIP3   OH275478   2.058   3.606   5.042  0.5937  0.2345  0.2680
17996TIP3    H175479   2.108   3.541   5.090 -0.2732  0.9394  2.2398
17996TIP3    H275480   1.974   3.610   5.088  1.1969  3.9522  1.3946
17997TIP3   OH275481   5.699   6.357  11.548  0.1133  0.6221  0.6205
17997TIP3    H175482   5.617   6.374  11.594  0.3060  0.1874  1.1262
17997TIP3    H275483   5.766   6.401  11.601  0.3905 -0.2300  0.9961
17998TIP3   OH275484   0.103   5.701  13.219  0.0728  0.3788  0.0805
17998TIP3    H175485   0.135   5.744  13.299  0.9031 -0.8054  0.4169
17998TIP3    H275486   0.172   5.639  13.197 -0.8683 -0.4241 -0.6755
17999TIP3   OH275487   1.753   4.378  12.305  0.2105 -0.2830  0.3372
17999TIP3    H175488   1.724   4.292  12.336  0.2814 -1.1928 -1.9159
17999TIP3    H275489   1.752   4.433  12.383 -2.3594 -1.6404  1.3996
18000TIP3   OH275490   1.016   5.548  16.511 -0.3403  0.3729 -0.5550
18000TIP3    H175491   1.054   5.633  16.533  1.7917 -0.5636 -0.3939
18000TIP3    H275492   1.051   5.527  16.425  1.8025 -1.7092  0.7048
18001TIP3   OH275493   1.611   6.789  13.961 -0.1786  0.2383 -0.4540
18001TIP3    H175494   1.554   6.761  14.033  0.8943 -0.0723  0.2992
18001TIP3    H275495   1.583   6.878  13.941 -0.8792  0.1168 -0.0489
18002TIP3   OH275496   5.893   3.056   3.030 -0.5558 -0.5476 -0.8034
18002TIP3    H175497   5.842   3.087   2.956  1.0153 -0.1492 -1.7647
18002TIP3    H275498   5.961   3.122   3.042 -0.6862 -0.6622  0.9348
18003TIP3   OH275499   2.669   5.903  15.665  0.6177  0.3386  0.2544
18003TIP3    H175500   2.713   5.893  15.750 -0.3287  0.8596  0.8292
18003TIP3    H275501   2.599   5.838  15.667 -0.4212  1.4262  0.5768
18004TIP3   OH275502   1.805   5.967  16.913 -0.3228 -0.1020  0.1005
18004TIP3    H175503   1.861   5.911  16.859 -1.2344 -1.1354  0.1826
18004TIP3    H275504   1.841   6.055  16.902  1.0678 -0.6747 -0.1501
18005TIP3   OH275505   1.579   5.701  16.725  0.0457 -0.9213 -0.0266
18005TIP3    H175506   1.650   5.638  16.736  0.2596 -0.6951 -0.1141
18005TIP3    H275507   1.508   5.650  16.686  0.9126 -0.6712 -2.0588
18006TIP3   OH275508   2.016   5.747  13.523  0.1008  0.3396  0.0839
18006TIP3    H175509   2.097   5.799  13.522  0.8228 -0.5946 -2.9902
18006TIP3    H275510   1.954   5.799  13.472  0.4054 -1.0217 -1.8299
18007TIP3   OH275511   6.242   5.567  15.010 -0.3646 -0.1332  0.3168
18007TIP3    H175512   6.241   5.471  15.015  0.0216 -0.3993 -2.6043
18007TIP3    H275513   6.170   5.588  14.949 -1.7607  1.6485  2.4192
18008TIP3   OH275514   4.262   0.197  16.655  0.1334 -0.1039  0.4379
18008TIP3    H175515   4.281   0.175  16.564 -1.1968 -0.2244  0.1755
18008TIP3    H275516   4.302   0.127  16.706 -0.5945 -0.9674 -0.1583
18009TIP3   OH275517   3.894   3.623   1.735  0.1269  0.2624 -0.6173
18009TIP3    H175518   3.971   3.664   1.696 -0.3902 -0.1252 -2.1164
18009TIP3    H275519   3.841   3.696   1.767  2.3209  0.5130  3.1020
18010TIP3   OH275520   1.781   4.118  14.686 -0.2278 -0.1466 -0.7716
18010TIP3    H175521   1.707   4.079  14.641 -0.3959 -0.0292 -0.6014
18010TIP3    H275522   1.742   4.164  14.760  0.0136 -0.0718 -0.6893
18011TIP3   OH275523   5.120   5.100   5.101 -0.1553 -1.0908 -0.0746
18011TIP3    H175524   5.124   5.094   5.197  0.0927 -1.1951 -0.0884
18011TIP3    H275525   5.212   5.097   5.074 -0.1402  0.3260 -0.2419
18012TIP3   OH275526   3.961   6.364   3.597  0.5380 -0.4533  0.2916
18012TIP3    H175527   3.974   6.388   3.689  0.7392 -2.1664  0.7420
18012TIP3    H275528   4.034   6.305   3.577  0.2380 -0.4574 -0.8307
18013TIP3   OH275529   2.597   1.033   4.728 -0.0124  0.1971 -0.1011
18013TIP3    H175530   2.607   1.126   4.706 -0.2608 -0.0024 -1.1218
18013TIP3    H275531   2.669   0.989   4.683 -0.5393 -0.2313 -0.5400
18014TIP3   OH275532   0.770   1.765   3.094  0.3142  0.1707  0.1885
18014TIP3    H175533   0.859   1.786   3.064  0.7139 -2.0777 -0.3679
18014TIP3    H275534   0.782   1.729   3.182  0.4108 -3.0732 -1.0357
18015TIP3   OH275535   4.063   4.948  15.014 -0.2122  0.3294  0.4091
18015TIP3    H175536   4.052   4.871  15.070  0.5163 -1.0898 -1.3171
18015TIP3    H275537   3.974   4.976  14.994 -0.6076 -1.9745 -1.3997
18016TIP3   OH275538   0.010   6.669  15.222  0.4305  0.9430  0.4052
18016TIP3    H175539   0.105   6.666  15.217  0.3653  1.0380 -1.5768
18016TIP3    H275540  -0.013   6.758  15.195 -0.2445  0.5696 -0.3115
18017TIP3   OH275541   1.636   4.756  12.336 -0.3344  0.1480 -0.0852
18017TIP3    H175542   1.584   4.825  12.295 -0.0490 -0.1114 -0.8894
18017TIP3    H275543   1.721   4.759  12.291 -0.5004 -1.0888 -0.5102
18018TIP3   OH275544   0.211   4.018  13.571  0.3290  0.6079  0.6825
18018TIP3    H175545   0.145   4.030  13.502  1.2511 -0.7153 -0.4766
18018TIP3    H275546   0.221   3.923  13.577 -0.1393  0.6571  3.0825
18019TIP3   OH275547   1.917   1.535  14.780  0.1930  0.2180 -0.2252
18019TIP3    H175548   1.876   1.619  14.799  1.5957  0.8892 -0.0185
18019TIP3    H275549   1.923   1.490  14.864 -1.4205 -0.5400 -0.4705
18020TIP3   OH275550   2.471   6.551  13.556  0.5242 -0.3207  0.5100
18020TIP3    H175551   2.377   6.535  13.559  0.4225  0.0103 -0.4926
18020TIP3    H275552   2.507   6.498  13.628 -0.2974 -1.3809  0.1652
18021TIP3   OH275553   4.557   5.171  13.949 -0.0870 -0.2404  0.1279
18021TIP3    H175554   4.551   5.160  13.854 -0.2195  1.4045 -0.0936
18021TIP3    H275555   4.623   5.107  13.977 -0.2058 -0.8905 -1.0343
18022TIP3   OH275556   3.262   5.034   0.808 -0.4589 -0.0796  0.4014
18022TIP3    H175557   3.263   4.945   0.773 -0.7891  0.5263 -1.2414
18022TIP3    H275558   3.351   5.047   0.841 -0.0561 -0.6325 -0.4048
18023TIP3   OH275559   4.196   4.861  14.166 -0.0508  0.3653 -0.5690
18023TIP3    H175560   4.148   4.940  14.141  1.2055  1.7381  1.1137
18023TIP3    H275561   4.283   4.873  14.128  0.8140  0.8659  1.4480
18024TIP3   OH275562   5.375   1.315   1.946  0.5160  0.2964 -0.3587
18024TIP3    H175563   5.467   1.344   1.951  0.3541  1.0282 -1.3716
18024TIP3    H275564   5.326   1.383   1.993  0.3669  0.5784 -0.9099
18025TIP3   OH275565   0.100   0.305   3.412 -0.6991 -0.2250 -0.4349
18025TIP3    H175566   0.151   0.231   3.445 -0.6993 -0.4436 -0.9172
18025TIP3    H275567   0.151   0.338   3.338 -0.8028  0.1291 -0.3500
18026TIP3   OH275568   0.801   3.397  16.123 -0.2282 -0.5776 -0.8218
18026TIP3    H175569   0.766   3.311  16.100  1.8582 -1.3192 -1.4718
18026TIP3    H275570   0.891   3.395  16.092  0.4126  1.2199  0.7353
18027TIP3   OH275571   4.409   4.719  10.627 -0.4008 -0.1702 -0.2382
18027TIP3    H175572   4.368   4.779  10.565  0.1077 -0.1677 -0.5786
18027TIP3    H275573   4.493   4.760  10.648  0.3304 -1.1578 -1.1263
18028TIP3   OH275574   2.642   5.511   6.130  0.1200 -0.1991  0.1535
18028TIP3    H175575   2.701   5.453   6.082 -1.3015 -2.8179  1.3833
18028TIP3    H275576   2.570   5.528   6.069  0.5582  0.3568 -0.2217
18029TIP3   OH275577   4.460   5.785  15.698 -0.4328 -0.0176 -0.0203
18029TIP3    H175578   4.491   5.800  15.788 -1.1164  0.0984  0.2050
18029TIP3    H275579   4.532   5.815  15.643 -1.4417  3.7988  0.4082
18030TIP3   OH275580   0.355   4.312  16.979 -0.1248 -0.3692  0.2111
18030TIP3    H175581   0.402   4.324  16.896 -0.0222 -0.4342  0.2595
18030TIP3    H275582   0.393   4.379  17.037  1.3657 -1.7323  0.8820
18031TIP3   OH275583   1.728   6.799   5.974  0.1691  0.0372 -0.5447
18031TIP3    H175584   1.722   6.815   6.068  0.3153  1.8214 -0.8118
18031TIP3    H275585   1.674   6.721   5.960 -1.3838  0.7977  0.7701
18032TIP3   OH275586   3.605   2.491   0.068  0.2458  0.0402 -0.2356
18032TIP3    H175587   3.679   2.470   0.125  0.8318  1.1732 -0.5599
18032TIP3    H275588   3.625   2.577   0.032 -2.0311  1.2176  1.0185
18033TIP3   OH275589   6.235   2.177   3.038  0.0189  0.0170 -1.1470
18033TIP3    H175590   6.317   2.145   3.075  0.3026  1.1692 -0.7345
18033TIP3    H275591   6.253   2.268   3.017 -1.1500  0.2767 -1.0664
18034TIP3   OH275592   0.736   2.811  15.545  0.8132  0.8278 -0.2190
18034TIP3    H175593   0.708   2.725  15.513  1.2213  0.0862  1.2889
18034TIP3    H275594   0.688   2.823  15.627  2.0839  1.2168  0.5063
18035TIP3   OH275595   1.953   5.735  15.781  0.0630  0.3101 -0.1070
18035TIP3    H175596   1.964   5.697  15.694  1.1654  1.1188 -0.3420
18035TIP3    H275597   1.997   5.673  15.839  0.8631  0.6391 -0.3501
18036TIP3   OH275598   4.107   5.449  16.570 -0.6419  0.2150  0.3200
18036TIP3    H175599   4.059   5.459  16.652 -1.3941 -0.3647 -0.0381
18036TIP3    H275600   4.096   5.356  16.547 -0.7174  0.4418 -0.5975
18037TIP3   OH275601   4.663   2.782   2.447 -0.2087 -0.2311  0.6991
18037TIP3    H175602   4.728   2.764   2.379 -0.7195  0.3054  0.0533
18037TIP3    H275603   4.695   2.860   2.492 -0.2660 -0.1281  0.5611
18038TIP3   OH275604   6.746   3.264   5.179 -0.3963  0.5728  0.0738
18038TIP3    H175605   6.727   3.316   5.101 -2.1341  3.4815  2.1621
18038TIP3    H275606   6.682   3.295   5.243 -0.7621 -3.4713  1.9679
18039TIP3   OH275607   4.725   1.957  11.917 -0.9370 -0.2212 -0.0511
18039TIP3    H175608   4.792   1.895  11.888 -0.3007 -0.1862  1.2464
18039TIP3    H275609   4.693   1.998  11.837  1.1689  0.3427 -0.6611
18040TIP3   OH275610   3.503   0.231  12.113 -0.1337 -0.3945 -0.2153
18040TIP3    H175611   3.447   0.267  12.182  0.7031 -0.5480  0.5591
18040TIP3    H275612   3.443   0.212  12.041 -1.2224 -1.3138  0.8895
18041TIP3   OH275613   3.820   6.381   2.354  0.4315 -0.4189  0.6655
18041TIP3    H175614   3.853   6.469   2.369 -0.5828  0.5739 -2.2488
18041TIP3    H275615   3.740   6.377   2.406  0.0016  0.7448  0.1305
18042TIP3   OH275616   5.553   1.285   9.949 -0.0201  0.3445  0.4850
18042TIP3    H175617   5.537   1.377   9.968  1.0747  0.5786  0.3189
18042TIP3    H275618   5.629   1.262  10.002  0.9490  0.0929 -0.9470
18043TIP3   OH275619   3.330   2.793   3.730  0.3911 -0.0503  0.0064
18043TIP3    H175620   3.414   2.837   3.714  1.6260 -1.8076  1.2771
18043TIP3    H275621   3.326   2.782   3.825 -0.8680 -0.8096 -0.1078
18044TIP3   OH275622   4.508   2.884   4.217  0.3634  0.6196 -0.1359
18044TIP3    H175623   4.555   2.967   4.220  2.1811 -0.3065 -1.4357
18044TIP3    H275624   4.449   2.892   4.143  0.8233  0.6151 -0.5057
18045TIP3   OH275625   6.748   2.286   2.063 -0.2051  0.0625 -0.2299
18045TIP3    H175626   6.780   2.217   2.004  0.2993  0.7424 -0.7636
18045TIP3    H275627   6.808   2.359   2.049 -0.2375  0.3212  0.9498
18046TIP3   OH275628   2.496   1.325   1.469  0.0759 -0.1942 -0.2780
18046TIP3    H175629   2.500   1.239   1.509  0.2045 -1.3549 -2.6251
18046TIP3    H275630   2.418   1.366   1.507 -0.1755 -1.4700  0.6200
18047TIP3   OH275631   4.538   4.858  13.763 -0.0654 -0.0188  0.0756
18047TIP3    H175632   4.567   4.934  13.713  0.1247  1.4336  2.2761
18047TIP3    H275633   4.617   4.822  13.802 -0.3689 -0.3302  0.4158
18048TIP3   OH275634   4.482   0.047   4.147 -0.6009  0.0966 -0.0802
18048TIP3    H175635   4.391   0.029   4.169 -0.5837 -2.4344 -1.6853
18048TIP3    H275636   4.520   0.081   4.228 -2.9775  1.5105  0.5337
18049TIP3   OH275637   1.503   0.487  12.377 -0.1338  0.1802  0.0816
18049TIP3    H175638   1.504   0.580  12.355 -0.7882 -0.1705 -1.5854
18049TIP3    H275639   1.418   0.455  12.344  0.3734 -1.1367 -0.0264
18050TIP3   OH275640   3.174   6.476  15.177 -0.5144 -0.0930  0.1317
18050TIP3    H175641   3.151   6.451  15.087 -0.2478 -1.4438  0.4118
18050TIP3    H275642   3.266   6.504  15.171 -0.9481  1.3457 -0.2646
18051TIP3   OH275643   2.762   1.744   0.399 -0.4279 -0.3289  0.6350
18051TIP3    H175644   2.797   1.794   0.473 -0.2445  0.8854 -0.2423
18051TIP3    H275645   2.668   1.765   0.399 -0.7790 -1.7688  1.5974
18052TIP3   OH275646   2.379   5.326  11.296  0.1682 -0.5769 -0.1970
18052TIP3    H175647   2.437   5.358  11.366  0.7704 -1.7357 -0.1415
18052TIP3    H275648   2.398   5.383  11.222  0.4092 -0.0941  0.2295
18053TIP3   OH275649   5.934   1.788  17.078 -0.4537 -0.2763 -0.2311
18053TIP3    H175650   5.848   1.774  17.116 -0.8816 -0.1035 -1.1270
18053TIP3    H275651   5.918   1.837  16.998  0.4073 -0.9574 -0.8359
18054TIP3   OH275652   0.814   4.344   0.754 -0.2369  0.0305  0.1624
18054TIP3    H175653   0.867   4.273   0.788  0.2892  0.2807 -0.1190
18054TIP3    H275654   0.733   4.341   0.805 -0.2232 -0.7725  0.1367
18055TIP3   OH275655   4.394   3.495  14.799  0.0382  0.1502  0.4468
18055TIP3    H175656   4.434   3.486  14.712 -0.4582  0.7831  0.1395
18055TIP3    H275657   4.451   3.445  14.857 -0.9205 -2.3226 -0.6186
18056TIP3   OH275658   5.638   6.103   2.662 -0.2833 -0.2666  0.0332
18056TIP3    H175659   5.603   6.014   2.662  1.1447 -0.8515  0.2065
18056TIP3    H275660   5.562   6.159   2.648 -1.0693 -1.5704 -1.0703
18057TIP3   OH275661   1.615   4.186  15.841  1.4717  0.2233  0.0227
18057TIP3    H175662   1.697   4.235  15.835  0.4866  1.8482 -0.9728
18057TIP3    H275663   1.573   4.199  15.755  0.2545 -0.7112  0.4516
18058TIP3   OH275664   2.762   1.061   1.187 -0.2930 -0.1328 -0.3778
18058TIP3    H175665   2.710   1.034   1.112  0.4444 -1.4978 -0.4298
18058TIP3    H275666   2.698   1.092   1.251 -0.8862  1.6177 -1.7618
18059TIP3   OH275667   6.427   1.759  16.612  0.3570 -0.3145 -0.3416
18059TIP3    H175668   6.438   1.850  16.638 -1.3983 -0.5224  1.4110
18059TIP3    H275669   6.516   1.728  16.595  1.1521  1.2834  0.6502
18060TIP3   OH275670   6.373   1.691   1.402 -0.5759 -0.0963 -0.0179
18060TIP3    H175671   6.395   1.745   1.479 -0.0384 -0.9952  0.4718
18060TIP3    H275672   6.391   1.748   1.327 -0.9765  0.7512  0.5074
18061TIP3   OH275673   1.541   6.282  11.448  0.3997 -0.2065  0.0433
18061TIP3    H175674   1.592   6.217  11.497 -0.9634  0.7451  2.9629
18061TIP3    H275675   1.591   6.363  11.456 -0.3084  0.1701  0.7369
18062TIP3   OH275676   6.270   5.046  13.988 -0.1350  0.2326 -0.3025
18062TIP3    H175677   6.304   5.130  13.958 -0.1337  0.2446 -0.2660
18062TIP3    H275678   6.333   4.981  13.956  0.0415  0.2741 -0.0359
18063TIP3   OH275679   2.820   6.036   3.630  0.2399  0.4397  0.1514
18063TIP3    H175680   2.912   6.049   3.609  0.2402  0.8112  0.3847
18063TIP3    H275681   2.807   5.941   3.624 -0.0732  0.5722 -2.8991
18064TIP3   OH275682   6.317   3.999  12.914 -0.7695  0.3449 -0.3544
18064TIP3    H175683   6.268   4.035  12.988  0.9417  0.2018  0.9037
18064TIP3    H275684   6.407   3.993  12.945  0.3242  1.6810 -2.9552
18065TIP3   OH275685   2.881   2.892   2.564 -0.1370 -0.1124 -0.3838
18065TIP3    H175686   2.929   2.862   2.641 -0.7073 -0.1966 -0.0595
18065TIP3    H275687   2.910   2.982   2.551  0.9698 -0.5187 -0.8748
18066TIP3   OH275688   3.669   0.358   4.276 -0.2836  0.9510 -0.3063
18066TIP3    H175689   3.752   0.391   4.243  0.9122  0.1776  1.7344
18066TIP3    H275690   3.679   0.263   4.277 -0.2886  0.9186  2.0055
18067TIP3   OH275691   4.342   5.215  15.955 -0.0337  0.1024  0.0194
18067TIP3    H175692   4.406   5.232  16.024  0.0323 -1.0922  0.2865
18067TIP3    H275693   4.275   5.162  15.998  0.4645 -1.4417 -1.0072
18068TIP3   OH275694   5.162   4.799   2.278  0.4390  0.1090 -0.5806
18068TIP3    H175695   5.136   4.739   2.208  0.4795  0.5521 -0.9783
18068TIP3    H275696   5.216   4.865   2.235 -1.0186  1.4275 -0.4967
18069TIP3   OH275697   5.884   1.184   3.166  0.1931  0.1979  0.3596
18069TIP3    H175698   5.905   1.113   3.226  1.5026  0.5111  0.3213
18069TIP3    H275699   5.965   1.236   3.161 -0.4971  1.2814 -0.1612
18070TIP3   OH275700   6.761   2.253   3.514  0.0915 -0.4201  0.2855
18070TIP3    H175701   6.831   2.190   3.529  0.3503 -0.3061 -0.3928
18070TIP3    H275702   6.765   2.272   3.420  0.5403  1.2238  0.6096
18071TIP3   OH275703   5.893   1.501   0.008 -0.3052 -0.3264 -0.6339
18071TIP3    H175704   5.922   1.592   0.012 -1.1817 -0.0597  1.7094
18071TIP3    H275705   5.961   1.452   0.055 -1.0959 -0.4505  0.4177
18072TIP3   OH275706   5.268   5.014   4.385  0.0422  0.3767 -0.0486
18072TIP3    H175707   5.187   4.981   4.423 -1.1989  1.3882 -1.6703
18072TIP3    H275708   5.301   4.942   4.332 -0.0369  0.1181  0.2525
18073TIP3   OH275709   6.132   1.479  11.824  0.4606 -0.0354 -0.0414
18073TIP3    H175710   6.209   1.503  11.772  0.3282  0.0437 -0.1986
18073TIP3    H275711   6.121   1.385  11.809 -0.0692  0.1386 -0.8092
18074TIP3   OH275712   2.272   1.597  16.700 -0.3974 -0.1492  0.3507
18074TIP3    H175713   2.254   1.504  16.687  0.4113 -0.3287  0.4258
18074TIP3    H275714   2.225   1.619  16.780 -1.0404 -0.3571  0.0358
18075TIP3   OH275715   5.956   4.017   4.288 -0.6256  0.4005  0.1111
18075TIP3    H175716   5.998   3.949   4.341  1.0195  1.8822  0.8085
18075TIP3    H275717   5.948   4.091   4.348 -0.4675  1.4934 -1.2003
18076TIP3   OH275718   3.135   5.106   1.053 -0.4767 -0.0972 -0.1709
18076TIP3    H175719   3.159   5.051   0.979 -2.1379 -0.4195 -0.5053
18076TIP3    H275720   3.153   5.196   1.023  1.9701 -0.3578  0.2778
18077TIP3   OH275721   0.601   1.211  13.387  0.5806 -0.2996 -0.2079
18077TIP3    H175722   0.647   1.253  13.460  1.2736  0.9523 -1.3294
18077TIP3    H275723   0.625   1.118  13.394  2.0590  0.0848  0.1397
18078TIP3   OH275724   6.373   2.654  13.468  0.0613  0.0716 -0.2075
18078TIP3    H175725   6.312   2.584  13.491  0.1675 -0.1685 -0.6449
18078TIP3    H275726   6.344   2.729  13.520 -2.0630  0.6648 -2.0838
18079TIP3   OH275727   6.130   5.990  10.898 -0.1116  0.0176 -0.8496
18079TIP3    H175728   6.159   5.918  10.842 -0.6204 -0.2375 -0.7845
18079TIP3    H275729   6.036   5.997  10.882 -0.9556 -2.1505  2.3061
18080TIP3   OH275730   4.257   6.767   4.910  0.0619  0.1650  0.7943
18080TIP3    H175731   4.223   6.846   4.952 -1.1188 -1.0341  2.1745
18080TIP3    H275732   4.196   6.750   4.838  0.6994  0.8466  0.0674
18081TIP3   OH275733   6.354   5.003  10.933  0.5131  0.1723  0.4436
18081TIP3    H175734   6.371   4.918  10.892  2.5463 -0.6717  2.8025
18081TIP3    H275735   6.440   5.036  10.958  0.0838  4.1290 -2.3530
18082TIP3   OH275736   4.490   5.003  17.077 -0.2511  0.4863 -0.1079
18082TIP3    H175737   4.474   5.020  16.984  0.5701  1.0261 -0.1516
18082TIP3    H275738   4.476   4.908  17.086 -0.5622  0.4685 -0.7300
18083TIP3   OH275739   0.741   1.428  11.102 -0.3484  0.0446  0.8819
18083TIP3    H175740   0.715   1.338  11.123 -0.0195 -0.2431  0.1068
18083TIP3    H275741   0.821   1.418  11.050 -0.4293  0.7776  0.6102
18084TIP3   OH275742   5.360   4.679   4.448  0.1630  0.1829  0.1762
18084TIP3    H175743   5.385   4.676   4.355 -1.7067  0.7496 -0.3917
18084TIP3    H275744   5.369   4.588   4.478 -0.8901 -0.3781 -1.0736
18085TIP3   OH275745   0.047   2.062  17.046 -0.1696  0.6411 -0.6306
18085TIP3    H175746   0.068   1.984  16.994  0.9891 -1.0338  2.0744
18085TIP3    H275747   0.132   2.098  17.070 -0.6576  1.3398  0.0855
18086TIP3   OH275748   4.445   1.120  11.129  0.2456 -0.3044  0.2478
18086TIP3    H175749   4.413   1.031  11.143  3.2746 -1.4129  1.1092
18086TIP3    H275750   4.507   1.112  11.057 -0.1718  1.3593 -0.3389
18087TIP3   OH275751   1.496   2.304  11.221 -0.2707 -0.2481  0.5302
18087TIP3    H175752   1.588   2.323  11.242 -0.2918  0.3279  0.1103
18087TIP3    H275753   1.500   2.221  11.173  0.6036  1.9683 -3.7017
18088TIP3   OH275754   6.641   4.117   1.712  0.2346 -0.2781  0.2573
18088TIP3    H175755   6.591   4.045   1.673  0.1558 -0.0051 -0.1405
18088TIP3    H275756   6.732   4.090   1.702  0.2431  0.0745 -0.6709
18089TIP3   OH275757   5.628   3.999  15.639 -0.3210  0.0468  0.1197
18089TIP3    H175758   5.553   3.941  15.625 -0.5634  0.1797  0.8281
18089TIP3    H275759   5.685   3.982  15.564 -0.6101 -0.7541  0.0688
18090TIP3   OH275760   1.555   2.939   3.076 -0.1037 -0.0953  0.1479
18090TIP3    H175761   1.476   2.975   3.115 -0.2194  0.1269 -0.2942
18090TIP3    H275762   1.565   2.853   3.118  0.0931  0.3726  1.0958
18091TIP3   OH275763   3.675   5.802  16.044 -0.3757  0.4605 -0.3700
18091TIP3    H175764   3.704   5.891  16.067  0.1583  0.8167 -2.2436
18091TIP3    H275765   3.598   5.816  15.988 -1.7011 -0.3658  1.1695
18092TIP3   OH275766   3.955   3.238  11.478  0.0530  0.0391  0.4604
18092TIP3    H175767   3.984   3.262  11.390  1.0263 -0.4089  0.6382
18092TIP3    H275768   3.898   3.162  11.465 -0.1236  0.2177  0.1848
18093TIP3   OH275769   2.629   2.137  15.702  0.0014 -0.3304  0.0222
18093TIP3    H175770   2.621   2.232  15.708 -1.6770 -0.5060  2.3020
18093TIP3    H275771   2.672   2.112  15.784  0.6190 -1.5332 -0.6499
18094TIP3   OH275772   6.349   6.701   0.387 -0.2139  0.2566  0.2282
18094TIP3    H175773   6.372   6.646   0.461 -0.9926  1.0321  1.0661
18094TIP3    H275774   6.429   6.707   0.335  1.0436  1.5841  2.2061
18095TIP3   OH275775   6.362   5.656   4.392  0.1609 -0.4517  0.0016
18095TIP3    H175776   6.352   5.701   4.476 -0.3216 -2.2600  0.9708
18095TIP3    H275777   6.363   5.726   4.327 -1.2720  0.8992  1.3573
18096TIP3   OH275778   1.538   1.171   5.206  0.1765 -0.7804  0.1773
18096TIP3    H175779   1.494   1.231   5.266  0.6871  1.0235 -1.1676
18096TIP3    H275780   1.466   1.125   5.161 -0.3193  0.3424 -0.2326
18097TIP3   OH275781   0.317   6.676  14.080 -0.1344  0.1559 -0.0208
18097TIP3    H175782   0.278   6.664  14.167 -1.1390  0.3730 -0.4319
18097TIP3    H275783   0.403   6.714  14.098 -0.9643  1.7271  0.8335
18098TIP3   OH275784   6.824   5.834   5.733  0.6013  0.2795 -0.4417
18098TIP3    H175785   6.782   5.884   5.663  1.2417 -1.2048 -1.9620
18098TIP3    H275786   6.891   5.893   5.768  0.2247  1.0736 -1.0263
18099TIP3   OH275787   1.336   3.201  11.314  0.7097 -0.0343  0.4822
18099TIP3    H175788   1.371   3.211  11.225  1.1363  0.3256  0.6824
18099TIP3    H275789   1.283   3.122  11.311  0.5883  0.0671 -0.1364
18100TIP3   OH275790   3.156   5.217  16.211 -0.1279 -0.4073 -0.3342
18100TIP3    H175791   3.086   5.271  16.172  1.2094  1.3274 -0.4856
18100TIP3    H275792   3.144   5.227  16.305  0.2771  0.4341 -0.3593
18101TIP3   OH275793   3.457   4.956  16.818 -0.6199 -0.3318 -0.2231
18101TIP3    H175794   3.376   4.936  16.770 -0.4449 -1.3206 -0.1344
18101TIP3    H275795   3.445   4.914  16.903  0.0608 -0.6608 -0.2826
18102TIP3   OH275796   5.301   5.960   2.780 -0.2195  0.3614  0.8826
18102TIP3    H175797   5.386   5.930   2.749 -0.4500 -0.1825  0.7583
18102TIP3    H275798   5.257   5.994   2.702 -0.4180 -0.0885  0.7966
18103TIP3   OH275799   3.684   2.098   0.193  0.3856 -0.6866  0.0778
18103TIP3    H175800   3.622   2.051   0.137 -0.7861 -0.5839  1.2363
18103TIP3    H275801   3.640   2.102   0.279  2.8979 -2.6129  1.6077
18104TIP3   OH275802   4.086   1.085   5.765  0.2241  0.3292  0.2135
18104TIP3    H175803   4.035   1.095   5.684  1.3935 -1.3756 -0.7976
18104TIP3    H275804   4.023   1.104   5.835 -0.7738  2.0226 -1.0702
18105TIP3   OH275805   1.899   2.756   2.779 -0.9907 -0.4979  0.0670
18105TIP3    H175806   1.928   2.841   2.815  1.1663 -0.6569 -1.0964
18105TIP3    H275807   1.808   2.770   2.755 -0.9466  1.2286  0.7497
18106TIP3   OH275808   2.158   2.825   1.830  0.1428  0.5006  0.6166
18106TIP3    H175809   2.227   2.831   1.896  0.8253 -2.8831  0.4140
18106TIP3    H275810   2.205   2.820   1.747 -0.2272 -1.7379  0.4640
18107TIP3   OH275811   4.685   2.156   1.351 -0.2295 -0.4299  0.3783
18107TIP3    H175812   4.650   2.238   1.386  1.6191 -0.4195  2.4296
18107TIP3    H275813   4.608   2.106   1.325 -1.4089  1.9102 -0.9422
18108TIP3   OH275814   3.854   3.808  13.517 -0.2200 -0.0473  0.0566
18108TIP3    H175815   3.774   3.754  13.518 -1.4014  1.6033 -0.5431
18108TIP3    H275816   3.844   3.866  13.593  0.3190  0.2835 -0.1235
18109TIP3   OH275817   0.337   5.474   0.083 -0.4219 -0.3154  0.4391
18109TIP3    H175818   0.255   5.500   0.125 -0.4103  0.0328  0.2530
18109TIP3    H275819   0.369   5.554   0.041 -0.5884 -0.7176 -0.4823
18110TIP3   OH275820   6.029   4.423   3.904  0.2097  0.3541 -0.4107
18110TIP3    H175821   5.950   4.476   3.910 -0.3574 -0.4633 -0.4536
18110TIP3    H275822   6.018   4.357   3.972  0.7965  0.1639 -0.4983
18111TIP3   OH275823   6.739   5.831   0.011 -0.6804  0.3186  0.3601
18111TIP3    H175824   6.795   5.891  -0.038  0.5222 -2.2361 -1.6356
18111TIP3    H275825   6.650   5.861  -0.007 -0.2066  0.4282 -2.2145
18112TIP3   OH275826   2.268   5.354   4.427  0.1909  0.1605 -0.5134
18112TIP3    H175827   2.298   5.277   4.380  1.0282 -0.0749  0.3959
18112TIP3    H275828   2.332   5.368   4.496  0.1805  1.8038 -0.7882
18113TIP3   OH275829   6.008   0.351   3.227  0.1477  0.3035 -0.0331
18113TIP3    H175830   6.029   0.277   3.284 -1.8735  0.5701  1.1616
18113TIP3    H275831   6.070   0.419   3.251  0.6759 -0.3056  0.3451
18114TIP3   OH275832   3.057   5.447   4.409 -0.6822  0.2168  0.1650
18114TIP3    H175833   2.963   5.432   4.401 -0.5198 -0.4513 -0.5807
18114TIP3    H275834   3.063   5.529   4.459 -1.6489  0.1427  0.4324
18115TIP3   OH275835   4.251   1.696  14.876  0.3966 -0.5824  0.0575
18115TIP3    H175836   4.338   1.706  14.913  1.2820 -0.2651 -1.9946
18115TIP3    H275837   4.234   1.602  14.879  0.9991 -0.6946  0.0701
18116TIP3   OH275838   3.475   5.510  14.162  0.6464  0.7324 -0.3714
18116TIP3    H175839   3.485   5.454  14.085  2.3732  0.3067  0.1441
18116TIP3    H275840   3.486   5.599  14.128  3.7283  0.4602 -0.3440
18117TIP3   OH275841   1.614   3.784  11.598 -0.1974 -0.1118 -0.1973
18117TIP3    H175842   1.558   3.832  11.660 -0.5190 -1.9067  0.9653
18117TIP3    H275843   1.555   3.753  11.530  0.0440  1.2164 -1.0728
18118TIP3   OH275844   4.735   2.150   5.144 -0.0545 -0.4925  0.0408
18118TIP3    H175845   4.753   2.139   5.050  0.6913  0.9880 -0.0092
18118TIP3    H275846   4.806   2.104   5.188  0.6853  0.4643 -0.1377
18119TIP3   OH275847   6.703   4.014   5.950 -0.1778  0.1532 -0.2739
18119TIP3    H175848   6.715   3.974   6.036  2.1076  2.0549  0.3813
18119TIP3    H275849   6.697   3.939   5.890  1.5376 -1.2356  1.1485
18120TIP3   OH275850   6.171   2.818   1.928  0.4166  0.4540  0.1428
18120TIP3    H175851   6.258   2.851   1.947 -0.5099  1.4021  3.3543
18120TIP3    H275852   6.113   2.892   1.943 -0.9839 -0.0322 -2.3015
18121TIP3   OH275853   3.151   1.961  13.213 -0.0299 -0.2057  0.2070
18121TIP3    H175854   3.062   1.944  13.183  0.1177 -1.3759  0.3988
18121TIP3    H275855   3.145   2.043  13.262 -0.8750  0.0408 -0.2975
18122TIP3   OH275856   1.885   6.728  13.621 -0.3785 -0.0597 -0.0284
18122TIP3    H175857   1.833   6.666  13.672  0.7881 -0.3590  0.8322
18122TIP3    H275858   1.822   6.767  13.560 -1.5481 -0.6018  0.7873
18123TIP3   OH275859   3.487   0.368  14.635  0.3876  0.4294  0.1920
18123TIP3    H175860   3.417   0.377  14.570  2.5811 -1.7662 -2.7583
18123TIP3    H275861   3.535   0.450  14.630  1.2939 -0.1495 -2.1244
18124TIP3   OH275862   1.862   2.203  12.731 -0.0826 -0.3461  0.2384
18124TIP3    H175863   1.951   2.213  12.766 -0.5146 -0.8592  1.5650
18124TIP3    H275864   1.867   2.127  12.673  0.8319  0.9958 -1.5489
18125TIP3   OH275865   4.690   2.054  16.946 -0.1312  0.3777  0.0708
18125TIP3    H175866   4.779   2.047  16.981  0.5004  0.3207 -1.4812
18125TIP3    H275867   4.642   2.103  17.013  1.0908  0.5075  0.8798
18126TIP3   OH275868   2.913   5.274  14.271  0.6600  0.0503 -0.3671
18126TIP3    H175869   2.900   5.304  14.181  1.7582 -1.1305 -0.9442
18126TIP3    H275870   2.914   5.179  14.265  1.1477 -0.0369  0.8361
18127TIP3   OH275871   5.661   3.783   5.869 -0.0124 -0.5181  0.1139
18127TIP3    H175872   5.703   3.767   5.953 -1.0181 -0.9782  0.5435
18127TIP3    H275873   5.590   3.718   5.865 -0.3064 -0.1527 -0.8494
18128TIP3   OH275874   0.441   2.552   2.377 -0.1511 -0.5403 -0.4585
18128TIP3    H175875   0.534   2.571   2.369  0.0936  1.1453  3.5836
18128TIP3    H275876   0.397   2.626   2.336  0.4303  0.2071  0.2280
18129TIP3   OH275877   5.014   0.321   5.061 -0.4662 -0.5605 -0.4477
18129TIP3    H175878   4.948   0.252   5.051 -0.6203 -0.8589  1.8662
18129TIP3    H275879   4.985   0.371   5.137  1.3253  0.0611 -0.1077
18130TIP3   OH275880   1.513   6.656  12.588  0.7702  0.1945  0.4263
18130TIP3    H175881   1.497   6.715  12.514  2.5566  2.1424  1.4657
18130TIP3    H275882   1.442   6.592  12.584  0.5121  0.5248 -2.6263
18131TIP3   OH275883   5.348   0.554  10.615 -0.1626 -0.2427 -0.1046
18131TIP3    H175884   5.386   0.587  10.697  0.0138  0.0928 -0.3181
18131TIP3    H275885   5.311   0.469  10.639  0.9261 -0.6942  0.0619
18132TIP3   OH275886   6.589   5.786  10.416  0.1519 -0.0467  0.1501
18132TIP3    H175887   6.538   5.740  10.482  1.7572 -0.4081  1.2103
18132TIP3    H275888   6.549   5.872  10.410 -1.0620 -0.5787  0.3315
18133TIP3   OH275889   3.759   0.424  12.674 -0.3010 -0.8337 -0.2135
18133TIP3    H175890   3.743   0.336  12.706 -0.1824 -0.2082  1.7271
18133TIP3    H275891   3.678   0.449  12.630 -0.9801 -1.3064  0.7278
18134TIP3   OH275892   1.729   6.100  14.646 -0.0702  0.0780 -0.1831
18134TIP3    H175893   1.789   6.171  14.671 -1.9467  1.5576  0.3739
18134TIP3    H275894   1.652   6.145  14.610 -0.5182 -1.7716 -1.7083
18135TIP3   OH275895   3.708   2.972   1.767 -0.0329  0.3798 -0.2476
18135TIP3    H175896   3.721   2.995   1.675 -0.2474  1.6517  0.0215
18135TIP3    H275897   3.777   3.020   1.814  1.1399 -1.5396  0.1278
18136TIP3   OH275898   1.942   0.794  11.287  0.5097 -0.5727  0.0735
18136TIP3    H175899   1.935   0.699  11.272 -0.4869 -0.8027  1.7521
18136TIP3    H275900   1.912   0.833  11.205 -0.0633 -1.7131 -0.2922
18137TIP3   OH275901   3.616   1.294  10.763  0.1030  0.4607 -0.5877
18137TIP3    H175902   3.705   1.290  10.730  0.0515 -1.4019 -0.6161
18137TIP3    H275903   3.561   1.285  10.685 -0.0497 -1.1280 -0.3314
18138TIP3   OH275904   1.988   1.765  12.021 -0.0401 -0.5026 -0.1665
18138TIP3    H175905   1.922   1.834  12.029 -0.5626 -0.7472 -1.9188
18138TIP3    H275906   1.974   1.709  12.097 -2.0406 -0.6705 -0.6084
18139TIP3   OH275907   0.572   2.695   2.150  0.4330  0.0984 -0.1440
18139TIP3    H175908   0.550   2.700   2.056 -1.4852  0.4912  0.2762
18139TIP3    H275909   0.623   2.775   2.166 -2.7710  2.3558 -0.0951
18140TIP3   OH275910   4.302   6.661   4.504 -0.3276  0.2021  0.1359
18140TIP3    H175911   4.380   6.670   4.557  0.6928 -1.2111 -1.0466
18140TIP3    H275912   4.334   6.639   4.416 -2.0383 -1.2878 -0.1960
18141TIP3   OH275913   5.975   1.825   4.687 -0.0295 -0.0123  0.2002
18141TIP3    H175914   6.069   1.809   4.683  0.1967  1.1355  0.7304
18141TIP3    H275915   5.936   1.743   4.657  1.1185 -0.7420  0.6469
18142TIP3   OH275916   3.287   2.058  17.012  0.7128 -0.4660  0.2640
18142TIP3    H175917   3.199   2.076  16.978  1.2094 -0.5590 -1.0930
18142TIP3    H275918   3.321   2.144  17.037  0.1846 -0.4487  0.9806
18143TIP3   OH275919   3.753   5.362  14.904 -0.5568  0.1464 -0.1898
18143TIP3    H175920   3.790   5.287  14.952  1.4944  1.6866  0.8099
18143TIP3    H275921   3.824   5.391  14.847 -0.5806  2.4925  0.8721
18144TIP3   OH275922   2.493   2.850   3.323  0.1330 -0.1839  0.0834
18144TIP3    H175923   2.500   2.757   3.347  1.1034  0.0033  0.6123
18144TIP3    H275924   2.401   2.872   3.338 -0.0325 -0.9722  0.2811
18145TIP3   OH275925   2.336   0.151  12.843  0.2364  0.3193 -0.5068
18145TIP3    H175926   2.387   0.187  12.770  1.0421 -0.1558 -0.1874
18145TIP3    H275927   2.279   0.085  12.803  1.6734 -0.9497 -0.5359
18146TIP3   OH275928   3.316   2.179  10.424  0.2546 -0.0563  0.1243
18146TIP3    H175929   3.359   2.097  10.446  0.1866 -0.4826 -1.2112
18146TIP3    H275930   3.223   2.164  10.444 -0.2748 -1.4246 -2.8249
18147TIP3   OH275931   4.258   3.490  13.868 -0.5487 -0.1573  0.6570
18147TIP3    H175932   4.226   3.513  13.781 -1.5129  1.2747  1.3604
18147TIP3    H275933   4.184   3.504  13.926  0.3354 -0.2200  1.8427
18148TIP3   OH275934   5.601   5.846   6.131 -0.3416 -0.4853 -0.2367
18148TIP3    H175935   5.603   5.849   6.227 -0.9850 -2.0737 -0.1520
18148TIP3    H275936   5.658   5.919   6.104 -0.1172 -0.0369  1.3355
18149TIP3   OH275937   0.864   5.983   0.463  0.7296 -0.0895  0.3298
18149TIP3    H175938   0.956   5.963   0.448  0.0386 -1.4871 -2.9798
18149TIP3    H275939   0.822   5.898   0.471 -0.6281  0.4025 -1.1371
18150TIP3   OH275940   1.790   2.172  14.065  0.2739  0.4326  0.2036
18150TIP3    H175941   1.823   2.252  14.107  3.1697 -1.1222  1.1825
18150TIP3    H275942   1.789   2.108  14.136 -0.7041 -0.7479 -0.8439
18151TIP3   OH275943   5.642   1.172   1.222 -0.2475  0.0217 -0.4029
18151TIP3    H175944   5.658   1.239   1.288  0.5162 -0.4495 -0.0951
18151TIP3    H275945   5.547   1.170   1.213 -0.3917 -0.1259  0.9158
18152TIP3   OH275946   5.218   1.417   0.263  0.0242 -0.4730  0.4813
18152TIP3    H175947   5.146   1.369   0.223  0.1201 -0.7489  0.6350
18152TIP3    H275948   5.179   1.499   0.292 -0.6455 -1.2989  2.0847
18153TIP3   OH275949   1.954   1.283   2.260  0.1070 -0.5149  0.4746
18153TIP3    H175950   1.870   1.236   2.255 -0.2792  0.1560  0.4861
18153TIP3    H275951   1.963   1.323   2.173  1.5463 -2.4363 -0.3315
18154TIP3   OH275952   6.114   5.318  15.064  0.1519  0.2706 -0.1705
18154TIP3    H175953   6.197   5.272  15.077  1.3115  2.3949  0.3249
18154TIP3    H275954   6.051   5.267  15.115  1.5994 -0.2037  1.2365
18155TIP3   OH275955   1.288   5.314   2.886 -0.0008  0.6808 -0.0357
18155TIP3    H175956   1.198   5.288   2.866  0.0506  1.7119 -1.9599
18155TIP3    H275957   1.341   5.240   2.858 -0.1794  0.6855 -0.4045
18156TIP3   OH275958   6.846   5.313  15.417 -0.3061  0.9777  0.4899
18156TIP3    H175959   6.770   5.319  15.475 -0.7529  3.7006 -0.2051
18156TIP3    H275960   6.837   5.388  15.358  0.9840 -0.7387 -2.0705
18157TIP3   OH275961   1.572   0.633   5.879 -0.5548 -0.0206 -0.5920
18157TIP3    H175962   1.526   0.710   5.913 -0.0665 -0.2847  0.7347
18157TIP3    H275963   1.615   0.664   5.799 -1.3589  0.7508 -0.7497
18158TIP3   OH275964   6.790   6.426  16.239 -0.1213 -0.0798 -0.5720
18158TIP3    H175965   6.821   6.499  16.292 -1.3455  1.3133 -1.6730
18158TIP3    H275966   6.700   6.411  16.269 -0.9670  0.9787 -2.3987
18159TIP3   OH275967   1.775   1.205   1.949 -0.2974  0.6556 -0.4022
18159TIP3    H175968   1.706   1.144   1.925  0.4026  0.1372 -1.1297
18159TIP3    H275969   1.847   1.150   1.979 -1.0484  1.2225  2.9229
18160TIP3   OH275970   5.649   2.585  12.943 -0.7702  0.4339  0.0819
18160TIP3    H175971   5.640   2.532  13.022 -0.6526  0.0185 -0.1822
18160TIP3    H275972   5.718   2.648  12.965 -1.0952  0.6557  0.4865
18161TIP3   OH275973   3.021   2.457   4.203 -0.3268  0.0708 -0.2704
18161TIP3    H175974   2.939   2.407   4.202 -0.2812 -0.0315 -1.6734
18161TIP3    H275975   3.088   2.393   4.178  0.3244 -0.0246  1.5856
18162TIP3   OH275976   5.261   4.699  12.133  0.3338 -0.4593 -0.1020
18162TIP3    H175977   5.166   4.688  12.145  0.4193 -0.6031  0.5162
18162TIP3    H275978   5.285   4.633  12.068  0.1563 -1.0736  0.4420
18163TIP3   OH275979   4.143   6.459  14.533  0.5172 -0.9685 -0.0193
18163TIP3    H175980   4.157   6.416  14.617 -0.2227  1.4833  1.4627
18163TIP3    H275981   4.223   6.509  14.517  0.4942 -1.0999 -0.5700
18164TIP3   OH275982   5.645   3.041   0.617 -0.8793  0.0093 -0.2728
18164TIP3    H175983   5.669   3.083   0.535  0.4664  0.9892  0.5891
18164TIP3    H275984   5.549   3.043   0.617 -0.8835  1.1799 -1.2294
18165TIP3   OH275985   2.009   0.157   2.397 -0.0125 -0.1696  0.1256
18165TIP3    H175986   1.931   0.175   2.345  0.2995  0.4661 -0.1330
18165TIP3    H275987   2.023   0.237   2.448  1.6037  0.5199 -1.2979
18166TIP3   OH275988   5.698   5.566  12.310 -0.0559  0.0246  0.5762
18166TIP3    H175989   5.701   5.651  12.352  1.0472  2.2934 -3.5236
18166TIP3    H275990   5.775   5.564  12.254 -1.3462 -2.5624 -1.3454
18167TIP3   OH275991   0.066   3.382   0.505  0.0368  0.1372 -0.3923
18167TIP3    H175992   0.135   3.321   0.478  0.3731 -0.4945  1.7388
18167TIP3    H275993   0.113   3.454   0.546 -0.3523  2.0147 -2.9873
18168TIP3   OH275994   4.404   5.548   1.372  0.3701  0.5364 -0.0172
18168TIP3    H175995   4.426   5.609   1.302  0.6198 -0.4469 -0.8226
18168TIP3    H275996   4.463   5.572   1.443  0.0098  1.6467 -0.0694
18169TIP3   OH275997   6.702   1.586   1.471  0.1422  0.9585  0.3420
18169TIP3    H175998   6.674   1.548   1.555  1.1028  0.2843  0.3799
18169TIP3    H275999   6.707   1.680   1.488  3.3225  0.6379  2.0587
18170TIP3   OH276000   1.297   2.143  16.619  0.0219 -0.2332  0.2337
18170TIP3    H176001   1.350   2.068  16.645 -0.3271 -0.2129  1.0578
18170TIP3    H276002   1.360   2.214  16.605  0.4414 -0.9042 -1.4794
18171TIP3   OH276003   1.192   2.972   1.979  0.3575 -0.2403  0.6689
18171TIP3    H176004   1.167   3.052   2.026  1.0675  0.0269  0.6033
18171TIP3    H276005   1.259   2.931   2.035  0.6993 -0.2838  0.2335
18172TIP3   OH276006   4.251   3.490  14.216  0.4573 -0.1230 -0.4636
18172TIP3    H176007   4.337   3.466  14.181  1.6958  1.5692  1.2193
18172TIP3    H276008   4.261   3.580  14.244 -1.8967  0.1105 -0.1626
18173TIP3   OH276009   0.325   1.342   3.183 -0.2199 -0.1102  0.3582
18173TIP3    H176010   0.379   1.278   3.137 -1.6162 -1.0554 -0.0529
18173TIP3    H276011   0.380   1.420   3.191  1.1217 -0.9689 -0.1643
18174TIP3   OH276012   2.959   5.031   5.896 -0.0725 -0.0748 -0.3832
18174TIP3    H176013   3.013   4.962   5.936  0.3010  0.2402 -0.3309
18174TIP3    H276014   3.022   5.087   5.850  0.2251  2.4982  2.7835
18175TIP3   OH276015   2.520   4.625   1.375 -0.3183 -0.3450 -0.4616
18175TIP3    H176016   2.554   4.590   1.457 -0.7401  1.0118  0.3167
18175TIP3    H276017   2.572   4.704   1.359  0.6323 -1.2605 -2.1915
18176TIP3   OH276018   1.164   6.433  16.526  0.5904  0.2053  0.6386
18176TIP3    H176019   1.082   6.445  16.574  0.8713  1.7160  0.7841
18176TIP3    H276020   1.137   6.399  16.441 -0.0870 -0.3869  1.0761
18177TIP3   OH276021   4.855   1.735  11.807 -0.9121 -0.3153  0.3133
18177TIP3    H176022   4.885   1.705  11.721 -0.0921 -1.3979  0.9472
18177TIP3    H276023   4.919   1.698  11.869 -0.7363  1.4854  1.2942
18178TIP3   OH276024   6.182   3.232  16.106  0.2798  0.1367 -0.1174
18178TIP3    H176025   6.135   3.262  16.184  1.1555 -1.7637  1.2271
18178TIP3    H276026   6.196   3.139  16.122 -1.6621 -0.9260 -3.7071
18179TIP3   OH276027   0.625   2.871   0.913 -0.0156  0.8567  0.4318
18179TIP3    H176028   0.575   2.816   0.974 -1.9465  0.8417 -1.0779
18179TIP3    H276029   0.705   2.821   0.895 -0.8952 -0.6083  0.4932
18180TIP3   OH276030   1.512   5.569   1.006  0.0052 -0.0847  0.0310
18180TIP3    H176031   1.551   5.654   0.986  0.0084  0.0618  0.6403
18180TIP3    H276032   1.449   5.587   1.076 -0.6023 -0.4456 -0.4179
18181TIP3   OH276033   0.526   0.499   1.196 -0.1772  0.4190 -0.5744
18181TIP3    H176034   0.476   0.554   1.136 -0.3158  0.7192 -0.1915
18181TIP3    H276035   0.560   0.560   1.261 -2.3017 -0.1996  1.2418
18182TIP3   OH276036   5.926   2.068  12.245  0.4839  0.3004 -0.4103
18182TIP3    H176037   5.845   2.047  12.293  0.7032 -1.2992 -0.6766
18182TIP3    H276038   5.901   2.138  12.186 -0.3267  0.8600  0.5610
18183TIP3   OH276039   4.508   4.126  15.234 -0.2199  0.3741 -0.2738
18183TIP3    H176040   4.471   4.102  15.149  0.8443 -1.3450 -0.2930
18183TIP3    H276041   4.599   4.149  15.215 -0.4320  1.6604  0.1830
18184TIP3   OH276042   4.140   0.552  16.819 -0.1959 -0.2378  0.1678
18184TIP3    H176043   4.099   0.580  16.737  1.5430  2.0878 -0.0095
18184TIP3    H276044   4.138   0.630  16.875  3.2933 -0.1311  0.3523
18185TIP3   OH276045   0.252   0.156  15.878  0.0956  0.0332  0.7042
18185TIP3    H176046   0.173   0.203  15.904  0.0690  0.7560 -0.5615
18185TIP3    H276047   0.252   0.076  15.930 -0.2170  1.1242  2.4317
18186TIP3   OH276048   6.482   5.521   3.216 -0.0065  0.0289  0.1675
18186TIP3    H176049   6.567   5.514   3.260  0.2534 -0.4861 -0.3892
18186TIP3    H276050   6.441   5.436   3.230 -0.7326  0.5112  1.0188
18187TIP3   OH276051   3.728   0.077  14.831 -0.0731 -0.6514  0.1158
18187TIP3    H176052   3.674   0.102  14.906 -0.4020 -1.6722  0.2397
18187TIP3    H276053   3.812   0.051  14.870  0.7210  1.3576 -0.1083
18188TIP3   OH276054   3.426   1.893   6.222  0.3082  0.5096  0.1907
18188TIP3    H176055   3.447   1.835   6.149 -0.5616 -1.1102  1.1973
18188TIP3    H276056   3.335   1.918   6.208 -0.0554 -0.3156  1.0540
18189TIP3   OH276057   2.532   5.165   3.316  0.1947 -0.9157  0.4250
18189TIP3    H176058   2.557   5.165   3.224 -0.1455  0.1371  0.3223
18189TIP3    H276059   2.491   5.080   3.330  1.0341 -1.4380 -0.1654
18190TIP3   OH276060   1.709   5.525  15.235  0.1365 -0.0241  0.5645
18190TIP3    H176061   1.663   5.500  15.315  1.0376  0.5257  1.2822
18190TIP3    H276062   1.767   5.596  15.262 -0.5535  1.1533 -0.8834
18191TIP3   OH276063   1.057   3.094   5.457 -0.0892 -0.3688 -0.1747
18191TIP3    H176064   1.123   3.025   5.459 -0.0797 -0.3496  0.7844
18191TIP3    H276065   0.991   3.062   5.396 -0.4138 -1.5441  0.7531
18192TIP3   OH276066   5.832   0.358   2.596  0.0374  0.3328  0.5837
18192TIP3    H176067   5.741   0.329   2.590  0.3455 -0.4564 -0.4090
18192TIP3    H276068   5.827   0.454   2.592 -0.8212  0.3601  1.6903
18193TIP3   OH276069   3.592   4.466  12.604  0.1372 -0.2283 -0.0947
18193TIP3    H176070   3.583   4.376  12.637 -0.8805  0.0849  0.5392
18193TIP3    H276071   3.536   4.468  12.527  2.7110 -1.0327 -2.1461
18194TIP3   OH276072   3.127   0.140   2.053 -0.0044  0.3727  0.0547
18194TIP3    H176073   3.122   0.131   2.148 -0.7244 -0.1467 -0.0244
18194TIP3    H276074   3.036   0.138   2.024  0.2084  0.5907 -0.6403
18195TIP3   OH276075   0.136   2.673  14.852  0.3083  0.1096 -0.4277
18195TIP3    H176076   0.042   2.695  14.857  0.3537  0.5036 -1.1354
18195TIP3    H276077   0.180   2.753  14.879  0.4493  0.3228 -1.2515
18196TIP3   OH276078   2.159   3.567   1.497 -0.2338 -0.0900  0.4536
18196TIP3    H176079   2.219   3.615   1.554 -0.8757  1.5803 -0.2287
18196TIP3    H276080   2.200   3.481   1.487  2.0507  0.9707  0.0460
18197TIP3   OH276081   2.242   6.026  12.223  0.2018  0.9879 -0.1040
18197TIP3    H176082   2.297   6.019  12.301 -0.5634  0.8093  0.4297
18197TIP3    H276083   2.166   5.971  12.242 -0.9108  2.4575 -0.1768
18198TIP3   OH276084   4.714   3.823   1.957  0.2354 -0.0916 -0.3386
18198TIP3    H176085   4.688   3.844   2.047 -0.5493 -0.3852 -0.4886
18198TIP3    H276086   4.702   3.904   1.909 -0.5012 -0.2400 -0.4204
18199TIP3   OH276087   4.211   6.287  11.920 -0.1444  0.2370  0.4846
18199TIP3    H176088   4.196   6.247  11.835  1.9039  0.0167  0.1748
18199TIP3    H276089   4.272   6.227  11.964  1.4741  1.9972  0.7611
18200TIP3   OH276090   5.832   1.779  13.510 -0.0840  0.0117 -0.3712
18200TIP3    H176091   5.750   1.799  13.556 -0.8049  0.1656 -1.6632
18200TIP3    H276092   5.849   1.687  13.530 -1.4690 -0.4921 -1.3646
18201TIP3   OH276093   2.800   1.690  15.198  0.0860  0.3683 -0.3214
18201TIP3    H176094   2.809   1.772  15.246 -0.0448  1.9621 -2.8439
18201TIP3    H276095   2.709   1.691  15.167  0.0987 -0.7199 -0.4170
18202TIP3   OH276096   5.466   6.853   5.238  0.7998 -0.6022 -0.9080
18202TIP3    H176097   5.518   6.923   5.280  0.5180 -0.5224 -0.6875
18202TIP3    H276098   5.393   6.839   5.298  0.0513 -0.0651 -1.6625
18203TIP3   OH276099   1.231   2.555   3.925  0.4834 -0.1576 -0.0346
18203TIP3    H176100   1.301   2.587   3.868  0.4022  0.2303  0.0824
18203TIP3    H276101   1.198   2.477   3.880  0.2233  0.3094 -0.6644
18204TIP3   OH276102   0.263   5.478  13.241 -0.6651 -0.4066  0.0993
18204TIP3    H176103   0.275   5.535  13.317 -0.9357  0.6057 -0.5952
18204TIP3    H276104   0.324   5.406  13.255 -0.8835 -0.3585  1.3895
18205TIP3   OH276105   6.276   6.628   5.148 -0.5356 -0.8530  0.2178
18205TIP3    H176106   6.263   6.573   5.226  0.9347 -1.0164  0.3609
18205TIP3    H276107   6.252   6.716   5.176 -1.4547 -1.1555  0.4172
18206TIP3   OH276108   2.664   0.840  13.144  0.0914 -0.5575 -0.6192
18206TIP3    H176109   2.720   0.890  13.204 -1.6119 -1.3674  1.7885
18206TIP3    H276110   2.631   0.906  13.083  0.4114  0.6799  0.4855
18207TIP3   OH276111   0.454   3.954  15.013  0.7363  0.1859  0.2532
18207TIP3    H176112   0.544   3.976  14.988 -0.1181  3.2041 -0.5112
18207TIP3    H276113   0.426   4.026  15.070 -1.2445 -0.6438  0.4295
18208TIP3   OH276114   4.188   4.676   5.644 -0.1880 -0.5829 -0.3363
18208TIP3    H176115   4.275   4.694   5.608 -0.2999 -1.2188 -0.9312
18208TIP3    H276116   4.156   4.762   5.671  1.4372 -0.5493  1.8012
18209TIP3   OH276117   0.165   6.121   0.894  0.1586  0.0863 -0.1554
18209TIP3    H176118   0.162   6.215   0.873 -1.5541 -0.2061 -1.4421
18209TIP3    H276119   0.233   6.086   0.837 -1.2125  0.1088 -1.8917
18210TIP3   OH276120   3.273   5.700  12.962  0.2029 -0.1147  0.5417
18210TIP3    H176121   3.337   5.633  12.986  0.4833  0.2355  0.7835
18210TIP3    H276122   3.201   5.688  13.024 -0.1050 -0.7044  0.0787
18211TIP3   OH276123   0.287   6.358  16.604 -0.1181 -0.1011 -0.2704
18211TIP3    H176124   0.338   6.318  16.534 -0.2367 -0.0737 -0.3706
18211TIP3    H276125   0.197   6.360  16.572 -0.6316 -2.3344  0.8276
18212TIP3   OH276126   5.797   4.208  13.289 -0.0723  0.7666 -0.2553
18212TIP3    H176127   5.785   4.302  13.304 -2.4015  0.3219  1.1428
18212TIP3    H276128   5.711   4.177  13.263  0.2575 -1.2210  0.8227
18213TIP3   OH276129   3.335   0.698  16.475  0.2950 -0.6432  0.0198
18213TIP3    H176130   3.374   0.717  16.560  0.7144 -0.4672 -0.2127
18213TIP3    H276131   3.313   0.783  16.438  1.5986 -0.6116 -0.7483
18214TIP3   OH276132   4.665   6.752  11.472  0.0837  0.8076  0.7174
18214TIP3    H176133   4.759   6.764  11.457 -0.3152  0.8120 -2.5160
18214TIP3    H276134   4.649   6.661  11.445 -1.1604  1.5365 -1.2034
18215TIP3   OH276135   6.625   2.683   5.384 -0.7645 -0.4404  0.3756
18215TIP3    H176136   6.584   2.606   5.345  0.8888 -1.2276  0.1042
18215TIP3    H276137   6.715   2.656   5.403  0.0512  1.5817 -0.2602
18216TIP3   OH276138   5.554   6.468   0.134  0.1633 -0.0243  0.1858
18216TIP3    H176139   5.511   6.511   0.208 -0.9718  1.7165 -1.4057
18216TIP3    H276140   5.631   6.522   0.115 -0.4937  0.5599 -0.9374
18217TIP3   OH276141   3.129   4.440  16.053 -0.3220  0.1108  0.2118
18217TIP3    H176142   3.170   4.503  16.113 -1.0807  0.4859  0.3438
18217TIP3    H276143   3.138   4.479  15.967 -0.5347  0.2583  0.2577
18218TIP3   OH276144   3.268   6.337   2.888 -0.0184 -0.0428 -1.2411
18218TIP3    H176145   3.213   6.296   2.955 -0.9086 -0.8768 -2.4389
18218TIP3    H276146   3.303   6.415   2.931 -0.5867 -0.5232  0.1779
18219TIP3   OH276147   5.393   5.090   4.959 -0.4828  0.2226  0.2477
18219TIP3    H176148   5.460   5.113   4.895  0.2386  2.0387  1.5754
18219TIP3    H276149   5.378   4.996   4.945  1.7885 -0.0784 -0.5791
18220TIP3   OH276150   4.556   6.324  15.252  0.3233 -0.8738 -0.0105
18220TIP3    H176151   4.523   6.242  15.214 -1.3328  0.4379 -1.5994
18220TIP3    H276152   4.629   6.349  15.196 -1.2751  0.3647 -1.6881
18221TIP3   OH276153   2.869   4.866  16.752  0.0957  0.3067 -0.2540
18221TIP3    H176154   2.780   4.892  16.776 -0.6039 -1.3140 -0.9172
18221TIP3    H276155   2.885   4.910  16.669 -0.8738 -0.8827 -1.1116
18222TIP3   OH276156   2.904   0.032   3.085 -0.0293 -0.3697 -0.8543
18222TIP3    H176157   2.900   0.084   3.005  0.6061  2.4391  0.8043
18222TIP3    H276158   2.859   0.084   3.151  1.0240 -1.7104  1.0485
18223TIP3   OH276159   5.309   6.841  14.691 -0.4814 -0.3737  0.2842
18223TIP3    H176160   5.346   6.773  14.635  1.2740  0.1494  0.7603
18223TIP3    H276161   5.385   6.888  14.725 -1.5976  0.7089  1.3609
18224TIP3   OH276162   5.095   1.125  13.487 -0.6103  0.1259 -0.2362
18224TIP3    H176163   5.094   1.031  13.474  0.9483  0.1347 -0.7127
18224TIP3    H276164   5.008   1.155  13.461 -0.4315 -0.9177 -2.2291
18225TIP3   OH276165   2.922   4.737   3.684 -0.3297  0.4037  0.0163
18225TIP3    H176166   2.885   4.736   3.773 -0.1206  0.4392  0.1034
18225TIP3    H276167   2.873   4.668   3.638  0.1964 -0.2518  0.4190
18226TIP3   OH276168   1.254   5.559   4.303  0.5657 -0.1797 -0.7305
18226TIP3    H176169   1.284   5.562   4.394  1.5053 -0.4337 -1.0175
18226TIP3    H276170   1.183   5.623   4.299  1.0610  0.4368 -0.0121
18227TIP3   OH276171   0.363   6.520  14.717 -0.1286  0.2881  0.2438
18227TIP3    H176172   0.290   6.542  14.774 -0.5004 -1.2251  0.4064
18227TIP3    H276173   0.409   6.449  14.764  0.4880  0.1093 -0.6030
18228TIP3   OH276174   4.024   6.014  14.640 -0.0349 -0.4831 -0.1434
18228TIP3    H176175   4.044   6.034  14.731 -0.6488 -0.5560  0.0116
18228TIP3    H276176   3.929   6.028  14.632 -0.3580 -2.4155 -0.2601
18229TIP3   OH276177   6.297   6.191   2.972 -0.0308 -0.6113  0.0888
18229TIP3    H176178   6.278   6.136   3.049  1.2326 -2.3270 -0.7501
18229TIP3    H276179   6.392   6.192   2.966 -0.0059  1.6667 -0.0103
18230TIP3   OH276180   3.548   0.083   1.519  0.3642 -0.2225  0.0178
18230TIP3    H176181   3.629   0.041   1.491  0.4573 -0.5909  0.8016
18230TIP3    H276182   3.502   0.104   1.438  0.4881 -1.5033 -0.4056
18231TIP3   OH276183   0.180   5.751   4.483 -0.3552 -0.0513 -0.1671
18231TIP3    H176184   0.159   5.757   4.390 -1.5227  0.2083  0.1025
18231TIP3    H276185   0.104   5.788   4.527  0.5316  0.5996  0.8712
18232TIP3   OH276186   3.014   3.785  14.755  0.0930 -0.0530 -0.0364
18232TIP3    H176187   3.096   3.778  14.705 -0.0137 -0.8450 -0.1138
18232TIP3    H276188   2.965   3.705  14.732 -0.2355 -0.1155  0.8389
18233TIP3   OH276189   6.725   6.240   1.007  0.1528 -0.4088  0.0659
18233TIP3    H176190   6.810   6.246   1.050  0.2694 -0.8760 -0.0997
18233TIP3    H276191   6.724   6.154   0.966 -0.7628 -0.7925  0.8382
18234TIP3   OH276192   0.825   2.419   4.053  0.6208 -0.1062 -0.0927
18234TIP3    H176193   0.746   2.383   4.092  0.8830  0.3628  0.8981
18234TIP3    H276194   0.842   2.499   4.103  2.2778 -0.7153  0.3737
18235TIP3   OH276195   1.852   0.289   5.239  0.0809  0.3902  0.0765
18235TIP3    H176196   1.873   0.299   5.146 -0.6936 -2.5282 -0.5246
18235TIP3    H276197   1.908   0.217   5.267 -1.3766 -0.3415  1.2221
18236TIP3   OH276198   6.558   0.652  13.649  0.4885 -0.1060 -0.5198
18236TIP3    H176199   6.578   0.649  13.743  1.1733 -0.9767 -0.6744
18236TIP3    H276200   6.570   0.561  13.620  0.3286  0.1684 -1.4572
18237TIP3   OH276201   6.396   2.375  12.711  0.1621  0.1038 -0.5549
18237TIP3    H176202   6.451   2.300  12.688 -0.6354 -1.7042  2.8083
18237TIP3    H276203   6.450   2.426  12.771 -1.0410 -0.7037  1.3147
18238TIP3   OH276204   0.066   4.998  14.747 -0.0499  0.6137  0.7372
18238TIP3    H176205   0.115   5.069  14.705  0.6537 -0.4924 -0.3880
18238TIP3    H276206  -0.024   5.010  14.718  0.3862 -0.0075 -0.9649
18239TIP3   OH276207   5.907   4.993  16.647  0.3608 -0.0492  0.3524
18239TIP3    H176208   5.967   4.923  16.672  0.6135  0.5025  1.3624
18239TIP3    H276209   5.829   4.948  16.617 -0.1542 -0.8132  2.6223
18240TIP3   OH276210   0.450   2.806   6.345 -0.2885 -0.1147 -0.5318
18240TIP3    H176211   0.507   2.869   6.389 -0.1333  0.8541 -2.0519
18240TIP3    H276212   0.381   2.788   6.409  0.5665  0.3105  0.5402
18241TIP3   OH276213   2.147   4.444  15.696  0.4196  0.1704 -0.0395
18241TIP3    H176214   2.075   4.436  15.632  0.4966  0.4153 -0.1595
18241TIP3    H276215   2.222   4.404  15.653  0.4023  0.0878  0.0079
18242TIP3   OH276216   5.498   0.865   6.248  0.1541  0.0902  0.4225
18242TIP3    H176217   5.416   0.817   6.238 -0.3626  0.7280  1.3366
18242TIP3    H276218   5.470   0.953   6.274  1.0876  0.7330 -0.6640
18243TIP3   OH276219   4.924   0.874  13.438  0.0570  0.0068  0.5081
18243TIP3    H176220   4.842   0.861  13.391 -0.0166  1.4218  0.1827
18243TIP3    H276221   4.897   0.889  13.529 -0.1752  1.6476  0.2001
18244TIP3   OH276222   4.140   0.425  11.432 -0.9456  0.3385  0.5225
18244TIP3    H176223   4.124   0.492  11.497 -0.5584  2.3391 -1.3186
18244TIP3    H276224   4.065   0.429  11.373 -0.5295 -0.2648 -0.0751
18245TIP3   OH276225   2.068   4.748  11.661 -0.4860 -0.5412  0.1716
18245TIP3    H176226   2.041   4.662  11.695 -1.9780 -0.2840 -0.2745
18245TIP3    H276227   2.037   4.748  11.571  0.5958  0.0142 -0.2134
18246TIP3   OH276228   1.249   2.359   2.165 -0.1456  0.1062 -0.2240
18246TIP3    H176229   1.171   2.375   2.218  0.8718  0.0630  1.3302
18246TIP3    H276230   1.224   2.288   2.105 -0.6867 -1.3656  1.6622
18247TIP3   OH276231   6.201   4.698   1.337 -0.1260 -0.1056  0.1926
18247TIP3    H176232   6.187   4.780   1.291  0.2451 -0.0617  0.1526
18247TIP3    H276233   6.116   4.676   1.375  0.1708  1.2662  1.8044
18248TIP3   OH276234   2.757   5.555  14.419  0.0555 -0.1767  0.6276
18248TIP3    H176235   2.696   5.526  14.487  1.0087  1.2781  2.1977
18248TIP3    H276236   2.707   5.551  14.338 -1.6609 -0.3953  1.6563
18249TIP3   OH276237   0.756   4.122  17.035 -0.5566  0.3697  0.2459
18249TIP3    H176238   0.767   4.190  16.969  0.3204  0.5108  0.5127
18249TIP3    H276239   0.703   4.162  17.103 -0.4598  0.6241  0.1724
18250TIP3   OH276240   1.408   0.575  15.701 -0.1872  1.1181  0.6119
18250TIP3    H176241   1.500   0.602  15.705  0.0190  1.0429 -2.1496
18250TIP3    H276242   1.372   0.601  15.786  2.5787  0.2910  2.1523
18251TIP3   OH276243   1.541   1.636   3.686 -0.0489 -0.1554 -0.5081
18251TIP3    H176244   1.452   1.667   3.669 -0.1412 -0.2727 -0.2607
18251TIP3    H276245   1.563   1.673   3.772  0.1781 -0.0457 -0.6149
18252TIP3   OH276246   2.789   2.386   0.673  0.1137 -0.1718  0.3175
18252TIP3    H176247   2.791   2.340   0.589  1.3774  0.5362 -0.0570
18252TIP3    H276248   2.812   2.477   0.652 -1.8236  0.5737  1.1142
18253TIP3   OH276249   5.596   0.889  11.396 -0.0735  0.8071 -0.1402
18253TIP3    H176250   5.665   0.882  11.330  0.6628  0.3474  0.6571
18253TIP3    H276251   5.633   0.946  11.463 -0.8574  1.3568 -0.1660
18254TIP3   OH276252   4.032   1.994   6.565  0.0246  0.0790  0.0767
18254TIP3    H176253   4.069   2.082   6.561  3.4877 -1.2650 -1.2715
18254TIP3    H276254   4.035   1.971   6.658  1.1823  0.6192  0.1967
18255TIP3   OH276255   3.067   1.618  16.884  0.1703 -0.4046 -0.3549
18255TIP3    H176256   3.123   1.578  16.950  0.5769  0.2723 -0.2803
18255TIP3    H276257   3.092   1.576  16.802 -0.1186 -1.0249 -0.1294
18256TIP3   OH276258   6.660   0.873   3.935  0.5096  1.4301  0.0991
18256TIP3    H176259   6.619   0.958   3.954 -0.5678  1.0700 -0.5434
18256TIP3    H276260   6.608   0.809   3.983 -0.2247  0.8783 -1.3573
18257TIP3   OH276261   2.228   3.065   1.985  0.4274 -0.3163 -0.2460
18257TIP3    H176262   2.320   3.051   2.006 -0.5618 -4.3176  2.9987
18257TIP3    H276263   2.192   3.106   2.064 -0.9627 -1.4705 -0.2352
18258TIP3   OH276264   1.729   0.761   1.331 -0.4713 -0.4706  0.2250
18258TIP3    H176265   1.744   0.733   1.241  0.3093 -0.7895  0.4409
18258TIP3    H276266   1.638   0.791   1.333 -0.2527  0.2967 -0.8564
18259TIP3   OH276267   0.245   1.149  11.306 -0.9490  0.6503  1.0096
18259TIP3    H176268   0.211   1.126  11.393 -0.2134  0.7917  1.3382
18259TIP3    H276269   0.306   1.220  11.322  1.4055 -1.1857  0.7882
18260TIP3   OH276270   2.169   2.489  16.827  0.2419 -0.0937  0.2526
18260TIP3    H176271   2.209   2.529  16.749  1.2876 -0.5250  0.5467
18260TIP3    H276272   2.090   2.446  16.794 -0.9812  2.2440 -0.0516
18261TIP3   OH276273   4.170   5.461   5.839  0.0089  0.0024 -0.4145
18261TIP3    H176274   4.135   5.457   5.928 -1.6486  0.6551 -0.9984
18261TIP3    H276275   4.241   5.398   5.838  0.5192  0.4860  1.5698
18262TIP3   OH276276   5.460   1.518  11.990 -0.1932 -0.8264  0.4546
18262TIP3    H176277   5.543   1.495  12.032  0.5543 -0.7592 -0.9029
18262TIP3    H276278   5.435   1.438  11.942  0.3874 -0.1126 -1.1111
18263TIP3   OH276279   3.498   3.910  10.553  0.1689  0.0983  0.3581
18263TIP3    H176280   3.466   3.837  10.499  0.1467 -0.4716  1.1204
18263TIP3    H276281   3.592   3.913  10.537  0.0509  0.4575 -0.3209
18264TIP3   OH276282   6.362   2.675   3.330  0.0042 -0.4269  0.0942
18264TIP3    H176283   6.329   2.692   3.242 -1.9657  0.1448  0.8950
18264TIP3    H276284   6.379   2.762   3.367  2.0373 -0.6828 -0.0963
18265TIP3   OH276285   2.223   2.710  10.907  0.5130  0.3257 -0.2624
18265TIP3    H176286   2.269   2.748  10.832 -1.8328  2.0442 -0.9793
18265TIP3    H276287   2.270   2.744  10.983  1.4973  0.5435 -0.9431
18266TIP3   OH276288   3.405   3.532   1.365  0.9303 -0.4013  0.8370
18266TIP3    H176289   3.353   3.611   1.346  0.6183 -1.0957 -1.5117
18266TIP3    H276290   3.494   3.565   1.378  0.7691  0.3588  0.0846
18267TIP3   OH276291   4.965   3.328  14.679  0.3104  0.3569 -0.2893
18267TIP3    H176292   4.900   3.319  14.748  0.8119  0.3299  0.1790
18267TIP3    H276293   5.033   3.265  14.701  1.0283  1.1529 -0.1787
18268TIP3   OH276294   0.139   6.449  16.852 -0.7377 -0.6342  0.0389
18268TIP3    H176295   0.148   6.360  16.888  2.0309 -0.2720  0.4806
18268TIP3    H276296   0.155   6.438  16.758 -1.2879 -0.6986 -0.0506
18269TIP3   OH276297   2.356   3.490  11.453 -0.4719 -0.2651 -0.3611
18269TIP3    H176298   2.334   3.515  11.364  2.1176  0.9494 -0.7477
18269TIP3    H276299   2.314   3.556  11.508  0.1054  0.5393 -0.8761
18270TIP3   OH276300   3.164   2.217   3.768  0.1815 -0.3827  0.0998
18270TIP3    H176301   3.129   2.184   3.851 -1.0335 -1.1797 -0.6822
18270TIP3    H276302   3.154   2.312   3.774 -0.1607 -0.4521  0.7631
18271TIP3   OH276303   3.503   1.698  12.161 -0.2577 -0.3267  0.5003
18271TIP3    H176304   3.574   1.712  12.224 -0.9098 -0.0594  1.1880
18271TIP3    H276305   3.544   1.713  12.075  0.2721  0.8830  0.9395
18272TIP3   OH276306   6.709   1.099   0.285 -0.0948  1.0852  0.4552
18272TIP3    H176307   6.769   1.035   0.246 -1.6537 -0.0778 -0.1017
18272TIP3    H276308   6.727   1.093   0.379 -0.5618 -0.5677  0.4713
18273TIP3   OH276309   2.740   1.948   1.248 -0.4744  0.3590  0.8191
18273TIP3    H176310   2.707   1.877   1.193 -0.7887  0.1543  1.2597
18273TIP3    H276311   2.796   1.904   1.312  0.4984  0.6822  0.2060
18274TIP3   OH276312   0.375   4.270  12.934  0.0580  0.1177  0.4506
18274TIP3    H176313   0.334   4.352  12.907  0.6077  0.7203  1.3513
18274TIP3    H276314   0.305   4.221  12.976  0.0819  0.8674  1.4148
18275TIP3   OH276315   6.458   1.463   0.043  0.0499  0.7104 -0.4355
18275TIP3    H176316   6.501   1.499  -0.035 -0.7750  0.5490 -0.9786
18275TIP3    H276317   6.366   1.482   0.030 -0.5082 -2.0847 -1.0171
18276TIP3   OH276318   2.904   0.274  15.710 -0.2823  0.5184  0.1766
18276TIP3    H176319   2.866   0.362  15.709 -1.7563 -0.0163  2.2384
18276TIP3    H276320   2.990   0.285  15.750 -0.9329  0.8965  1.5185
18277TIP3   OH276321   0.873   0.857  17.004 -0.2265  0.3179 -0.1339
18277TIP3    H176322   0.867   0.943  17.047 -1.2234  0.3437 -0.2989
18277TIP3    H276323   0.787   0.845  16.962 -0.4302 -1.1494  0.6247
18278TIP3   OH276324   2.117   2.072  12.833  0.2019  0.6500 -0.2142
18278TIP3    H176325   2.189   2.013  12.858 -0.1694  0.5158  0.5845
18278TIP3    H276326   2.052   2.015  12.793  0.6362  0.8099 -1.1784
18279TIP3   OH276327   0.996   4.282   1.211 -0.3722 -0.0269  0.4472
18279TIP3    H176328   0.918   4.329   1.179 -0.9315 -0.3109  1.3737
18279TIP3    H276329   1.048   4.349   1.254  0.7548  0.5213 -1.6218
18280TIP3   OH276330   5.487   5.313   2.119  0.6679  0.6665  0.3038
18280TIP3    H176331   5.484   5.258   2.041  1.6572 -0.3875  0.9759
18280TIP3    H276332   5.477   5.252   2.192  0.9763  1.4752  1.0398
18281TIP3   OH276333   3.267   6.630  11.502  0.4516 -0.2889  0.5020
18281TIP3    H176334   3.285   6.621  11.409 -0.6168  0.3669  0.2105
18281TIP3    H276335   3.183   6.586  11.515  1.2246 -1.5678  1.4297
18282TIP3   OH276336   0.362   6.423   6.375 -0.2512 -0.5967  0.0641
18282TIP3    H176337   0.402   6.359   6.315  1.3016 -0.8822  1.3431
18282TIP3    H276338   0.420   6.499   6.372 -2.0170  0.7996 -1.3496
18283TIP3   OH276339   2.777   3.951   0.444 -0.3972 -0.3188  0.0267
18283TIP3    H176340   2.720   4.019   0.407 -0.3275  0.1132  0.7023
18283TIP3    H276341   2.809   3.988   0.526 -1.0050 -1.4855  0.8274
18284TIP3   OH276342   3.225   5.915   0.322 -0.1234 -0.5562  0.0933
18284TIP3    H176343   3.215   5.861   0.400  0.9717  0.7169  1.1527
18284TIP3    H276344   3.223   6.005   0.354  2.7280 -0.0226 -0.9869
18285TIP3   OH276345   2.202   4.544  15.090  0.3095 -0.2507 -0.3613
18285TIP3    H176346   2.170   4.633  15.106 -0.8643 -0.6841 -0.2063
18285TIP3    H276347   2.228   4.543  14.998  0.0966  0.1777 -0.4256
18286TIP3   OH276348   1.270   4.750   2.713 -0.2256 -0.1425 -0.5482
18286TIP3    H176349   1.356   4.789   2.705  0.0378 -0.5416  0.1870
18286TIP3    H276350   1.249   4.758   2.806 -1.4288  0.8732 -0.8767
18287TIP3   OH276351   4.562   1.144   5.833  0.4656  0.2913  0.1109
18287TIP3    H176352   4.634   1.178   5.887  1.2087  0.5727 -1.0004
18287TIP3    H276353   4.586   1.053   5.816  1.8289  0.9864 -2.1620
18288TIP3   OH276354   0.766   5.729  11.984  0.0689  0.1365  0.3036
18288TIP3    H176355   0.735   5.818  12.001  0.7398  0.0650  2.1184
18288TIP3    H276356   0.831   5.713  12.051 -1.6308 -2.5481  1.4940
18289TIP3   OH276357   1.470   1.939  15.488 -0.4431 -0.3950  0.3523
18289TIP3    H176358   1.433   1.970  15.406  1.2582  0.4297 -0.1486
18289TIP3    H276359   1.468   1.844  15.481  0.3623 -0.3444 -1.0030
18290TIP3   OH276360   1.112   2.652   3.623  0.0192  0.0321  0.5720
18290TIP3    H176361   1.094   2.667   3.715  0.6998 -0.1985  0.7449
18290TIP3    H276362   1.204   2.627   3.619 -0.5622 -2.3264  0.1212
18291TIP3   OH276363   5.011   5.337  11.229 -0.2315 -0.6712  0.0867
18291TIP3    H176364   4.966   5.402  11.175 -0.7332  0.3936  1.7102
18291TIP3    H276365   5.007   5.256  11.178 -0.4852  0.3353 -1.5392
18292TIP3   OH276366   6.437   0.080  15.032  0.3350 -0.1615  0.0324
18292TIP3    H176367   6.374   0.048  14.968  1.5009 -0.7872 -0.8549
18292TIP3    H276368   6.518   0.091  14.982  0.8115  1.0680  1.0355
18293TIP3   OH276369   4.480   3.502  11.687  0.0310  0.7995  0.1895
18293TIP3    H176370   4.483   3.596  11.672  1.8868  1.0562  1.7200
18293TIP3    H276371   4.487   3.463  11.600 -0.6016  2.0556 -0.4506
18294TIP3   OH276372   6.422   6.034  15.116 -0.2676 -0.3555  0.4433
18294TIP3    H176373   6.353   5.969  15.119 -1.4080  0.8538  1.7311
18294TIP3    H276374   6.428   6.068  15.205  1.9906 -0.3991  0.3789
18295TIP3   OH276375   1.033   5.877   2.974  0.0571 -0.2369  0.1856
18295TIP3    H176376   1.125   5.870   2.948  0.1635 -0.8729  0.6895
18295TIP3    H276377   0.992   5.927   2.904  0.9005  0.5602  0.2447
18296TIP3   OH276378   4.107   1.238  15.209 -0.0330  0.1274  0.3516
18296TIP3    H176379   4.055   1.318  15.213  1.6003  1.4436 -2.0446
18296TIP3    H276380   4.045   1.170  15.182 -0.7965  1.3855 -1.2449
18297TIP3   OH276381   2.178   6.720   0.706  0.1378  0.6708  0.6413
18297TIP3    H176382   2.143   6.632   0.693 -0.5964  1.2761 -2.1360
18297TIP3    H276383   2.273   6.710   0.697  0.2119 -0.0249  1.9355
18298TIP3   OH276384   2.265   4.405   3.338  0.0365 -0.1550 -0.8411
18298TIP3    H176385   2.328   4.333   3.332  2.1111  1.5526 -0.5617
18298TIP3    H276386   2.204   4.389   3.265  0.1527 -2.3958 -0.5274
18299TIP3   OH276387   1.412   6.256  12.227  0.0550  0.7173  0.0125
18299TIP3    H176388   1.467   6.233  12.152  1.3996  0.4527  1.0379
18299TIP3    H276389   1.334   6.202  12.217  0.7172 -0.1547 -0.5895
18300TIP3   OH276390   1.595   2.222   5.166  0.0571 -0.1874  0.4136
18300TIP3    H176391   1.613   2.265   5.250  0.3242 -2.6366  1.6934
18300TIP3    H276392   1.525   2.160   5.185 -3.4409  2.4850 -2.3657
18301TIP3   OH276393   1.445   2.229  16.215  0.5470 -0.1845 -0.2886
18301TIP3    H176394   1.359   2.188  16.206  1.4883 -2.8314  1.5634
18301TIP3    H276395   1.426   2.316  16.250 -1.4429  0.3028 -2.3023
18302TIP3   OH276396   4.290   5.721   5.402  0.5814  0.7233  0.5130
18302TIP3    H176397   4.351   5.745   5.471 -0.3477 -1.6046  2.2865
18302TIP3    H276398   4.213   5.686   5.448 -1.5161  2.1312 -1.6366
18303TIP3   OH276399   4.518   4.412  15.761 -0.3319  0.0367  0.0569
18303TIP3    H176400   4.462   4.443  15.832 -1.8683 -0.5982 -0.8341
18303TIP3    H276401   4.494   4.320  15.750  1.3676 -0.4554  0.0631
18304TIP3   OH276402   0.456   0.659  11.765 -0.5386 -0.1735  0.3433
18304TIP3    H176403   0.516   0.587  11.744 -1.3856 -0.5924 -0.7247
18304TIP3    H276404   0.372   0.616  11.779 -1.1494  0.6376 -0.7146
18305TIP3   OH276405   3.161   5.091  14.088 -0.3443  0.2689 -0.4098
18305TIP3    H176406   3.082   5.058  14.131 -0.5172 -0.8441 -1.5328
18305TIP3    H276407   3.233   5.047  14.132 -0.3899  0.7187  0.1196
18306TIP3   OH276408   4.007   3.215  16.889 -0.5548  0.0591 -0.4678
18306TIP3    H176409   3.964   3.202  16.973 -0.5723  0.7443 -0.3638
18306TIP3    H276410   4.088   3.261  16.910 -0.7484  0.5959 -0.8588
18307TIP3   OH276411   4.337   6.211   0.465  0.1009  0.2109  0.3589
18307TIP3    H176412   4.395   6.139   0.442  0.0077  0.5441 -0.9815
18307TIP3    H276413   4.392   6.273   0.513  1.1056  0.9082 -1.5878
18308TIP3   OH276414   5.551   0.889  13.776  0.2440  0.4002  0.1302
18308TIP3    H176415   5.524   0.814  13.828  0.1108  0.5462  0.2734
18308TIP3    H276416   5.640   0.909  13.807 -0.0978  0.9235  0.8045
18309TIP3   OH276417   2.487   6.331   2.347  0.3731 -0.1621 -0.2181
18309TIP3    H176418   2.398   6.323   2.311 -0.1454  0.8894  0.7704
18309TIP3    H276419   2.532   6.390   2.285  0.4302 -0.7839 -0.7804
18310TIP3   OH276420   2.514   0.140  16.866 -0.7107 -0.2067 -0.1964
18310TIP3    H176421   2.589   0.194  16.842  1.2587 -1.2883  2.8768
18310TIP3    H276422   2.547   0.050  16.863 -1.9705 -0.7402  0.9170
18311TIP3   OH276423   5.078   0.915  10.609  0.6780 -0.1678  0.6418
18311TIP3    H176424   5.100   0.993  10.557 -0.7354  0.3782  0.8380
18311TIP3    H276425   4.993   0.935  10.648  0.4609 -1.6750  0.9842
18312TIP3   OH276426   4.194   5.508   3.385  0.5544  0.1430  0.0652
18312TIP3    H176427   4.221   5.530   3.295  1.6856 -1.3377 -0.0111
18312TIP3    H276428   4.181   5.592   3.428  1.2441  0.9007 -1.1443
18313TIP3   OH276429   6.228   3.092  13.142  0.0531  0.6292 -0.0672
18313TIP3    H176430   6.215   3.031  13.070  1.2173 -0.9901  1.0230
18313TIP3    H276431   6.144   3.095  13.188 -0.4270  0.9898 -0.9365
18314TIP3   OH276432   6.016   4.055  13.656  0.6930 -0.1968 -0.5073
18314TIP3    H176433   6.089   4.042  13.717  0.6845 -0.0911 -0.4757
18314TIP3    H276434   6.006   3.970  13.613  0.4541 -0.3863 -0.0898
18315TIP3   OH276435   0.243   3.489  16.857  0.0971  0.3440 -0.0759
18315TIP3    H176436   0.325   3.453  16.892  0.7222  2.4672  0.7564
18315TIP3    H276437   0.260   3.499  16.763  0.9360  1.0946  0.1432
18316TIP3   OH276438   4.967   4.338  17.102 -0.2665 -0.0620  0.0419
18316TIP3    H176439   4.994   4.430  17.104 -0.5708  0.0434  1.9388
18316TIP3    H276440   5.041   4.292  17.062  0.9337  0.7400  1.2432
18317TIP3   OH276441   2.153   3.721  14.045 -0.1211  0.4791  0.0440
18317TIP3    H176442   2.110   3.799  14.081  0.9482  1.5942 -1.0110
18317TIP3    H276443   2.190   3.676  14.121 -2.8718 -0.4316  0.9896
18318TIP3   OH276444   1.599   5.375  11.271 -0.2144 -0.4754 -0.1839
18318TIP3    H176445   1.671   5.317  11.244  0.3559  0.6828 -1.1998
18318TIP3    H276446   1.592   5.360  11.366  0.8579 -1.1696 -0.1912
18319TIP3   OH276447   0.068   0.361  13.438  0.5634 -0.8634  0.0262
18319TIP3    H176448   0.034   0.448  13.417  0.4921 -1.0510 -0.6432
18319TIP3    H276449   0.058   0.310  13.357  1.5535 -1.2003  0.1017
18320TIP3   OH276450   2.632   0.408  13.946 -0.5021 -0.2416  1.0657
18320TIP3    H176451   2.627   0.350  13.870  1.1846 -0.5470  1.1624
18320TIP3    H276452   2.674   0.488  13.913 -1.2100  0.2578  1.3398
18321TIP3   OH276453   3.068   4.117   4.252  0.3909  0.1370  0.5610
18321TIP3    H176454   3.109   4.044   4.299 -1.7081 -1.4510  0.0427
18321TIP3    H276455   3.029   4.170   4.322  1.4393  0.4934  0.9011
18322TIP3   OH276456   6.127   5.370  12.270 -0.5233 -0.1315 -0.6366
18322TIP3    H176457   6.040   5.331  12.259 -0.3143 -0.9427  0.3892
18322TIP3    H276458   6.128   5.401  12.361  0.1554  0.1450 -0.7354
18323TIP3   OH276459   2.497   3.622   5.974 -0.4144 -0.3228 -0.2133
18323TIP3    H176460   2.515   3.678   6.050 -0.8502 -2.3545  1.4901
18323TIP3    H276461   2.403   3.635   5.958 -0.7319 -1.2116  0.7908
18324TIP3   OH276462   1.715   6.578  13.787  0.5421 -0.4623 -0.4662
18324TIP3    H176463   1.662   6.629  13.849  0.3859 -1.3495  0.1388
18324TIP3    H276464   1.672   6.590  13.702  1.4554  1.7789 -0.6863
18325TIP3   OH276465   0.148   4.998   0.294 -0.6752 -0.8182  0.1846
18325TIP3    H176466   0.108   4.934   0.235 -1.4122 -0.8343  0.6929
18325TIP3    H276467   0.206   5.049   0.237 -2.8472  0.4765 -0.9947
18326TIP3   OH276468   1.254   1.053  14.519 -0.2093 -0.4911 -0.1883
18326TIP3    H176469   1.202   1.097  14.586  1.3499  1.2786 -0.0579
18326TIP3    H276470   1.291   0.977  14.564 -0.9328 -0.5414  0.3280
18327TIP3   OH276471   5.506   4.983   3.820  0.2524  0.0431 -0.5350
18327TIP3    H176472   5.510   5.079   3.822  1.9040  0.0089 -0.7366
18327TIP3    H276473   5.521   4.961   3.728 -1.2367 -0.4141 -0.7062
18328TIP3   OH276474   1.833   2.901  14.491 -0.5048 -0.3229 -0.8322
18328TIP3    H176475   1.889   2.959  14.543 -0.8662 -1.6010  1.1005
18328TIP3    H276476   1.744   2.923  14.518 -0.7118 -0.8877 -1.0481
18329TIP3   OH276477   0.430   4.283  15.682  0.4863  0.4285  0.7903
18329TIP3    H176478   0.335   4.291  15.676  0.4076  0.0328  1.4457
18329TIP3    H276479   0.445   4.190  15.702  1.0630  0.2536 -0.3843
18330TIP3   OH276480   2.320   1.547   2.353 -0.2465  0.4349  0.1340
18330TIP3    H176481   2.406   1.506   2.357  0.7861  2.4978  0.4103
18330TIP3    H276482   2.258   1.475   2.362  1.4502 -1.0712  0.1550
18331TIP3   OH276483   5.659   2.419   0.248 -0.0707  0.5570  0.3666
18331TIP3    H176484   5.629   2.415   0.339  2.1330  3.2242  1.3496
18331TIP3    H276485   5.593   2.470   0.203 -0.6210  0.1669  0.7183
18332TIP3   OH276486   1.616   3.102   5.044 -0.0434 -0.2485 -0.6516
18332TIP3    H176487   1.524   3.114   5.065 -0.1047 -1.0916 -0.3627
18332TIP3    H276488   1.656   3.077   5.127  0.2574 -0.8021 -0.9514
18333TIP3   OH276489   4.139   5.472   4.956  0.1645 -0.1184  0.8960
18333TIP3    H176490   4.175   5.518   5.032  0.0422 -0.4792  1.1750
18333TIP3    H276491   4.044   5.483   4.964  0.1676  0.1283  0.6105
18334TIP3   OH276492   6.035   2.848  14.396 -0.4564 -0.0095 -0.0032
18334TIP3    H176493   5.983   2.928  14.392  0.9220  0.9281  0.1855
18334TIP3    H276494   6.072   2.839  14.308  0.0734  0.0545  0.2061
18335TIP3   OH276495   1.226   0.832  14.350 -0.0058 -0.1780  0.3612
18335TIP3    H176496   1.305   0.778  14.337  0.9403  1.0436  0.8450
18335TIP3    H276497   1.259   0.916  14.380 -1.5182  0.3642  0.5998
18336TIP3   OH276498   2.446   0.141  14.825  0.0706 -0.0092  0.0312
18336TIP3    H176499   2.384   0.205  14.789  1.5737  1.2101 -0.4828
18336TIP3    H276500   2.507   0.193  14.878 -1.1736 -1.5538  3.2902
18337TIP3   OH276501   2.358   2.810   1.248 -0.5523  0.5328  0.4584
18337TIP3    H176502   2.271   2.775   1.228 -0.9514  0.2140  2.5875
18337TIP3    H276503   2.408   2.733   1.275  0.4634  0.7029 -0.8106
18338TIP3   OH276504   2.577   2.079   1.627  0.2732  0.6118  0.7970
18338TIP3    H176505   2.548   1.988   1.627  0.0127  0.6921  1.6439
18338TIP3    H276506   2.517   2.123   1.567  2.4124 -0.3689 -2.3293
18339TIP3   OH276507   3.880   3.072   4.999 -0.2425  0.0418 -0.0219
18339TIP3    H176508   3.973   3.079   4.977 -0.0983 -0.2990  0.4624
18339TIP3    H276509   3.848   3.000   4.944  0.1032 -0.7668  0.8169
18340TIP3   OH276510   6.084   3.587   1.523 -0.0045 -0.1377  0.3462
18340TIP3    H176511   6.103   3.665   1.471 -0.2486 -1.3825 -1.7179
18340TIP3    H276512   6.010   3.613   1.578  0.9973  1.5713  0.9565
18341TIP3   OH276513   3.107   0.416   2.077  0.4219  0.7588  0.2505
18341TIP3    H176514   3.164   0.487   2.106  1.4956 -0.2204  0.6209
18341TIP3    H276515   3.155   0.336   2.099 -0.4387 -0.0820 -0.7903
18342TIP3   OH276516   0.397   4.444  13.818 -0.0595  0.0770 -0.4498
18342TIP3    H176517   0.396   4.534  13.786 -1.4596 -0.2623 -1.5002
18342TIP3    H276518   0.340   4.445  13.895 -0.1434  0.0784 -0.5111
18343TIP3   OH276519   0.158   2.878  13.417  0.6765 -0.0730  0.4685
18343TIP3    H176520   0.090   2.861  13.483  0.2597  0.7702  0.2720
18343TIP3    H276521   0.134   2.963  13.380  0.0161 -1.2035 -1.8615
18344TIP3   OH276522   4.841   3.130   3.218  0.4595 -0.2365 -0.8190
18344TIP3    H176523   4.925   3.166   3.192 -0.1603  0.9174 -1.2911
18344TIP3    H276524   4.801   3.102   3.135 -0.0128  0.0881 -0.7007
18345TIP3   OH276525   1.352   5.541   5.398 -0.0385 -0.2816 -0.0590
18345TIP3    H176526   1.421   5.487   5.359  0.1792  0.3025 -0.5007
18345TIP3    H276527   1.388   5.629   5.399  0.2661 -0.3846  2.2141
18346TIP3   OH276528   6.387   3.583   0.254  0.0956 -0.6578 -0.2204
18346TIP3    H176529   6.400   3.523   0.328 -0.3593  1.2396  1.5023
18346TIP3    H276530   6.442   3.658   0.275 -1.0857  0.5022 -1.1154
18347TIP3   OH276531   5.882   1.030  16.310 -0.1710  0.0780  0.0338
18347TIP3    H176532   5.817   0.961  16.293  0.0139  0.3194 -1.9167
18347TIP3    H276533   5.857   1.066  16.395 -1.1215 -1.4527  0.4465
18348TIP3   OH276534   5.073   2.049   2.405  0.5321  0.1817 -0.2097
18348TIP3    H176535   5.164   2.075   2.419  1.0862 -1.3848 -0.6595
18348TIP3    H276536   5.030   2.129   2.375  1.6706  1.0384  0.3413
18349TIP3   OH276537   5.445   4.953  12.021 -0.8002  0.0227  0.3623
18349TIP3    H176538   5.401   4.878  12.062 -2.2212  1.2928  1.2823
18349TIP3    H276539   5.533   4.953  12.058 -0.5163 -1.5821 -0.2108
18350TIP3   OH276540   4.810   5.151   0.778  0.4343 -0.1634 -0.5952
18350TIP3    H176541   4.905   5.155   0.766  0.9363 -0.1524  2.4938
18350TIP3    H276542   4.798   5.155   0.873 -2.6544 -0.6751 -0.8652
18351TIP3   OH276543   6.470   1.543   2.017 -0.1032 -0.4261  0.1359
18351TIP3    H176544   6.423   1.461   2.000 -1.7315  0.4920 -0.0682
18351TIP3    H276545   6.414   1.610   1.979  0.1515  0.9767  2.0898
18352TIP3   OH276546   0.040   3.181  13.616  0.2173  0.1005  0.2296
18352TIP3    H176547   0.024   3.189  13.522  0.1908 -0.3493  0.1963
18352TIP3    H276548  -0.027   3.121  13.647  0.9511 -0.6928  0.3285
18353TIP3   OH276549   5.977   4.485  12.482  0.6482  0.2535 -0.2385
18353TIP3    H176550   6.050   4.458  12.426  0.4867  1.5936 -1.1346
18353TIP3    H276551   6.016   4.545  12.545  0.1796  1.7734 -1.3530
18354TIP3   OH276552   1.819   1.103  14.250 -0.2637 -0.3540  0.8126
18354TIP3    H176553   1.889   1.096  14.314  1.1465  1.5257 -0.4234
18354TIP3    H276554   1.801   1.013  14.224  2.1386 -0.8756  0.7236
18355TIP3   OH276555   5.222   1.307   4.430 -0.5410 -0.2922  0.2851
18355TIP3    H176556   5.186   1.324   4.343 -2.7014 -0.7255  1.0243
18355TIP3    H276557   5.241   1.393   4.465 -2.3016  0.0988  0.3879
18356TIP3   OH276558   1.677   2.200   1.958 -0.2022 -0.0598 -0.5470
18356TIP3    H176559   1.687   2.267   1.890  1.1872 -0.1309 -0.4273
18356TIP3    H276560   1.692   2.117   1.913 -1.7229 -0.3216 -0.6511
18357TIP3   OH276561   1.884   0.096   0.247 -0.1433 -0.6275  0.0903
18357TIP3    H176562   1.818   0.162   0.269  1.2590  1.2921 -1.0987
18357TIP3    H276563   1.905   0.054   0.330 -0.4325  1.0880  1.0690
18358TIP3   OH276564   0.214   1.366  16.716  0.0007 -0.4110  0.4097
18358TIP3    H176565   0.141   1.378  16.776  1.2590 -0.2159  1.9487
18358TIP3    H276566   0.250   1.280  16.738  0.2081 -0.5495 -0.4011
18359TIP3   OH276567   6.789   4.295   5.316 -0.5642 -0.0342 -0.1819
18359TIP3    H176568   6.733   4.333   5.384 -2.2927  1.1528 -2.1414
18359TIP3    H276569   6.814   4.369   5.261  0.8881 -0.9416 -0.8226
18360TIP3   OH276570   0.961   2.133   5.680 -0.2880  0.1860  0.0019
18360TIP3    H176571   0.944   2.207   5.622  0.2561 -0.3412 -0.8376
18360TIP3    H276572   0.876   2.089   5.687 -0.8527  1.3895  1.2590
18361TIP3   OH276573   1.294   5.347   1.230 -1.0312 -0.0622 -0.0161
18361TIP3    H176574   1.340   5.355   1.147 -1.9400 -0.1287 -0.5354
18361TIP3    H276575   1.345   5.400   1.291 -0.6623  0.4268 -0.7428
18362TIP3   OH276576   5.201   5.954   4.841  0.4975  0.8061 -0.1078
18362TIP3    H176577   5.275   6.015   4.843 -0.9256  2.5915  0.7753
18362TIP3    H276578   5.152   5.979   4.762 -0.1463  0.8762  0.3106
18363TIP3   OH276579   0.704   3.066  14.017  0.0331  0.1990 -0.1150
18363TIP3    H176580   0.653   3.127  13.965 -0.2207  0.3293  0.2783
18363TIP3    H276581   0.733   3.118  14.092 -0.1586 -0.1535  0.2064
18364TIP3   OH276582   1.270   2.610  15.962 -0.3044 -0.5577 -0.6067
18364TIP3    H176583   1.190   2.614  16.014 -0.0085  1.9773 -0.2214
18364TIP3    H276584   1.241   2.629  15.872 -0.2157 -0.1193 -0.5456
18365TIP3   OH276585   6.008   6.489  15.138 -0.5601  0.5149 -0.5235
18365TIP3    H176586   6.037   6.448  15.056  0.1536  0.6414 -0.3432
18365TIP3    H276587   6.036   6.427  15.206  0.5366  1.2951 -0.2474
18366TIP3   OH276588   0.887   2.142  14.672 -0.7622 -0.0439  0.1831
18366TIP3    H176589   0.960   2.173  14.726  1.3913 -0.8914 -2.0691
18366TIP3    H276590   0.834   2.220  14.656  1.3001  1.2783 -0.5583
18367TIP3   OH276591   1.537   6.037   0.270 -0.0148 -0.0388  0.4828
18367TIP3    H176592   1.591   5.965   0.237 -1.2019 -0.6332 -0.1979
18367TIP3    H276593   1.597   6.112   0.272 -0.1559  0.5957 -4.8558
18368TIP3   OH276594   4.488   1.478  14.560  0.1820  0.6377  0.0820
18368TIP3    H176595   4.493   1.565  14.520 -1.4663  0.7239 -0.0060
18368TIP3    H276596   4.405   1.478  14.607  0.0521 -0.9541 -0.0911
18369TIP3   OH276597   2.630   3.908  13.612 -0.5496  0.4431 -0.1438
18369TIP3    H176598   2.631   3.831  13.556 -1.4510  0.2894  0.0343
18369TIP3    H276599   2.667   3.878  13.695 -0.8230  0.2184 -0.1006
18370TIP3   OH276600   6.077   4.771   3.992 -0.1276  0.2937 -0.1925
18370TIP3    H176601   6.061   4.687   4.036  1.9045 -0.7219 -1.2696
18370TIP3    H276602   6.090   4.833   4.063 -3.0028  0.0664  0.6588
18371TIP3   OH276603   2.781   0.840  12.613  0.0050 -0.0674  0.2499
18371TIP3    H176604   2.861   0.894  12.614  1.1378 -1.5946 -1.6096
18371TIP3    H276605   2.765   0.823  12.521 -2.7068  0.4294  0.5668
18372TIP3   OH276606   0.759   0.169  10.769  0.0265  0.3917 -0.2697
18372TIP3    H176607   0.825   0.099  10.765  0.6190  0.9637 -0.7626
18372TIP3    H276608   0.804   0.246  10.736 -0.6362  1.0063  0.2314
18373TIP3   OH276609   5.857   0.249  13.279  0.4170  0.0087  0.4742
18373TIP3    H176610   5.915   0.240  13.354  0.7185 -0.5517  0.1821
18373TIP3    H276611   5.771   0.266  13.317  0.6016 -0.0944  0.9406
18374TIP3   OH276612   4.113   0.918  15.558 -0.1495  0.5838 -0.0555
18374TIP3    H176613   4.038   0.862  15.577 -0.6290 -0.1837 -3.5109
18374TIP3    H276614   4.122   0.974  15.635 -1.8209 -1.8909  2.0802
18375TIP3   OH276615   1.987   5.608  11.674 -0.1297 -0.2489 -0.0180
18375TIP3    H176616   1.909   5.581  11.724 -0.0487  0.4872  0.5207
18375TIP3    H276617   1.952   5.650  11.596 -0.2594 -1.3616 -0.5713
18376TIP3   OH276618   0.090   3.429  12.833 -0.2270  0.3400  0.1155
18376TIP3    H176619   0.047   3.466  12.755 -1.2141  0.2331  0.5913
18376TIP3    H276620   0.058   3.338  12.836 -0.0205  0.2811  0.5261
18377TIP3   OH276621   4.874   3.796   1.588  0.3594  0.3074  0.2047
18377TIP3    H176622   4.924   3.829   1.513  0.9148  2.2782  1.3887
18377TIP3    H276623   4.858   3.873   1.642 -0.6239 -0.9553  1.7924
18378TIP3   OH276624   2.453   6.757  11.387  0.2303  0.2240  0.4669
18378TIP3    H176625   2.370   6.805  11.380  0.6914  0.8657 -0.9522
18378TIP3    H276626   2.514   6.807  11.332  0.7890 -1.8144 -0.8796
18379TIP3   OH276627   0.188   1.604   3.147 -0.4881 -0.5108  0.3051
18379TIP3    H176628   0.174   1.587   3.240  1.5294 -0.7549  0.6012
18379TIP3    H276629   0.157   1.693   3.134  0.2984 -0.0408  1.4802
18380TIP3   OH276630   4.424   2.001  14.406 -0.5461 -0.5798  0.3314
18380TIP3    H176631   4.487   2.006  14.334  1.7626  0.9827  2.3172
18380TIP3    H276632   4.367   2.077  14.393 -0.3450 -0.4800  0.0162
18381TIP3   OH276633   1.845   4.314   1.070 -0.3313 -0.5671 -0.2119
18381TIP3    H176634   1.923   4.327   1.124 -0.6837  0.2146  0.1188
18381TIP3    H276635   1.834   4.395   1.021 -0.3581 -1.0495 -1.0312
18382TIP3   OH276636   2.627   1.977  16.056 -0.2501 -0.1443  0.8806
18382TIP3    H176637   2.549   1.982  16.001 -1.4706  2.5928  2.6425
18382TIP3    H276638   2.692   2.029  16.010 -0.9161  1.2225  1.4416
18383TIP3   OH276639   5.464   0.596   3.814 -0.9883 -0.2768  0.5678
18383TIP3    H176640   5.487   0.633   3.729 -0.8166 -2.0046 -0.1774
18383TIP3    H276641   5.536   0.537   3.836 -1.6653 -0.8903  1.2402
18384TIP3   OH276642   1.155   1.197   3.267  0.6349  0.0502  0.0847
18384TIP3    H176643   1.060   1.206   3.255  0.7006 -0.9978 -1.5641
18384TIP3    H276644   1.191   1.282   3.244  0.0399  0.7939  1.7718
18385TIP3   OH276645   5.740   5.632  14.384 -0.5032  0.2630  0.1978
18385TIP3    H176646   5.831   5.631  14.354 -0.7833 -0.8463 -0.6698
18385TIP3    H276647   5.724   5.723  14.410  0.8852  0.4335  0.4856
18386TIP3   OH276648   2.482   5.317  15.897 -0.4599  0.2427  0.2453
18386TIP3    H176649   2.564   5.332  15.850 -1.2158 -0.3296 -1.3174
18386TIP3    H276650   2.507   5.264  15.973  0.4935 -0.7401 -0.7166
18387TIP3   OH276651   1.822   3.168   1.329  0.1022 -0.5680 -0.6580
18387TIP3    H176652   1.844   3.176   1.236  0.8077 -1.0548 -0.5432
18387TIP3    H276653   1.738   3.121   1.330 -0.1585 -0.1177 -1.0603
18388TIP3   OH276654   2.464   3.250  14.826 -0.2553  0.0500  0.2755
18388TIP3    H176655   2.534   3.218  14.769 -0.7968 -1.1327  0.2449
18388TIP3    H276656   2.384   3.241  14.774 -0.6109  0.0795  0.8045
18389TIP3   OH276657   2.915   5.991  10.985  0.3247  0.5756 -0.3230
18389TIP3    H176658   2.857   5.995  11.061  0.9054 -1.0734  0.2547
18389TIP3    H276659   2.885   6.061  10.927 -1.6476  0.3406  0.3598
18390TIP3   OH276660   2.509   2.170   4.448  0.5559  0.0660  0.2655
18390TIP3    H176661   2.550   2.084   4.457  1.0756  0.2047 -0.6792
18390TIP3    H276662   2.486   2.176   4.356 -1.0672  0.2450  0.6605
18391TIP3   OH276663   2.168   6.072   6.568  0.2992 -0.4410 -0.1203
18391TIP3    H176664   2.184   6.164   6.590 -2.2129  0.1052 -0.2796
18391TIP3    H276665   2.205   6.062   6.480 -0.5185  0.8065 -0.6395
18392TIP3   OH276666   0.447   5.638   2.579  0.2779 -0.8080  1.0940
18392TIP3    H176667   0.483   5.637   2.668 -1.1869  0.7574  1.7661
18392TIP3    H276668   0.376   5.574   2.582  0.0459 -0.5502  1.1451
18393TIP3   OH276669   1.593   2.904  15.001  0.1428  0.7982  0.5779
18393TIP3    H176670   1.586   2.825  15.054 -2.6530 -0.5275 -1.5303
18393TIP3    H276671   1.531   2.965  15.040 -0.3580  0.5982  0.1042
18394TIP3   OH276672   3.361   6.257  13.188 -0.3735  0.1751  0.0089
18394TIP3    H176673   3.417   6.230  13.116  0.0489  1.3368 -0.1226
18394TIP3    H276674   3.365   6.184  13.250 -0.6339 -0.7816 -1.0607
18395TIP3   OH276675   0.826   0.918   3.953  0.4373 -0.1622 -0.2716
18395TIP3    H176676   0.822   0.994   4.011  0.1944  0.7269 -1.4105
18395TIP3    H276677   0.780   0.946   3.874  1.9184 -0.8521 -1.4283
18396TIP3   OH276678   0.667   2.710  14.080  0.5942 -0.5614 -0.5026
18396TIP3    H176679   0.722   2.632  14.091  0.5395 -0.9278 -2.3884
18396TIP3    H276680   0.676   2.758  14.162 -0.2052 -3.0521  1.1395
18397TIP3   OH276681   0.781   5.131  16.619  0.7408  0.5257  0.1377
18397TIP3    H176682   0.766   5.040  16.595  0.8094  0.7075 -0.6116
18397TIP3    H276683   0.700   5.159  16.662  0.6774  0.1505  0.2652
18398TIP3   OH276684   0.717   1.923   2.218 -0.2127 -0.9239  0.3397
18398TIP3    H176685   0.744   1.853   2.157 -0.1582  0.4823 -1.3392
18398TIP3    H276686   0.630   1.896   2.247 -0.2466 -1.6438 -0.3673
18399TIP3   OH276687   6.011   0.334  11.222  0.5544  0.1285  0.3621
18399TIP3    H176688   5.934   0.379  11.187  0.5435 -0.3946 -0.2988
18399TIP3    H276689   5.999   0.337  11.317  1.2919  2.8507  0.4520
18400TIP3   OH276690   4.192   4.908  12.582  0.1507  0.2029 -0.0480
18400TIP3    H176691   4.151   4.887  12.667  0.7540 -0.1007  0.1704
18400TIP3    H276692   4.131   4.874  12.517 -0.4366  0.6489  0.2569
18401TIP3   OH276693   2.739   1.363  14.125  0.1421  0.0010  0.1570
18401TIP3    H176694   2.699   1.287  14.082  1.1844 -0.8666  0.6904
18401TIP3    H276695   2.766   1.420  14.053 -1.8250  0.5244 -0.2290
18402TIP3   OH276696   3.066   0.641   5.648 -0.1035 -0.2721  0.0156
18402TIP3    H176697   3.160   0.623   5.650 -0.3222 -1.4778 -0.2626
18402TIP3    H276698   3.025   0.558   5.626 -1.3722 -0.2062  1.9359
18403TIP3   OH276699   2.074   1.516  13.653 -0.0683  0.1586  0.1947
18403TIP3    H176700   1.993   1.521  13.703  1.1504 -0.3345  2.3169
18403TIP3    H276701   2.109   1.428  13.672 -0.7011 -1.0636 -3.4785
18404TIP3   OH276702   6.617   0.695  15.682 -0.2509 -0.5451 -0.3785
18404TIP3    H176703   6.611   0.646  15.601  2.0179  0.1099 -0.9938
18404TIP3    H276704   6.607   0.629  15.751 -0.5318 -1.3397 -1.1623
18405TIP3   OH276705   3.821   5.217  13.748  0.1858  0.0953  0.5724
18405TIP3    H176706   3.814   5.159  13.671 -0.9228 -2.6007  2.5449
18405TIP3    H276707   3.775   5.297  13.722 -0.9184 -1.0694 -1.2875
18406TIP3   OH276708   4.571   4.587   1.380 -1.3481  0.7431 -0.7739
18406TIP3    H176709   4.616   4.652   1.326 -0.1343  0.2962 -0.3322
18406TIP3    H276710   4.510   4.638   1.433 -0.1274  1.5958 -0.1423
18407TIP3   OH276711   2.062   0.436   5.665 -0.0135  0.2379 -0.6583
18407TIP3    H176712   2.013   0.406   5.741  0.7077 -0.9634 -0.6432
18407TIP3    H276713   1.994   0.459   5.601 -0.6063  0.3102 -0.0148
18408TIP3   OH276714   6.704   3.218   1.396  0.4105  0.1649  0.6345
18408TIP3    H176715   6.663   3.303   1.387 -0.0117 -0.2370 -2.3153
18408TIP3    H276716   6.796   3.233   1.374  0.3420 -0.1284  0.1341
18409TIP3   OH276717   5.780   1.389   3.641  0.0395  0.2411 -0.3626
18409TIP3    H176718   5.756   1.336   3.565 -0.1581  0.3019 -0.3444
18409TIP3    H276719   5.837   1.333   3.693  0.0772  0.1564 -0.4971
18410TIP3   OH276720   4.883   5.083  13.819 -0.4783 -0.8831  0.4401
18410TIP3    H176721   4.907   5.162  13.868 -1.2942 -0.5850  0.3774
18410TIP3    H276722   4.953   5.021  13.838  1.0390  0.3587 -0.7709
18411TIP3   OH276723   5.248   6.836   4.927 -0.1450  0.0312 -0.5330
18411TIP3    H176724   5.175   6.774   4.935 -0.6662  0.8813  2.1739
18411TIP3    H276725   5.230   6.883   4.845 -0.2311 -2.6552 -2.1842
18412TIP3   OH276726   3.386   5.829   0.797 -0.1032  0.3568 -0.3893
18412TIP3    H176727   3.443   5.852   0.724 -0.8472 -0.2604 -1.1778
18412TIP3    H276728   3.361   5.913   0.835  0.5366  0.6685 -0.6479
18413TIP3   OH276729   6.670   1.850  11.705 -0.2979  0.3655 -0.5619
18413TIP3    H176730   6.755   1.841  11.663 -0.9776 -1.4718 -1.6557
18413TIP3    H276731   6.632   1.763  11.701 -2.4132  1.2239 -0.4787
18414TIP3   OH276732   1.894   4.428   2.879  0.1085 -0.8714 -0.3269
18414TIP3    H176733   1.809   4.410   2.838 -0.9658  0.5270  1.1981
18414TIP3    H276734   1.913   4.519   2.858 -0.1299 -0.3286  1.6404
18415TIP3   OH276735   4.650   5.779  15.279 -0.5085 -0.4359  0.4512
18415TIP3    H176736   4.718   5.765  15.213  0.6989  0.9468  1.3316
18415TIP3    H276737   4.589   5.840  15.238  2.2197  3.5644  1.6911
18416TIP3   OH276738   1.330   6.677   1.799 -0.5189 -1.0783 -0.4750
18416TIP3    H176739   1.393   6.748   1.807 -1.2313 -0.5546  1.1023
18416TIP3    H276740   1.351   6.634   1.717  1.2622 -0.3342 -0.4483
18417TIP3   OH276741   0.402   1.347  15.699 -0.5502 -0.1814 -0.2090
18417TIP3    H176742   0.306   1.347  15.700 -0.5674  1.0024  0.7222
18417TIP3    H276743   0.425   1.345  15.606 -1.5391  2.1431 -0.5732
18418TIP3   OH276744   2.622   5.481  14.661  0.2492 -0.1994  0.8861
18418TIP3    H176745   2.627   5.567  14.703 -1.3418 -0.3820  1.5190
18418TIP3    H276746   2.579   5.425  14.725  0.6713 -1.3138  0.2242
18419TIP3   OH276747   1.277   3.320  16.418 -0.6532  0.3455  0.0775
18419TIP3    H176748   1.258   3.226  16.415  0.7297  0.0746 -1.9291
18419TIP3    H276749   1.200   3.361  16.378 -1.7704  0.2168  1.9774
18420TIP3   OH276750   4.443   4.369   1.459 -0.3720 -0.1121  0.3727
18420TIP3    H176751   4.382   4.402   1.526  0.4160  2.4125 -0.0474
18420TIP3    H276752   4.506   4.440   1.447  2.9136 -2.7154  0.9983
18421TIP3   OH276753   1.639   2.475  10.625  0.1699 -0.0630  0.0740
18421TIP3    H176754   1.605   2.561  10.598  0.7954  0.5300  1.1297
18421TIP3    H276755   1.564   2.432  10.667 -0.6709 -0.7952 -2.0473
18422TIP3   OH276756   1.912   5.834  16.538  0.1571 -0.5668  0.4423
18422TIP3    H176757   1.977   5.895  16.503  0.2572 -1.2409 -0.5846
18422TIP3    H276758   1.829   5.881  16.534  0.0608 -0.8202 -1.3005
18423TIP3   OH276759   6.492   4.361   2.150  0.0448  0.3981  0.1741
18423TIP3    H176760   6.489   4.313   2.067  1.1668  0.0132  0.3412
18423TIP3    H276761   6.513   4.451   2.126  1.1679  0.1264  0.0762
18424TIP3   OH276762   5.751   4.805   5.965  0.1562 -0.1756  0.3564
18424TIP3    H176763   5.784   4.853   6.041  1.6652  0.6733 -0.7885
18424TIP3    H276764   5.665   4.773   5.993 -0.3140  1.9927  1.6562
18425TIP3   OH276765   0.293   4.729   2.552  0.0132  0.3767 -0.5555
18425TIP3    H176766   0.383   4.697   2.550  0.2436  0.7127  1.9093
18425TIP3    H276767   0.277   4.759   2.462  2.0185 -0.5423 -1.2839
18426TIP3   OH276768   4.286   1.238   3.709 -0.5248  0.5018 -0.2882
18426TIP3    H176769   4.206   1.186   3.712  1.2756 -2.4655  0.8248
18426TIP3    H276770   4.330   1.210   3.628  1.9356 -2.3798  1.8033
18427TIP3   OH276771   4.484   5.212   2.313 -0.1247 -0.1454  0.6106
18427TIP3    H176772   4.551   5.168   2.260 -0.9155 -0.7900  0.1387
18427TIP3    H276773   4.403   5.168   2.291 -0.8577  1.1881  0.5450
18428TIP3   OH276774   0.574   1.399  16.953  0.6785 -0.2856  0.3524
18428TIP3    H176775   0.537   1.487  16.945 -0.9153 -0.6349  2.9496
18428TIP3    H276776   0.665   1.414  16.977  0.6870  0.6312 -0.1820
18429TIP3   OH276777   1.053   6.778  12.531  0.4113  0.1766  0.4415
18429TIP3    H176778   1.111   6.712  12.568  0.4068 -0.5986 -0.8744
18429TIP3    H276779   1.112   6.840  12.487  0.3309  0.0618  0.1632
18430TIP3   OH276780   5.398   0.668   4.431  0.1520 -0.7279 -0.4344
18430TIP3    H176781   5.407   0.723   4.353  0.4591 -2.3522 -1.6101
18430TIP3    H276782   5.402   0.578   4.397 -2.2577 -1.5367  1.1530
18431TIP3   OH276783   2.242   4.019   4.746 -0.1658  0.1307 -0.2012
18431TIP3    H176784   2.275   3.983   4.664 -0.3697  1.0785 -0.7078
18431TIP3    H276785   2.283   4.105   4.753 -1.1608  0.5999  0.0310
18432TIP3   OH276786   0.236   0.162   0.037  0.7072 -0.2821  0.4426
18432TIP3    H176787   0.266   0.219  -0.034  0.1441  1.1262  1.3092
18432TIP3    H276788   0.316   0.145   0.088  0.6243  1.0089  1.0428
18433TIP3   OH276789   5.537   4.717   3.923 -0.1106  0.2229 -0.6028
18433TIP3    H176790   5.444   4.702   3.937  0.0375  0.6487  1.0453
18433TIP3    H276791   5.542   4.802   3.879 -0.4732  0.6088  0.0904
18434TIP3   OH276792   2.102   4.002   3.775  0.4078 -0.2436 -0.3665
18434TIP3    H176793   2.084   4.045   3.858 -0.0675  0.6802 -0.9403
18434TIP3    H276794   2.027   3.945   3.761 -0.5903  1.2258 -1.2026
18435TIP3   OH276795   4.119   4.633   1.870 -0.1437 -0.4808 -0.0940
18435TIP3    H176796   4.065   4.565   1.829  0.9632 -1.4193 -0.0655
18435TIP3    H276797   4.165   4.675   1.797 -0.4897 -0.0609 -0.0726
18436TIP3   OH276798   3.484   3.253   3.118 -0.0292 -0.5118  0.6766
18436TIP3    H176799   3.467   3.204   3.199  1.8873  0.0619  1.4870
18436TIP3    H276800   3.567   3.297   3.134 -1.4865  2.8051 -0.1054
18437TIP3   OH276801   5.448   3.560   3.518  0.5702  0.0317 -0.1833
18437TIP3    H176802   5.390   3.484   3.511  1.3267 -0.4918 -0.9406
18437TIP3    H276803   5.424   3.601   3.601 -1.3001  0.1845 -0.7628
18438TIP3   OH276804   2.949   0.072   2.753  0.3951  0.2621 -0.1621
18438TIP3    H176805   2.933  -0.002   2.695  0.4816  0.7029 -0.7615
18438TIP3    H276806   3.037   0.102   2.730 -0.1115  1.3144 -0.7990
18439TIP3   OH276807   2.277   4.212  12.567  0.2579 -0.0205  0.0098
18439TIP3    H176808   2.330   4.139  12.536 -0.4144 -0.3054 -0.5024
18439TIP3    H276809   2.308   4.229  12.656  1.6354  0.2590 -0.5071
18440TIP3   OH276810   1.766   3.641   1.854  0.0080  0.6068  0.1942
18440TIP3    H176811   1.831   3.684   1.799  1.4665  0.4327  1.7091
18440TIP3    H276812   1.755   3.701   1.928  0.8659 -0.8264  1.5382
18441TIP3   OH276813   4.208   3.961   2.415  0.5220 -0.1392 -0.5279
18441TIP3    H176814   4.169   3.927   2.334  0.2611 -0.2850 -0.3389
18441TIP3    H276815   4.135   3.970   2.476  0.7354 -0.1341 -0.2703
18442TIP3   OH276816   6.000   0.351   1.660 -1.1222 -0.2123  0.1302
18442TIP3    H176817   6.024   0.402   1.738  0.4119  1.4730 -1.3623
18442TIP3    H276818   5.968   0.268   1.696 -0.9237  0.6559  2.5628
18443TIP3   OH276819   3.301   0.607   4.732  0.3715  0.0233  0.2534
18443TIP3    H176820   3.215   0.615   4.774  1.1271 -1.1138  2.1256
18443TIP3    H276821   3.281   0.609   4.638 -1.4414  2.0472  0.5997
18444TIP3   OH276822   5.526   5.736   3.633 -0.1345  0.2760 -0.1330
18444TIP3    H176823   5.490   5.648   3.626  1.7084 -0.5750  0.3549
18444TIP3    H276824   5.576   5.747   3.552 -0.3040  0.8568 -0.1642
18445TIP3   OH276825   6.549   3.187   0.935  0.5786 -0.3392 -0.1501
18445TIP3    H176826   6.632   3.224   0.965 -0.1358 -0.0481  1.6307
18445TIP3    H276827   6.565   3.160   0.845  2.0639  1.3755 -0.4486
18446TIP3   OH276828   6.494   6.771   5.439  0.2443  0.2491 -0.2080
18446TIP3    H176829   6.516   6.794   5.530 -0.6956  0.2052  0.0418
18446TIP3    H276830   6.555   6.823   5.386  0.2702  0.8860  0.4268
18447TIP3   OH276831   3.256   1.613  12.401 -0.0465  0.0102  0.6614
18447TIP3    H176832   3.224   1.530  12.437 -1.8443  0.1985 -0.3758
18447TIP3    H276833   3.350   1.599  12.387 -0.3815 -1.9640  0.1983
18448TIP3   OH276834   1.358   1.011   3.169 -0.4701 -0.5383  0.1154
18448TIP3    H176835   1.300   1.075   3.209  0.0090  0.0660 -0.1490
18448TIP3    H276836   1.402   1.058   3.099  1.6431 -0.4873  1.4061
18449TIP3   OH276837   6.252   4.411   1.478  0.1065 -0.5038 -0.5331
18449TIP3    H176838   6.165   4.438   1.507  0.5389 -0.9519  1.3732
18449TIP3    H276839   6.240   4.321   1.446 -0.2038 -0.4321 -0.6125
18450TIP3   OH276840   0.656   3.768  14.422 -0.5655 -0.0755 -0.0189
18450TIP3    H176841   0.715   3.696  14.446 -0.1189  0.1402 -0.4416
18450TIP3    H276842   0.715   3.842  14.408 -0.7609 -0.2108 -1.8831
18451TIP3   OH276843   1.415   4.951   0.381 -0.0441  0.4172 -0.4658
18451TIP3    H176844   1.340   4.927   0.328  1.0747  2.1909 -3.0800
18451TIP3    H276845   1.392   5.036   0.419  0.4499  0.7881 -0.9707
18452TIP3   OH276846   6.723   4.691  16.315 -0.2657  0.5593 -0.4519
18452TIP3    H176847   6.675   4.677  16.234  1.3523  1.6317 -1.6535
18452TIP3    H276848   6.725   4.604  16.357  0.1225 -0.3570 -2.2741
18453TIP3   OH276849   1.572   4.775   2.174  0.2572  0.5360  0.1453
18453TIP3    H176850   1.629   4.726   2.234  0.6984 -0.6233 -1.1792
18453TIP3    H276851   1.483   4.752   2.202  0.4552 -1.0018 -0.3891
18454TIP3   OH276852   2.394   5.906   3.976  0.3558  0.0389  0.2819
18454TIP3    H176853   2.438   5.842   4.032  0.8228  1.4577  1.5998
18454TIP3    H276854   2.424   5.885   3.887 -0.1584 -2.0552  0.5406
18455TIP3   OH276855   5.341   4.117   2.315  0.5513 -0.0370  0.1956
18455TIP3    H176856   5.250   4.146   2.320  0.7188  0.6804 -0.6246
18455TIP3    H276857   5.392   4.195   2.340  0.9282 -0.7960  1.9606
18456TIP3   OH276858   5.568   5.924  12.775 -0.0765  0.6386 -0.4207
18456TIP3    H176859   5.560   5.835  12.742 -0.0132  0.4832 -0.0281
18456TIP3    H276860   5.662   5.942  12.773 -0.1523  0.9951 -1.2552
18457TIP3   OH276861   6.207   0.513   3.350  0.3188  0.2768  0.1878
18457TIP3    H176862   6.266   0.550   3.284 -0.0929  0.9919  0.2074
18457TIP3    H276863   6.243   0.541   3.434  2.6995 -3.2616  0.5635
18458TIP3   OH276864   3.873   5.187  15.472  0.3566 -0.1568  0.1324
18458TIP3    H176865   3.897   5.231  15.554  1.7822 -3.5970  1.7556
18458TIP3    H276866   3.941   5.213  15.410  2.1234 -1.1791  1.5303
18459TIP3   OH276867   2.376   1.445   1.771 -0.2741  0.1854 -0.0889
18459TIP3    H176868   2.340   1.356   1.775 -1.0000  0.3784 -1.5465
18459TIP3    H276869   2.328   1.487   1.700  1.4371  1.1055 -0.7638
18460TIP3   OH276870   4.117   5.202  12.684  0.2975  0.4692 -0.1691
18460TIP3    H176871   4.146   5.129  12.628  0.0866 -1.3473  1.9475
18460TIP3    H276872   4.121   5.279  12.627 -0.9669 -1.3880 -3.0192
18461TIP3   OH276873   4.141   3.025  15.380 -0.0242 -0.5083 -0.2196
18461TIP3    H176874   4.151   3.119  15.394 -0.0360 -0.5796  0.2928
18461TIP3    H276875   4.221   2.998  15.336  0.9671 -0.6251  1.5608
18462TIP3   OH276876   2.766   0.759  10.590  0.2490  0.6349 -0.2524
18462TIP3    H176877   2.672   0.768  10.603 -0.0195 -0.3285 -1.4652
18462TIP3    H276878   2.777   0.674  10.548  1.6279  0.9052 -0.4786
18463TIP3   OH276879   1.579   1.116  16.792  0.0371  0.5609  0.2312
18463TIP3    H176880   1.500   1.097  16.741 -1.9141  1.4548  2.7216
18463TIP3    H276881   1.581   1.048  16.859  1.7303  0.2351 -0.1100
18464TIP3   OH276882   4.228   4.154   1.003  0.5182 -0.4279  0.1041
18464TIP3    H176883   4.133   4.155   1.005  0.4731  1.6885 -0.2160
18464TIP3    H276884   4.254   4.102   1.079 -0.9040  0.3229  1.1503
18465TIP3   OH276885   0.691   5.712  17.075  0.3146  0.1213  0.0205
18465TIP3    H176886   0.597   5.725  17.089  0.4024  1.0235 -0.1544
18465TIP3    H276887   0.711   5.630  17.120 -0.6686 -0.4021 -0.4490
18466TIP3   OH276888   1.172   3.563  13.141 -0.0116 -0.1982 -0.0157
18466TIP3    H176889   1.085   3.573  13.103  0.3473  0.8120 -0.6142
18466TIP3    H276890   1.232   3.572  13.067  0.5778 -2.0680  0.1923
18467TIP3   OH276891   1.965   6.462  14.127  0.2102  0.0590  0.3036
18467TIP3    H176892   1.911   6.389  14.096  1.3620 -0.7135  0.0360
18467TIP3    H276893   1.921   6.540  14.094  0.1746 -0.6329 -1.3941
18468TIP3   OH276894   2.387   6.224   4.381  0.3135 -0.4111  0.1372
18468TIP3    H176895   2.410   6.183   4.297 -1.5463 -2.9045  0.7480
18468TIP3    H276896   2.297   6.255   4.369  0.4274  0.2402  0.8746
18469TIP3   OH276897   5.945   3.118  13.191 -0.6928  0.3867 -0.3062
18469TIP3    H176898   5.902   3.164  13.263 -0.3883  0.6908 -0.3122
18469TIP3    H276899   5.923   3.170  13.114 -0.2994  0.5591 -0.3044
18470TIP3   OH276900   1.759   1.443   1.777  0.2650 -0.1959  0.0130
18470TIP3    H176901   1.749   1.426   1.683  0.1401 -0.8999  0.1472
18470TIP3    H276902   1.766   1.356   1.816  0.6592  0.1078  0.6210
18471TIP3   OH276903   5.774   5.785   1.315  0.0049 -0.3464  0.3624
18471TIP3    H176904   5.804   5.860   1.367  0.1144 -0.8097  0.9747
18471TIP3    H276905   5.844   5.721   1.323 -1.0657 -1.4271  1.7690
18472TIP3   OH276906   6.513   0.375   4.908 -0.4493  0.5691 -0.1172
18472TIP3    H176907   6.459   0.312   4.957 -0.1065  0.4556  0.1131
18472TIP3    H276908   6.532   0.330   4.826 -0.9965  0.7465 -0.3501
18473TIP3   OH276909   3.990   0.468   3.103  0.6524  0.1690  0.6159
18473TIP3    H176910   4.016   0.487   3.194 -0.4448 -0.7278  1.1482
18473TIP3    H276911   3.895   0.475   3.104  0.6632  0.7009 -0.6258
18474TIP3   OH276912   1.678   5.268  16.644 -0.7213 -0.3829 -0.1244
18474TIP3    H176913   1.707   5.291  16.556  0.8470  2.0725  0.9140
18474TIP3    H276914   1.590   5.233  16.632 -0.5529 -0.1324 -2.6553
18475TIP3   OH276915   2.341   1.735   5.818 -0.0069 -0.4247  0.5958
18475TIP3    H176916   2.254   1.754   5.855  0.1864  0.4077  0.6356
18475TIP3    H276917   2.402   1.755   5.888  0.1629 -2.4276  1.0880
18476TIP3   OH276918   4.621   1.585   1.072 -0.2340  0.2226  0.2007
18476TIP3    H176919   4.541   1.635   1.055  1.1116  2.4766  0.2182
18476TIP3    H276920   4.620   1.571   1.167 -1.7815 -1.9566 -0.0614
18477TIP3   OH276921   1.880   6.771   3.829  0.0248 -0.4480  0.5607
18477TIP3    H176922   1.954   6.806   3.879 -1.2158 -1.0219  2.9120
18477TIP3    H276923   1.875   6.679   3.854 -1.3878 -0.4581  0.3398
18478TIP3   OH276924   5.836   1.607   1.412 -0.0483 -0.1630 -0.1009
18478TIP3    H176925   5.832   1.665   1.337  0.6538 -0.0830 -0.0808
18478TIP3    H276926   5.923   1.620   1.449  0.3341 -1.5975 -0.4026
18479TIP3   OH276927   4.750   2.023   3.421 -0.6896 -0.7212 -0.4016
18479TIP3    H176928   4.817   2.020   3.353  0.2872 -0.4337  0.5139
18479TIP3    H276929   4.671   1.992   3.378  0.2427 -1.9859 -1.2785
18480TIP3   OH276930   2.305   1.747  13.241  0.5221  0.0081 -0.0132
18480TIP3    H176931   2.346   1.812  13.299 -1.1010 -0.7886  2.1124
18480TIP3    H276932   2.220   1.730  13.279  0.6251 -2.9406 -0.8593
18481TIP3   OH276933   5.316   2.757   3.449  0.4022 -0.0832  0.0864
18481TIP3    H176934   5.274   2.812   3.383 -4.1769 -2.0671  0.8924
18481TIP3    H276935   5.332   2.674   3.404  2.0909  0.1128  0.2628
18482TIP3   OH276936   2.080   2.118   5.325  0.1454  0.6750  0.4416
18482TIP3    H176937   2.108   2.202   5.361 -1.7098  0.9467  1.3256
18482TIP3    H276938   2.008   2.139   5.267 -0.2677 -0.2889  0.5860
18483TIP3   OH276939   1.820   5.128  16.197  0.0142 -0.2923  0.1389
18483TIP3    H176940   1.859   5.131  16.284 -0.0042  0.2724  0.1337
18483TIP3    H276941   1.790   5.038  16.187 -2.3364  0.1961  1.7787
18484TIP3   OH276942   6.045   0.563  13.538 -0.3334  0.2244 -0.1659
18484TIP3    H176943   6.006   0.642  13.575  0.1455  0.6528 -0.5652
18484TIP3    H276944   6.049   0.580  13.444  0.1059 -0.1277 -0.2122
18485TIP3   OH276945   5.415   1.176  11.223  0.4679 -0.1165  0.0818
18485TIP3    H176946   5.459   1.198  11.141  0.2365  0.0175 -0.0051
18485TIP3    H276947   5.487   1.156  11.284  0.6440 -0.0426 -0.1015
18486TIP3   OH276948   6.300   6.430  12.690  0.1892 -0.6445  0.2376
18486TIP3    H176949   6.236   6.499  12.709  0.8122  0.1843 -0.5865
18486TIP3    H276950   6.377   6.454  12.740  1.1090  0.4028 -1.5815
18487TIP3   OH276951   3.378   5.502  16.936 -0.3929 -0.7651 -0.2341
18487TIP3    H176952   3.289   5.538  16.935 -0.7195 -1.4640 -2.5334
18487TIP3    H276953   3.429   5.565  16.987 -1.8052  0.7444 -0.5829
18488TIP3   OH276954   4.609   5.407  12.324  0.1863 -0.0279  0.7815
18488TIP3    H176955   4.569   5.394  12.239 -0.7848  0.1442  1.1980
18488TIP3    H276956   4.629   5.501  12.327 -2.2194  0.5409  1.7293
18489TIP3   OH276957   1.247   4.975  13.543 -0.2702  0.0115  0.2089
18489TIP3    H176958   1.201   5.056  13.521 -0.4043  0.1923  1.0975
18489TIP3    H276959   1.197   4.938  13.616  1.2785  0.5066  1.6035
18490TIP3   OH276960   5.860   4.216  12.440 -0.0388  0.4026 -0.5710
18490TIP3    H176961   5.852   4.217  12.345  0.4970  0.5119 -0.6215
18490TIP3    H276962   5.889   4.305  12.462 -1.7455  0.8948 -0.1457
18491TIP3   OH276963   6.215   4.478   4.950  0.0457 -0.4722  0.2610
18491TIP3    H176964   6.262   4.557   4.926  0.7509 -1.3656 -1.5672
18491TIP3    H276965   6.282   4.410   4.953 -0.6525 -1.1482  0.9936
18492TIP3   OH276966   1.824   3.277   4.605 -0.2962  0.3416  0.5224
18492TIP3    H176967   1.914   3.259   4.579 -0.0389  2.1942  0.0112
18492TIP3    H276968   1.813   3.228   4.687  0.9411 -0.4438  0.2527
18493TIP3   OH276969   2.327   2.429   2.502 -0.3587 -0.4774  0.2632
18493TIP3    H176970   2.311   2.521   2.479  0.4370 -1.3185 -4.5925
18493TIP3    H276971   2.423   2.421   2.503 -0.4254 -1.3432  0.1906
18494TIP3   OH276972   6.699   3.886   1.991  0.0854 -0.2916  0.2434
18494TIP3    H176973   6.781   3.869   1.944 -1.0155  2.6783 -3.2299
18494TIP3    H276974   6.718   3.960   2.048  0.2125 -0.6609  0.6810
18495TIP3   OH276975   1.828   5.855   2.070 -0.0192  0.8698  0.0894
18495TIP3    H176976   1.797   5.891   2.153  1.1948 -0.5603  1.2246
18495TIP3    H276977   1.859   5.767   2.092  0.8628  0.6618 -1.7859
18496TIP3   OH276978   3.410   0.850   2.138  0.2884  0.1582  0.1544
18496TIP3    H176979   3.440   0.899   2.062 -0.1790  0.0013 -0.1361
18496TIP3    H276980   3.490   0.826   2.184  0.8179 -2.2547 -1.8218
18497TIP3   OH276981   1.437   1.441  13.522 -0.4256  0.9614  0.3327
18497TIP3    H176982   1.456   1.468  13.612 -1.5670  1.1952  0.5298
18497TIP3    H276983   1.519   1.452  13.475  0.9951 -1.7869  1.9096
18498TIP3   OH276984   2.959   3.155  16.716  0.3282  0.5849  0.8844
18498TIP3    H176985   2.915   3.237  16.736  0.7097  0.5558  1.8942
18498TIP3    H276986   2.982   3.163  16.624 -1.4140  0.7600  0.4203
18499TIP3   OH276987   3.276   2.178   3.121 -0.5093 -0.7634  0.1930
18499TIP3    H176988   3.319   2.139   3.196 -1.5342 -3.3842 -0.4789
18499TIP3    H276989   3.189   2.137   3.119 -1.3726  1.0004 -1.0721
18500TIP3   OH276990   0.017   4.604  12.503  0.0965  0.2543  0.0519
18500TIP3    H176991  -0.036   4.683  12.519  1.1332  1.3574 -1.5917
18500TIP3    H276992  -0.046   4.539  12.470 -0.6795  0.5868  0.8379
18501TIP3   OH276993   0.401   4.024  13.370  0.5524 -0.5193 -0.0572
18501TIP3    H176994   0.334   4.063  13.426 -0.8327 -1.2682 -1.1279
18501TIP3    H276995   0.420   4.093  13.306 -0.0924 -0.6996 -0.4611
18502TIP3   OH276996   6.212   1.971   3.596 -0.3725 -0.0501  0.0003
18502TIP3    H176997   6.120   1.979   3.569 -1.2385  2.0504  3.0396
18502TIP3    H276998   6.256   2.043   3.551 -0.5291 -0.1764 -0.3571
18503TIP3   OH276999   1.105   4.438  13.580  0.0396 -0.0242  0.4690
18503TIP3    H177000   1.197   4.449  13.605 -0.8944  1.3778  3.8753
18503TIP3    H277001   1.081   4.352  13.616 -0.6271  0.8172  2.1212
18504TIP3   OH277002   4.010   5.765  15.327 -0.2093 -0.3288  0.1711
18504TIP3    H177003   4.014   5.683  15.375  0.0912 -1.0553 -1.0415
18504TIP3    H277004   3.922   5.765  15.287 -0.3978  0.1843  0.5756
18505TIP3   OH277005   5.164   5.388   4.456 -0.4247 -0.0044 -0.1686
18505TIP3    H177006   5.193   5.416   4.542 -0.4082 -1.7780  0.4401
18505TIP3    H277007   5.098   5.321   4.474 -1.4726  0.6047 -1.5391
18506TIP3   OH277008   5.823   3.950   6.113 -0.6917  0.5679 -0.2408
18506TIP3    H177009   5.899   3.931   6.168  1.3483  2.8561 -1.9977
18506TIP3    H277010   5.749   3.956   6.174  0.8763  0.1153  1.8101
18507TIP3   OH277011   0.074   4.266   4.922 -0.0414 -0.1667  0.1881
18507TIP3    H177012   0.169   4.269   4.916 -0.1074 -0.7352 -1.5899
18507TIP3    H277013   0.049   4.184   4.880 -1.3952  0.6757 -0.7620
18508TIP3   OH277014   5.377   5.820   0.317 -0.0526  0.1720 -0.0011
18508TIP3    H177015   5.433   5.861   0.251  0.9921 -1.0458  0.0861
18508TIP3    H277016   5.361   5.732   0.283 -1.5491  0.3458  0.2129
18509TIP3   OH277017   3.916   1.266  11.851 -0.2929 -0.1182  0.3856
18509TIP3    H177018   3.905   1.211  11.928  0.0022  0.9655  1.2347
18509TIP3    H277019   3.866   1.346  11.871 -1.4883 -0.4266 -1.2016
18510TIP3   OH277020   6.015   4.143   3.570  0.6655  0.0885 -0.4224
18510TIP3    H177021   6.062   4.114   3.491  0.6156 -1.4250  0.0856
18510TIP3    H277022   5.937   4.187   3.536  1.7019  1.4020 -1.2488
18511TIP3   OH277023   5.644   4.343   0.160  0.4880  0.7598  0.6327
18511TIP3    H177024   5.607   4.425   0.128 -1.1186 -0.1119  0.0887
18511TIP3    H277025   5.583   4.314   0.228  0.8302 -0.1376  0.5730
18512TIP3   OH277026   0.501   0.692  12.991  0.1969  0.0793 -0.0237
18512TIP3    H177027   0.556   0.614  12.997 -0.2068 -0.2011  0.1093
18512TIP3    H277028   0.472   0.693  12.900 -1.0587 -0.8144  0.3439
18513TIP3   OH277029   5.187   1.259   2.335  0.8411 -1.0020 -1.0015
18513TIP3    H177030   5.163   1.183   2.281  2.4353 -1.6675 -0.8214
18513TIP3    H277031   5.282   1.263   2.330  0.7638  1.8152 -2.0819
18514TIP3   OH277032   3.386   4.929  14.212 -0.3622  0.7056 -0.3171
18514TIP3    H177033   3.398   4.856  14.152  0.3581  0.9370 -0.4632
18514TIP3    H277034   3.332   4.894  14.282  0.4380 -0.1324 -0.1055
18515TIP3   OH277035   3.003   6.675   5.113  0.6450  0.0124  0.4014
18515TIP3    H177036   3.096   6.694   5.125  0.6940  0.0197  0.0087
18515TIP3    H277037   2.958   6.757   5.136  0.7789  0.2220 -0.0678
18516TIP3   OH277038   0.301   6.330  15.876 -0.1985 -0.0379  0.3678
18516TIP3    H177039   0.226   6.353  15.931 -1.0126 -2.0641  0.1930
18516TIP3    H277040   0.267   6.332  15.787  0.0418 -0.6686  0.2615
18517TIP3   OH277041   5.096   3.043   6.212  0.4662 -0.0172 -0.2548
18517TIP3    H177042   5.063   3.007   6.130 -0.5017  0.6066 -0.1406
18517TIP3    H277043   5.043   3.120   6.229  0.3556 -0.3779  1.1891
18518TIP3   OH277044   0.723   5.799   1.176 -0.1736  0.3300 -0.6967
18518TIP3    H177045   0.758   5.797   1.087 -0.6955  2.3188 -1.0000
18518TIP3    H277046   0.767   5.727   1.221  2.1625  0.9419 -1.8380
18519TIP3   OH277047   0.503   3.180  12.651 -0.5939 -0.3468  0.0465
18519TIP3    H177048   0.479   3.194  12.560 -0.9669 -0.6546  0.0969
18519TIP3    H277049   0.438   3.229  12.701  0.0670  0.4665  0.1336
18520TIP3   OH277050   5.110   0.989   5.681  0.3157 -1.0467  0.4842
18520TIP3    H177051   5.111   1.046   5.603  1.8282  2.3983  2.7699
18520TIP3    H277052   5.019   0.958   5.686 -0.6252  1.1565 -0.9808
18521TIP3   OH277053   0.465   5.529   1.442 -0.5861 -0.2384 -0.0470
18521TIP3    H177054   0.476   5.465   1.511 -0.8695  0.3256  0.5342
18521TIP3    H277055   0.376   5.562   1.454  0.0573  1.3622  0.6403
18522TIP3   OH277056   2.692   3.027  12.224  0.5060 -0.0292 -0.3668
18522TIP3    H177057   2.646   3.064  12.149  1.3028  0.0780 -0.8175
18522TIP3    H277058   2.682   2.932  12.214 -0.8883  0.0209  0.3719
18523TIP3   OH277059   3.261   5.859  10.877 -0.1595  0.7714  0.4324
18523TIP3    H177060   3.286   5.807  10.801 -3.3313  0.2731 -0.4117
18523TIP3    H277061   3.268   5.950  10.848 -1.4724  0.5808 -0.5417
18524TIP3   OH277062   6.616   4.781  11.937 -0.1024 -0.2093 -0.1123
18524TIP3    H177063   6.678   4.707  11.942 -0.8582 -0.7595  1.9047
18524TIP3    H277064   6.669   4.858  11.958  0.5172 -0.2526 -1.4145
18525TIP3   OH277065   2.771   3.381   3.155 -0.0333  0.6703  0.0290
18525TIP3    H177066   2.806   3.399   3.242  2.0599 -1.2654 -0.3249
18525TIP3    H277067   2.847   3.385   3.097 -1.1585  0.5833 -1.5131
18526TIP3   OH277068   1.219   5.857   2.552 -0.3026 -0.6747  0.0457
18526TIP3    H177069   1.217   5.792   2.623  0.4285  0.4463  1.1280
18526TIP3    H277070   1.161   5.927   2.582  0.4776  0.0846 -0.1866
18527TIP3   OH277071   0.045   0.807  14.249  0.0148 -0.4106 -0.3937
18527TIP3    H177072  -0.031   0.761  14.284  0.6040 -0.9920  0.1328
18527TIP3    H277073   0.092   0.741  14.199  1.2801 -0.6033  1.0052
18528TIP3   OH277074   6.433   2.174   0.922  0.0834  0.1439 -0.3230
18528TIP3    H177075   6.441   2.254   0.870  0.5076  0.6379  0.4810
18528TIP3    H277076   6.418   2.206   1.011 -0.5566 -0.6856 -0.1280
18529TIP3   OH277077   6.664   4.270   5.984  0.2725 -0.8221  0.1376
18529TIP3    H177078   6.689   4.258   6.076  0.0990 -0.0371  0.2956
18529TIP3    H277079   6.690   4.188   5.942  2.2326 -0.4315  0.4827
18530TIP3   OH277080   3.731   0.369  13.959  0.0198  0.1255 -0.3592
18530TIP3    H177081   3.650   0.318  13.958 -0.5828  0.9942  1.0793
18530TIP3    H277082   3.738   0.403  13.869 -2.7424  2.2707  0.1028
18531TIP3   OH277083   1.586   6.533   5.968  0.0976  0.0751 -0.0308
18531TIP3    H177084   1.568   6.440   5.958 -2.2743  0.4023  0.5899
18531TIP3    H277085   1.578   6.569   5.880  0.3676 -0.2192 -0.1741
18532TIP3   OH277086   4.705   4.788   3.587 -0.3536  0.3844 -0.0175
18532TIP3    H177087   4.742   4.848   3.651  1.5545  0.1953 -0.8695
18532TIP3    H277088   4.762   4.711   3.591 -1.4744 -0.4958 -0.4597
18533TIP3   OH277089   3.714   5.141   3.706  0.1598  0.5514 -0.1193
18533TIP3    H177090   3.623   5.168   3.693 -0.0325 -0.9033 -2.3229
18533TIP3    H277091   3.760   5.173   3.628  1.1834 -0.1822  0.1674
18534TIP3   OH277092   5.330   5.805  11.471 -0.6040 -0.2288 -0.2986
18534TIP3    H177093   5.325   5.795  11.566 -1.1498 -0.2385 -0.3226
18534TIP3    H277094   5.306   5.719  11.436  1.4254 -0.7758 -0.4358
18535TIP3   OH277095   0.312   5.575   4.896 -0.3501 -0.9023  0.1518
18535TIP3    H177096   0.350   5.503   4.946  0.9843  0.1935  0.7967
18535TIP3    H277097   0.273   5.534   4.819 -0.2162 -2.3634  0.8377
18536TIP3   OH277098   4.146   0.952  13.967 -0.3391 -0.3862  0.1768
18536TIP3    H177099   4.067   0.920  14.011 -1.2133 -0.1002 -1.1393
18536TIP3    H277100   4.204   0.876  13.964 -0.8178 -0.7726  0.5786
18537TIP3   OH277101   0.227   6.496  16.379  0.5830 -0.1571  0.0571
18537TIP3    H177102   0.247   6.568  16.439 -0.7489  1.6396 -1.5620
18537TIP3    H277103   0.297   6.499  16.314  0.2366  0.0299 -0.3093
18538TIP3   OH277104   1.005   1.441   6.231  0.0243 -0.0842 -0.5698
18538TIP3    H177105   0.937   1.479   6.287 -0.3386  0.2327 -1.2138
18538TIP3    H277106   1.083   1.492   6.249  0.0472 -0.3144  0.0214
18539TIP3   OH277107   4.010   1.917   0.789  0.1694  0.2546 -0.2343
18539TIP3    H177108   3.972   1.887   0.707  1.0628 -1.4658 -0.0569
18539TIP3    H277109   4.094   1.871   0.796  1.2368  2.1778  0.5056
18540TIP3   OH277110   2.404   4.833  15.103 -0.1171 -0.1664 -0.4354
18540TIP3    H177111   2.417   4.762  15.040  1.7649  1.0506 -1.4983
18540TIP3    H277112   2.373   4.789  15.183 -1.5285 -1.8590 -1.8297
18541TIP3   OH277113   4.735   4.710   2.067 -0.0726 -0.2043  0.6105
18541TIP3    H177114   4.749   4.664   1.984  0.1491 -0.0395  0.5561
18541TIP3    H277115   4.685   4.788   2.043  0.7681  0.3138  0.4977
18542TIP3   OH277116   2.403   4.966   5.484 -0.0033  0.2077  0.3053
18542TIP3    H177117   2.424   4.903   5.553  0.6874  0.9681  0.8020
18542TIP3    H277118   2.478   5.026   5.482  0.0772  0.0970 -1.2324
18543TIP3   OH277119   0.646   0.035  15.368  0.4806  0.6260 -0.0488
18543TIP3    H177120   0.569   0.066  15.319  1.0183 -0.2904 -1.5344
18543TIP3    H277121   0.628  -0.057  15.385  0.3235  0.9211  1.5130
18544TIP3   OH277122   2.591   5.002  15.402  0.7233  0.4210  0.0579
18544TIP3    H177123   2.535   5.078  15.386  0.6355  0.7586  1.7804
18544TIP3    H277124   2.530   4.932  15.427  0.9951  0.5699  1.1751
18545TIP3   OH277125   5.551   3.389  16.953  0.1742  0.4680  0.0175
18545TIP3    H177126   5.640   3.401  16.988  0.0785  0.9619  0.1053
18545TIP3    H277127   5.522   3.305  16.988  1.8287 -1.3776 -2.6464
18546TIP3   OH277128   4.180   6.430  13.112  0.6478 -0.0914  0.1824
18546TIP3    H177129   4.128   6.350  13.107 -0.1163  0.4629 -1.3059
18546TIP3    H277130   4.188   6.460  13.021 -0.3737  2.3233  0.8073
18547TIP3   OH277131   0.428   0.486  10.699  0.1753 -0.4466 -0.3642
18547TIP3    H177132   0.373   0.411  10.675  1.0495 -1.4488  0.6654
18547TIP3    H277133   0.508   0.473  10.649  1.5585 -1.9256  2.0624
18548TIP3   OH277134   0.908   0.121  14.844 -0.0180 -0.0205  0.2120
18548TIP3    H177135   0.966   0.075  14.783  0.0544 -0.7410  0.8129
18548TIP3    H277136   0.851   0.174  14.787  1.8105  1.4443 -0.3707
18549TIP3   OH277137   3.073   3.626   2.750  0.3536 -0.5137 -0.2130
18549TIP3    H177138   3.087   3.656   2.840  2.5325 -0.8873 -0.3814
18549TIP3    H277139   3.102   3.534   2.750 -0.0423 -0.6533 -1.1999
18550TIP3   OH277140   2.545   3.294  11.500 -0.2781 -0.0954  0.2524
18550TIP3    H177141   2.626   3.335  11.532  1.0086 -0.4966 -2.2658
18550TIP3    H277142   2.480   3.364  11.505  0.9172  1.0923 -0.2769
18551TIP3   OH277143   4.170   0.102  15.227  0.1479 -0.5293  0.1576
18551TIP3    H177144   4.250   0.081  15.275  0.0215  1.4299  1.3188
18551TIP3    H277145   4.185   0.067  15.139  1.6568 -1.4699  0.7470
18552TIP3   OH277146   3.727   5.284   0.331  0.0152  0.0006 -0.3331
18552TIP3    H177147   3.672   5.251   0.402 -0.5372 -0.7062 -1.0597
18552TIP3    H277148   3.675   5.354   0.290  0.7283  1.0577  0.5276
18553TIP3   OH277149   6.052   1.672  10.447 -0.7398  0.1363  0.3963
18553TIP3    H177150   6.115   1.637  10.384 -1.3224 -0.6740  0.2408
18553TIP3    H277151   6.059   1.613  10.523 -2.5499 -1.0700 -0.3135
18554TIP3   OH277152   4.957   1.514   1.220 -0.3143  0.1466 -0.3172
18554TIP3    H177153   4.970   1.425   1.253 -0.0956 -0.3493 -1.6736
18554TIP3    H277154   4.862   1.523   1.212 -0.3340  0.0174 -0.2349
18555TIP3   OH277155   4.425   1.082   2.583 -0.3138 -0.3544 -0.3379
18555TIP3    H177156   4.416   1.172   2.613 -0.8514 -0.2357 -0.8474
18555TIP3    H277157   4.337   1.056   2.556 -0.4336 -1.4787  1.0233
18556TIP3   OH277158   0.849   4.268  14.055 -0.4563  0.8430 -0.7340
18556TIP3    H177159   0.792   4.275  14.131 -2.0856 -3.1368 -1.3532
18556TIP3    H277160   0.920   4.209  14.083 -0.6343 -0.0192 -1.9799
18557TIP3   OH277161   0.058   2.833   3.667  0.0150 -0.5976 -0.4421
18557TIP3    H177162   0.026   2.743   3.663 -1.0728 -0.3067  0.8789
18557TIP3    H277163   0.072   2.858   3.576  1.9715 -2.6423 -0.7893
18558TIP3   OH277164   5.591   6.541  14.400 -0.2447 -0.0336  0.2094
18558TIP3    H177165   5.555   6.625  14.430  0.1257 -0.1621  1.0364
18558TIP3    H277166   5.609   6.555  14.307 -3.7340 -0.4063 -0.6393
18559TIP3   OH277167   0.360   3.142   4.434  0.4896 -0.3486 -0.1903
18559TIP3    H177168   0.283   3.144   4.377 -0.4416 -0.4521  1.0188
18559TIP3    H277169   0.405   3.224   4.416 -0.9255  0.6060  0.4095
18560TIP3   OH277170   3.562   1.237  16.376  0.1313  0.0930  0.2663
18560TIP3    H177171   3.529   1.257  16.463  1.3385  1.3113  0.4903
18560TIP3    H277172   3.552   1.319  16.327  0.1891 -0.3485 -0.5044
18561TIP3   OH277173   1.549   1.608  15.999  0.3973 -0.4868  0.2599
18561TIP3    H177174   1.560   1.702  16.015 -0.3963 -0.7214  2.5447
18561TIP3    H277175   1.637   1.572  16.002  0.8274  0.2780 -1.7046
18562TIP3   OH277176   4.903   0.170  11.280  0.1282  0.1057 -0.0645
18562TIP3    H177177   4.810   0.192  11.289  0.1384  0.7078 -1.3145
18562TIP3    H277178   4.906   0.076  11.297 -0.6532  0.1351  0.3131
18563TIP3   OH277179   0.922   1.913   1.796  0.9055  0.1589 -0.3886
18563TIP3    H177180   0.860   1.862   1.745  1.9455 -1.9756  0.3499
18563TIP3    H277181   0.868   1.969   1.851 -0.2700  0.3481 -1.6840
18564TIP3   OH277182   2.685   2.767  12.085 -0.4057 -0.9520  0.2825
18564TIP3    H177183   2.722   2.685  12.052  1.1291  0.5332 -1.9322
18564TIP3    H277184   2.703   2.831  12.017 -3.6030  0.8007  0.9036
18565TIP3   OH277185   1.132   3.102   2.476  1.2544 -0.5623  0.2829
18565TIP3    H177186   1.143   3.173   2.413  2.0122 -0.0115  1.0088
18565TIP3    H277187   1.211   3.105   2.530  0.3509 -0.6060  1.6711
18566TIP3   OH277188   3.760   3.406  16.140 -0.6152  0.4859 -0.1820
18566TIP3    H177189   3.779   3.358  16.060 -0.8543 -0.1559  0.1390
18566TIP3    H277190   3.823   3.479  16.140  0.0014 -0.0401 -0.4777
18567TIP3   OH277191   0.023   1.967  11.025 -0.1422 -0.2030 -0.3255
18567TIP3    H177192   0.088   1.999  10.963  0.5562  0.1203  0.5379
18567TIP3    H277193   0.030   1.871  11.019 -1.4212 -0.2364 -2.0731
18568TIP3   OH277194   0.573   0.368  10.905 -0.0000 -0.5099 -0.0183
18568TIP3    H177195   0.521   0.399  10.831 -0.0355 -0.6491 -0.0502
18568TIP3    H277196   0.613   0.287  10.875 -0.2289 -0.7061  0.2076
18569TIP3   OH277197   3.822   3.754   2.170 -0.2159  0.0567  0.3875
18569TIP3    H177198   3.792   3.837   2.134  1.3957  0.1280 -0.8574
18569TIP3    H277199   3.778   3.748   2.255 -1.0202  1.7556  0.1307
18570TIP3   OH277200   6.550   1.469  14.263 -0.0647  0.3254  0.2296
18570TIP3    H177201   6.573   1.471  14.170 -0.3175 -2.4861  0.0228
18570TIP3    H277202   6.625   1.510  14.307  0.4482  0.9145 -1.1417
18571TIP3   OH277203   2.920   4.379  13.549  0.2191 -0.0689 -0.0046
18571TIP3    H177204   2.861   4.349  13.617  1.0391  0.3716  0.9227
18571TIP3    H277205   2.941   4.469  13.573  0.2617  0.2042 -1.0247
18572TIP3   OH277206   2.305   3.056  12.448  0.0538 -0.3589 -0.0403
18572TIP3    H177207   2.389   3.101  12.437  0.2570 -1.1378 -1.9685
18572TIP3    H277208   2.319   2.999  12.524  1.3574 -0.6195 -0.4479
18573TIP3   OH277209   4.666   1.259  12.717  0.2130  0.0738 -0.1501
18573TIP3    H177210   4.637   1.343  12.681 -1.2047 -1.6543 -3.4459
18573TIP3    H277211   4.585   1.217  12.746  0.5740 -1.1356 -0.8558
18574TIP3   OH277212   5.493   5.101  10.454  0.1119  0.0420  0.4046
18574TIP3    H177213   5.554   5.170  10.479 -0.3141  0.9428 -0.9021
18574TIP3    H277214   5.476   5.117  10.361 -0.7332 -1.2628  0.3076
18575TIP3   OH277215   0.649   5.786   0.823 -0.2773  0.6960 -0.0847
18575TIP3    H177216   0.684   5.869   0.854 -0.8873  0.8788  0.1198
18575TIP3    H277217   0.570   5.810   0.774 -0.3550  0.2516 -0.1808
18576TIP3   OH277218   2.936   0.387   0.257 -0.2325  0.0781  0.6391
18576TIP3    H177219   2.910   0.296   0.268  0.3038 -0.2043 -0.2960
18576TIP3    H277220   3.030   0.383   0.240  0.1081  0.9354  2.1690
18577TIP3   OH277221   3.308   4.261   3.069  0.0873  0.3576 -0.1825
18577TIP3    H177222   3.225   4.214   3.074  0.1442  0.1160 -1.2074
18577TIP3    H277223   3.357   4.230   3.145 -0.6529  0.2930  0.2753
18578TIP3   OH277224   5.722   6.414  12.199 -0.4810  0.1913 -0.3763
18578TIP3    H177225   5.727   6.496  12.249  0.1174  0.9212 -1.5707
18578TIP3    H277226   5.655   6.363  12.244 -1.2944  1.5803  0.0765
18579TIP3   OH277227   1.369   6.174  14.900  0.3649 -0.1770 -0.4136
18579TIP3    H177228   1.355   6.082  14.877  2.2584 -0.7881  0.6359
18579TIP3    H277229   1.426   6.171  14.977  0.2230  1.8826 -0.1766
18580TIP3   OH277230   4.576   5.520   1.787 -0.8691 -0.3371 -0.4938
18580TIP3    H177231   4.495   5.470   1.783 -1.3588  0.4899 -3.0021
18580TIP3    H277232   4.628   5.486   1.714  0.2631  0.3884 -0.0549
18581TIP3   OH277233   5.169   1.001  15.213  0.1125 -0.1327  0.5529
18581TIP3    H177234   5.248   1.046  15.185  0.0021  1.0976  2.1272
18581TIP3    H277235   5.124   1.063  15.270 -2.4994 -0.4026 -1.0271
18582TIP3   OH277236   6.089   0.639  15.465 -0.6900 -0.3360 -0.3709
18582TIP3    H177237   6.104   0.714  15.523 -0.2280  0.7168 -1.8009
18582TIP3    H277238   6.036   0.674  15.394  0.2563 -1.1630 -1.5151
18583TIP3   OH277239   1.654   3.548   2.526  0.4475 -0.2558 -0.0626
18583TIP3    H177240   1.613   3.463   2.541  0.8105 -0.2851  0.8604
18583TIP3    H277241   1.653   3.590   2.612  2.0241 -0.1202 -0.0739
18584TIP3   OH277242   0.543   0.106  16.047 -0.1150 -0.5946 -0.5694
18584TIP3    H177243   0.563   0.149  15.963 -0.7044  1.5361  0.3083
18584TIP3    H277244   0.626   0.068  16.075  0.4130 -0.1595 -1.4924
18585TIP3   OH277245   1.075   1.224   5.404  0.8518 -0.2282  0.6211
18585TIP3    H177246   1.171   1.224   5.407  0.8763 -1.6716  0.4698
18585TIP3    H277247   1.050   1.295   5.463  2.0138  0.6357  0.1160
18586TIP3   OH277248   6.318   5.034  14.867  0.4208 -0.1564  0.0500
18586TIP3    H177249   6.223   5.032  14.875  0.5129 -0.1063  1.3965
18586TIP3    H277250   6.336   5.104  14.804 -0.3572  1.6655  1.7486
18587TIP3   OH277251   1.825   5.833   0.219  0.3067 -0.1906 -0.5024
18587TIP3    H177252   1.897   5.773   0.238  0.5082  0.0061 -0.6306
18587TIP3    H277253   1.869   5.916   0.198  0.0387 -0.0481 -0.4969
18588TIP3   OH277254   4.687   3.563   5.019 -0.3265  0.2644 -0.5954
18588TIP3    H177255   4.615   3.625   5.029  0.9133  1.4313  2.8978
18588TIP3    H277256   4.758   3.615   4.981 -0.1122  0.2885 -0.1763
18589TIP3   OH277257   3.953   4.949   2.020 -0.7577 -0.4266 -0.4158
18589TIP3    H177258   3.985   5.038   2.009 -2.0188 -0.1624 -2.4811
18589TIP3    H277259   4.032   4.895   2.022 -0.0333  0.6135 -0.2989
18590TIP3   OH277260   5.213   5.352  11.592 -0.1921 -0.3168 -0.0762
18590TIP3    H177261   5.124   5.319  11.582 -1.6521  3.2532 -0.5588
18590TIP3    H277262   5.250   5.347  11.503 -1.3229  1.4969 -0.7061
18591TIP3   OH277263   0.586   2.376  11.588 -0.3552  0.3737 -0.6295
18591TIP3    H177264   0.555   2.446  11.530  3.5120  0.7749 -2.5351
18591TIP3    H277265   0.648   2.419  11.647  1.5564 -1.2070 -1.3601
18592TIP3   OH277266   1.495   1.210  13.811 -0.7787  0.0325  0.2795
18592TIP3    H177267   1.549   1.246  13.740  0.0020 -1.2387  0.1999
18592TIP3    H277268   1.466   1.287  13.860 -0.3282  0.8579 -0.7062
18593TIP3   OH277269   6.216   1.873   0.553  0.0426 -0.0635 -0.2921
18593TIP3    H177270   6.224   1.782   0.582 -0.6070 -0.3271 -0.9052
18593TIP3    H277271   6.137   1.906   0.597 -1.6209 -0.8178 -2.5447
18594TIP3   OH277272   3.997   2.486  13.297 -0.3706  0.2611  0.7371
18594TIP3    H177273   3.909   2.481  13.335 -0.4138  0.1035  0.6190
18594TIP3    H277274   4.018   2.396  13.273 -0.4703  0.3994  0.1103
18595TIP3   OH277275   3.462   1.727  15.553 -0.7545 -0.3932  0.0811
18595TIP3    H177276   3.439   1.665  15.484 -1.5372  0.7342 -0.7068
18595TIP3    H277277   3.419   1.809  15.527  0.5567  0.5947  0.8783
18596TIP3   OH277278   5.706   2.236  15.325  0.2902  0.2176 -0.2338
18596TIP3    H177279   5.673   2.157  15.281 -0.6473 -0.3481  1.3842
18596TIP3    H277280   5.777   2.204  15.381 -1.3206  0.1139  1.8784
18597TIP3   OH277281   2.546   2.097  14.367 -0.2147  0.2646  0.1248
18597TIP3    H177282   2.635   2.062  14.364  0.2043  1.3344 -0.1639
18597TIP3    H277283   2.515   2.093  14.276 -0.6565 -0.5435  0.2940
18598TIP3   OH277284   6.429   6.463   0.909  0.3598  0.1393  0.3002
18598TIP3    H177285   6.415   6.557   0.902  0.6147  0.0924 -1.3650
18598TIP3    H277286   6.347   6.428   0.943  0.0544  0.8971  0.3473
18599TIP3   OH277287   4.251   0.823  14.575  0.3120 -0.2806 -0.3256
18599TIP3    H177288   4.323   0.762  14.589  1.1374  1.0137  1.3521
18599TIP3    H277289   4.262   0.852  14.484  2.5162  0.5886  0.1437
18600TIP3   OH277290   4.736   1.740   1.517 -1.0666  0.4262  0.4885
18600TIP3    H177291   4.831   1.751   1.518 -0.9433 -0.5774  0.4511
18600TIP3    H277292   4.712   1.730   1.609 -1.0659  0.1467  0.4596
18601TIP3   OH277293   1.257   3.315   2.369  0.0328 -1.0504 -0.2898
18601TIP3    H177294   1.255   3.407   2.344 -3.5023 -1.3199 -1.5111
18601TIP3    H277295   1.315   3.274   2.305  0.2898  0.0545 -0.7954
18602TIP3   OH277296   1.983   6.837   4.501  0.5628 -0.5173 -0.0996
18602TIP3    H177297   2.016   6.843   4.412 -0.3568 -0.4088 -0.4400
18602TIP3    H277298   1.888   6.835   4.492  0.4546 -0.4661  0.8784
18603TIP3   OH277299   2.802   3.750  15.926 -0.1216  0.1188 -0.7989
18603TIP3    H177300   2.861   3.697  15.872  0.7400  0.5635 -0.3185
18603TIP3    H277301   2.801   3.705  16.011 -0.2643  0.2580 -0.7269
18604TIP3   OH277302   5.180   4.645  14.109  0.1939 -0.4686  0.2802
18604TIP3    H177303   5.111   4.675  14.050 -0.0101  0.0166  0.7552
18604TIP3    H277304   5.134   4.604  14.181  0.4586 -1.4581 -0.1018
18605TIP3   OH277305   2.811   4.434   0.635 -0.6584 -0.1915 -0.2627
18605TIP3    H177306   2.814   4.521   0.675  0.0636 -0.5932  0.5833
18605TIP3    H277307   2.718   4.419   0.616 -0.8367  0.5884 -0.0308
18606TIP3   OH277308   5.649   1.553   0.599 -0.0422  0.5007 -0.5444
18606TIP3    H177309   5.584   1.484   0.589 -0.4163  0.9462 -1.3257
18606TIP3    H277310   5.689   1.537   0.684  0.2284 -0.9755 -0.9142
18607TIP3   OH277311   0.352   4.923   3.550 -0.4239 -0.1143  0.1205
18607TIP3    H177312   0.364   4.876   3.467 -0.7171 -1.4333  0.7984
18607TIP3    H277313   0.368   4.857   3.617 -1.0152  0.7226  1.1093
18608TIP3   OH277314   1.118   3.129   4.732 -0.0057  0.4695  0.2286
18608TIP3    H177315   1.066   3.185   4.791 -1.0123  1.3764 -1.4414
18608TIP3    H277316   1.194   3.183   4.710 -1.4391  1.6663 -2.1272
18609TIP3   OH277317   1.421   1.846   5.588  0.3415 -0.4267 -0.0526
18609TIP3    H177318   1.514   1.858   5.609  0.1729 -0.2214  0.6073
18609TIP3    H277319   1.387   1.794   5.661  0.1486 -1.3740 -0.7894
18610TIP3   OH277320   1.278   2.133  14.653 -0.2483  0.2380 -0.1986
18610TIP3    H177321   1.334   2.208  14.640  0.2960 -0.1801 -0.2880
18610TIP3    H277322   1.222   2.158  14.727  0.3584  0.4847  0.1883
18611TIP3   OH277323   4.818   1.429   0.948 -0.2650  0.1060 -0.0295
18611TIP3    H177324   4.738   1.441   0.999 -1.5453 -0.7540 -1.7076
18611TIP3    H277325   4.858   1.517   0.944 -2.0220  0.9291 -0.5238
18612TIP3   OH277326   2.028   1.818  17.030 -1.1501 -0.0917 -0.4141
18612TIP3    H177327   2.108   1.784  17.069 -1.7175 -0.9612  0.0377
18612TIP3    H277328   2.054   1.852  16.945 -0.3507 -0.5874 -0.3707
18613TIP3   OH277329   5.150   5.689  11.910 -0.1012 -0.4010 -0.3398
18613TIP3    H177330   5.205   5.631  11.963 -2.1041 -1.4657  0.6775
18613TIP3    H277331   5.085   5.723  11.972 -0.2085  1.3754 -1.3567
18614TIP3   OH277332   3.510   4.404  15.953  0.1454 -0.0540  0.3973
18614TIP3    H177333   3.469   4.322  15.980 -0.7479  0.8004  1.7396
18614TIP3    H277334   3.450   4.472  15.982  0.5843  1.0803 -1.1993
18615TIP3   OH277335   4.300   3.713  16.017  0.1772 -0.3176  0.2166
18615TIP3    H177336   4.396   3.715  16.009  0.2541  1.1766  1.0881
18615TIP3    H277337   4.275   3.806  16.018 -1.0398 -0.6128  2.6435
18616TIP3   OH277338   6.179   0.840  13.203  0.0077  0.1846  0.1156
18616TIP3    H177339   6.132   0.762  13.233 -3.8018  2.2904  0.1749
18616TIP3    H277340   6.177   0.900  13.277  2.2698  0.7008 -0.1513
18617TIP3   OH277341   5.487   5.921  16.256  0.4251 -0.1586  0.4685
18617TIP3    H177342   5.437   5.911  16.337 -1.8211 -0.4147 -0.8434
18617TIP3    H277343   5.465   6.009  16.225  0.5941 -0.3634 -0.2589
18618TIP3   OH277344   1.436   6.661  13.356 -0.3189 -0.1994  0.1498
18618TIP3    H177345   1.342   6.679  13.348 -0.2950 -0.2443 -0.2474
18618TIP3    H277346   1.459   6.620  13.272  0.7204  2.6107 -1.0574
18619TIP3   OH277347   1.291   2.054  11.153  0.4688 -0.1959  0.3194
18619TIP3    H177348   1.323   2.015  11.072  1.6307 -0.5925  0.9358
18619TIP3    H277349   1.207   2.012  11.169 -0.4767  0.9439 -1.4120
18620TIP3   OH277350   5.009   4.126   5.318 -0.0210 -0.2135 -0.5618
18620TIP3    H177351   5.084   4.098   5.266  0.1750  0.6098 -0.7356
18620TIP3    H277352   4.944   4.057   5.306  0.2027 -0.2790 -1.5163
18621TIP3   OH277353   0.678   6.457   2.716  0.4116 -0.1288  0.2741
18621TIP3    H177354   0.683   6.428   2.625 -1.5534 -1.4540  0.5258
18621TIP3    H277355   0.686   6.376   2.767 -0.8848  0.2834  1.1803
18622TIP3   OH277356   1.788   4.241   5.844  0.1182 -0.3600 -0.2565
18622TIP3    H177357   1.843   4.318   5.858 -0.5939  0.1453 -0.2219
18622TIP3    H277358   1.750   4.222   5.929 -0.5168 -0.1238 -0.4829
18623TIP3   OH277359   2.446   3.247   6.503  0.1623  0.1394  0.2014
18623TIP3    H177360   2.387   3.188   6.457 -0.4707  0.3105  0.7769
18623TIP3    H277361   2.496   3.191   6.562 -1.2413  0.2780  1.5909
18624TIP3   OH277362   3.478   2.958  11.443 -0.5219  0.2968 -0.4824
18624TIP3    H177363   3.452   3.050  11.439 -1.2665  0.0763 -0.8621
18624TIP3    H277364   3.563   2.955  11.397  0.1653  1.0059  0.6922
18625TIP3   OH277365   5.694   5.278  16.457  0.5410 -0.3317 -0.6152
18625TIP3    H177366   5.738   5.202  16.493  0.7734 -0.8626 -1.9761
18625TIP3    H277367   5.658   5.248  16.374  0.4748  0.9909 -1.0882
18626TIP3   OH277368   2.738   4.560   2.198  0.8048 -0.7065 -0.1319
18626TIP3    H177369   2.740   4.521   2.285 -0.6397  0.1074  0.3044
18626TIP3    H277370   2.685   4.500   2.145 -0.1934 -0.1164  0.1615
18627TIP3   OH277371   4.128   0.823  16.675  0.6279  0.2942  0.4679
18627TIP3    H177372   4.211   0.822  16.628  0.5593 -0.3220  0.3537
18627TIP3    H277373   4.062   0.803  16.609  0.3569  1.0037  0.5111
18628TIP3   OH277374   5.943   0.726  10.898 -0.4640  0.0458 -0.0355
18628TIP3    H177375   5.957   0.655  10.960  1.6233 -0.5834 -1.1222
18628TIP3    H277376   5.971   0.805  10.944  0.1386 -0.2807  0.1655
18629TIP3   OH277377   5.073   2.891   2.840 -0.6170 -0.3301  0.0963
18629TIP3    H177378   5.139   2.832   2.877 -0.3342  0.1528  0.3622
18629TIP3    H277379   4.996   2.880   2.896  0.1106  1.0998  1.4339
18630TIP3   OH277380   2.599   6.181   3.716 -0.7030  0.2024 -0.6632
18630TIP3    H177381   2.655   6.259   3.718 -0.0339 -0.1608 -2.6052
18630TIP3    H277382   2.657   6.112   3.684 -2.2588 -0.1381 -2.9917
18631TIP3   OH277383   4.443   4.697   1.773 -0.0764  0.8515  0.9868
18631TIP3    H177384   4.406   4.630   1.716 -1.1602  0.7244  1.8048
18631TIP3    H277385   4.519   4.730   1.725  0.2581 -0.6827  0.3871
18632TIP3   OH277386   1.175   0.419   3.002 -0.1454 -0.2686  0.2763
18632TIP3    H177387   1.109   0.486   2.986 -1.0654 -1.1659  0.2179
18632TIP3    H277388   1.198   0.430   3.094 -0.5825 -0.1283  0.3742
18633TIP3   OH277389   0.993   1.528   4.863 -0.7370  0.1763  0.2006
18633TIP3    H177390   1.029   1.615   4.883 -1.9772  0.8919 -0.5413
18633TIP3    H277391   0.900   1.544   4.850 -0.7892 -1.0845 -1.1288
18634TIP3   OH277392   6.314   3.363   2.715  0.1796 -0.8802 -0.0883
18634TIP3    H177393   6.299   3.429   2.648 -0.9508 -1.8962 -0.8834
18634TIP3    H277394   6.387   3.396   2.766  0.6602  0.2169 -1.4426
18635TIP3   OH277395   4.227   3.795  10.554  0.4000  0.5551 -0.0335
18635TIP3    H177396   4.307   3.830  10.591 -0.7515  0.6584  2.5922
18635TIP3    H277397   4.157   3.836  10.605 -1.2193 -1.3194 -0.5943
18636TIP3   OH277398   1.876   0.671   4.089  0.0922  0.4265 -0.0823
18636TIP3    H177399   1.786   0.689   4.116  0.4112  1.2560  0.4687
18636TIP3    H277400   1.901   0.747   4.037  0.8417  0.7269  0.6946
18637TIP3   OH277401   0.657   0.873  11.466  0.7865 -0.0264  0.2431
18637TIP3    H177402   0.663   0.810  11.394  2.3383 -0.0454  0.3480
18637TIP3    H277403   0.642   0.957  11.422 -0.5286 -0.3411  0.0579
18638TIP3   OH277404   1.298   5.952  14.793  0.2951 -0.4236  0.0848
18638TIP3    H177405   1.212   5.949  14.750  0.7122  0.6459 -0.8813
18638TIP3    H277406   1.337   5.867  14.776 -0.3338 -0.6984  0.0079
18639TIP3   OH277407   4.136   1.013  10.558  0.0959  0.6090  0.6350
18639TIP3    H177408   4.127   1.053  10.471  2.1750  0.5248  0.3166
18639TIP3    H277409   4.101   1.078  10.618 -2.7402  0.0863 -0.2991
18640TIP3   OH277410   4.623   2.521  11.988  0.2956  0.6259  0.8012
18640TIP3    H177411   4.694   2.498  12.049 -0.8269 -0.2233  1.8317
18640TIP3    H277412   4.668   2.554  11.910  1.8459 -0.3458  1.2399
18641TIP3   OH277413   4.384   1.713   3.467 -0.2012 -0.3918  0.3580
18641TIP3    H177414   4.344   1.642   3.417 -0.4249  0.4823 -0.7309
18641TIP3    H277415   4.359   1.793   3.421  1.0059  0.3327  0.9007
18642TIP3   OH277416   5.718   3.401   2.763 -0.0871 -0.7797  0.0162
18642TIP3    H177417   5.772   3.370   2.690  0.8369 -1.1846  0.8493
18642TIP3    H277418   5.722   3.331   2.827  0.4625  0.2338  1.1311
18643TIP3   OH277419   0.223   3.089  10.919  0.1541  0.4534  0.0262
18643TIP3    H177420   0.186   3.029  10.854 -1.1533  0.6131  0.5912
18643TIP3    H277421   0.182   3.174  10.899  0.0682  0.5979  0.7727
18644TIP3   OH277422   4.639   6.790   1.956  0.4783  0.6884  0.3673
18644TIP3    H177423   4.667   6.763   1.869 -2.5271  0.8328 -0.7736
18644TIP3    H277424   4.587   6.716   1.988 -0.3772  1.5502  1.0197
18645TIP3   OH277425   2.643   4.522   2.896 -0.2116 -0.0544  0.2155
18645TIP3    H177426   2.727   4.477   2.910  0.1616  0.5513 -0.0316
18645TIP3    H277427   2.581   4.473   2.950  0.2254 -0.7317  0.1288
18646TIP3   OH277428   5.876   3.250   5.114 -0.0448  0.1603 -0.1283
18646TIP3    H177429   5.911   3.320   5.169 -0.3892 -0.8110  1.3924
18646TIP3    H277430   5.947   3.186   5.108 -0.1907  0.0194 -0.3591
18647TIP3   OH277431   0.896   3.055  15.908  0.3491 -0.4828  0.6229
18647TIP3    H177432   0.860   3.019  15.989 -1.6362 -1.4593 -0.6173
18647TIP3    H277433   0.926   2.979  15.859  0.9551  0.0471  0.1519
18648TIP3   OH277434   0.818   1.885   1.038  0.3725 -0.1710 -0.1578
18648TIP3    H177435   0.812   1.978   1.017 -1.3665  0.1999  1.6261
18648TIP3    H277436   0.867   1.881   1.119 -0.8332 -0.6255  0.5830
18649TIP3   OH277437   4.722   0.494  11.920  0.4028  0.0884 -0.0904
18649TIP3    H177438   4.637   0.477  11.959  0.0264 -0.4859 -1.1276
18649TIP3    H277439   4.728   0.590  11.916 -0.9817  0.1685 -1.5973
18650TIP3   OH277440   5.132   6.498   1.844  0.4539 -0.6070 -0.1809
18650TIP3    H177441   5.167   6.519   1.757 -1.9477  0.2181 -1.0291
18650TIP3    H277442   5.088   6.579   1.872 -0.1620 -1.3607  1.1122
18651TIP3   OH277443   4.963   3.928  14.830 -0.5570  0.7325  0.0887
18651TIP3    H177444   4.897   3.908  14.764 -0.2074  1.0761 -0.3735
18651TIP3    H277445   5.007   3.845  14.846  0.1303  0.8733 -0.9783
18652TIP3   OH277446   4.206   2.751   6.099 -0.8765  0.5053  0.4551
18652TIP3    H177447   4.263   2.706   6.037 -1.0164  1.8269 -0.6830
18652TIP3    H277448   4.171   2.681   6.154 -1.4494 -0.8728 -1.5228
18653TIP3   OH277449   0.750   1.369  13.560 -0.6876 -0.2401 -0.4993
18653TIP3    H177450   0.713   1.328  13.638  0.6460 -0.2789  0.1398
18653TIP3    H277451   0.804   1.441  13.593 -0.3274 -0.0713 -1.3983
18654TIP3   OH277452   1.273   1.212  12.154  0.1396  0.1241  0.3913
18654TIP3    H177453   1.333   1.282  12.129  1.2659 -1.3691 -1.3712
18654TIP3    H277454   1.244   1.174  12.071 -0.6484 -1.3111  1.2727
18655TIP3   OH277455   2.575   5.122  14.875  0.7556 -0.3007  0.1714
18655TIP3    H177456   2.483   5.098  14.868  0.6181  0.6234 -2.0776
18655TIP3    H277457   2.574   5.218  14.879  1.5548 -0.3290  2.7941
18656TIP3   OH277458   3.582   4.470   3.125  0.4236  0.4390 -0.0397
18656TIP3    H177459   3.600   4.520   3.204  0.7002 -1.5560  1.2419
18656TIP3    H277460   3.626   4.386   3.140 -1.0728 -0.6745 -1.5037
18657TIP3   OH277461   5.917   6.070  13.041 -0.2060  0.1363  0.2395
18657TIP3    H177462   5.986   6.006  13.062 -0.9733 -0.5987  0.5486
18657TIP3    H277463   5.965   6.148  13.013  0.7489 -0.8458 -0.9627
18658TIP3   OH277464   1.349   5.400  14.869  0.1205  0.1725  0.0368
18658TIP3    H177465   1.435   5.361  14.884  0.6847  1.0419 -0.8623
18658TIP3    H277466   1.338   5.401  14.774 -0.1108  1.6786  0.0509
18659TIP3   OH277467   0.428   1.488  11.084 -0.1452  0.5806  0.3209
18659TIP3    H177468   0.489   1.535  11.141 -0.1317  1.3064 -0.2803
18659TIP3    H277469   0.421   1.542  11.005 -1.0059  0.1464  0.0765
18660TIP3   OH277470   0.244   3.558   0.589  0.3789 -0.7832  0.1543
18660TIP3    H177471   0.318   3.501   0.568  1.7539  0.3104  1.8663
18660TIP3    H277472   0.244   3.623   0.519  1.1313 -0.7052  0.2205
18661TIP3   OH277473   5.154   1.411   4.687 -0.0371 -0.2945 -0.2924
18661TIP3    H177474   5.097   1.334   4.686 -0.2553 -0.1513  0.6427
18661TIP3    H277475   5.098   1.482   4.657 -0.1203 -0.3107 -0.1770
18662TIP3   OH277476   3.260   3.545   0.467 -0.0630  0.4822  0.1582
18662TIP3    H177477   3.333   3.593   0.427  0.7422 -1.2540 -0.5533
18662TIP3    H277478   3.302   3.479   0.522 -1.0495 -1.1893 -1.0309
18663TIP3   OH277479   3.986   0.248   5.493 -0.3018 -0.0412  0.0114
18663TIP3    H177480   3.955   0.185   5.559 -2.2906  0.9787  0.1301
18663TIP3    H277481   4.009   0.326   5.544  1.0484 -0.2514 -0.2468
18664TIP3   OH277482   3.298   4.940  13.754  0.3626 -0.3691 -0.8059
18664TIP3    H177483   3.334   4.980  13.674  0.0873 -1.0791 -1.3008
18664TIP3    H277484   3.335   4.992  13.825  2.6114 -1.2174 -1.2672
18665TIP3   OH277485   0.580   1.875  11.297 -0.0961  0.1133 -0.2798
18665TIP3    H177486   0.513   1.829  11.348 -0.8993 -0.0768 -1.4732
18665TIP3    H277487   0.640   1.806  11.269  0.0658  0.1517 -0.0389
18666TIP3   OH277488   1.018   4.233   3.794  0.4026  0.7434 -0.1682
18666TIP3    H177489   1.011   4.204   3.884  0.1658 -0.1775 -0.4707
18666TIP3    H277490   1.071   4.166   3.751  0.8488  1.3735 -0.6308
18667TIP3   OH277491   6.183   4.770  15.837  0.0695 -0.1020  0.4058
18667TIP3    H177492   6.210   4.679  15.820  1.5542  0.3059  0.4790
18667TIP3    H277493   6.198   4.782  15.931 -0.0004  0.2629  0.3698
18668TIP3   OH277494   3.643   2.331   0.770  0.3260  0.4714 -0.2053
18668TIP3    H177495   3.664   2.423   0.751  0.4997  0.6852  0.9397
18668TIP3    H277496   3.727   2.292   0.793  0.1176  0.2519  0.1856
18669TIP3   OH277497   1.118   6.635   0.507 -0.1272  0.0867 -0.2518
18669TIP3    H177498   1.164   6.567   0.556 -0.8100  0.8419  1.5364
18669TIP3    H277499   1.187   6.682   0.461  0.5141 -0.8664 -0.2924
18670TIP3   OH277500   5.304   6.214  15.921  0.0282 -0.1965 -0.0809
18670TIP3    H177501   5.242   6.286  15.934  0.7105  0.2398  0.8204
18670TIP3    H277502   5.340   6.229  15.834  1.4389  1.5714  0.7578
18671TIP3   OH277503   6.546   2.422   2.560 -0.3280  0.2234 -0.2271
18671TIP3    H177504   6.556   2.446   2.468  1.5957  0.0150 -0.1105
18671TIP3    H277505   6.508   2.334   2.558  0.8740 -0.3076 -0.8835
18672TIP3   OH277506   5.841   3.523   5.602  0.4868 -0.2166  0.3313
18672TIP3    H177507   5.775   3.455   5.589  1.1060 -0.5421 -1.4499
18672TIP3    H277508   5.792   3.605   5.595  0.0270 -0.4685  0.5891
18673TIP3   OH277509   3.335   2.128  15.366  0.3813  0.3335  0.0821
18673TIP3    H177510   3.422   2.136  15.326  0.2012  1.2299 -0.1527
18673TIP3    H277511   3.279   2.184  15.313 -0.5185 -0.8100 -0.2297
18674TIP3   OH277512   2.472   3.680   5.706 -0.6752 -0.0902 -0.1277
18674TIP3    H177513   2.393   3.733   5.697 -1.2372 -0.7831  0.5944
18674TIP3    H277514   2.475   3.655   5.798 -0.6757 -1.6596 -0.5112
18675TIP3   OH277515   2.408   0.768   3.966  0.8307  0.4431 -0.3054
18675TIP3    H177516   2.492   0.786   4.008  0.9057 -0.0591 -0.2347
18675TIP3    H277517   2.372   0.855   3.946  0.2871  0.7446  1.7854
18676TIP3   OH277518   5.565   4.040   5.827 -0.3408 -0.4327  0.4418
18676TIP3    H177519   5.603   3.953   5.840 -0.7801 -0.6117  0.5371
18676TIP3    H277520   5.512   4.055   5.906 -0.1902 -0.0364  0.4740
18677TIP3   OH277521   3.588   3.159   3.584 -0.7781  0.6980  0.5996
18677TIP3    H177522   3.598   3.250   3.610  1.0191  0.7273 -0.0596
18677TIP3    H277523   3.579   3.162   3.489  1.2694  0.1119  0.3458
18678TIP3   OH277524   1.078   1.314  15.255  0.1262 -0.1206  0.0664
18678TIP3    H177525   1.172   1.320  15.272  0.0580 -1.2070  0.9713
18678TIP3    H277526   1.054   1.401  15.223  1.1274  0.7404  1.4903
18679TIP3   OH277527   3.306   4.909  11.689  0.3224 -0.0071 -0.3818
18679TIP3    H177528   3.358   4.917  11.609  1.3522 -0.9535  0.1485
18679TIP3    H277529   3.228   4.861  11.663  0.5840 -0.1735 -0.8676
18680TIP3   OH277530   1.031   4.563  12.637 -0.1846  0.0771  0.4167
18680TIP3    H177531   1.064   4.588  12.724  2.7165 -0.4280 -0.4338
18680TIP3    H277532   1.107   4.568  12.580 -1.0736 -3.3495 -1.3555
18681TIP3   OH277533   0.152   4.290   2.864 -0.4201 -0.1320  0.0474
18681TIP3    H177534   0.096   4.291   2.786 -1.1164 -0.3016  0.5348
18681TIP3    H277535   0.100   4.333   2.932 -0.0737 -0.5373  0.5845
18682TIP3   OH277536   3.887   6.133   0.258 -0.0549 -0.7192 -0.8524
18682TIP3    H177537   3.892   6.045   0.295  1.5722 -0.6467 -0.8268
18682TIP3    H277538   3.943   6.186   0.316  0.4319 -0.0600 -1.9018
18683TIP3   OH277539   1.991   2.925  15.494  0.2246 -0.0793  0.0109
18683TIP3    H177540   2.074   2.953  15.530  0.3155  0.0050 -0.2583
18683TIP3    H277541   1.936   2.906  15.570  0.6234 -0.5363  0.1886
18684TIP3   OH277542   2.512   0.965  11.451  0.0075 -0.3429  0.9317
18684TIP3    H177543   2.523   1.059  11.438 -0.6636 -0.4886 -1.0808
18684TIP3    H277544   2.565   0.925  11.383 -2.2888 -1.2965 -0.4239
18685TIP3   OH277545   0.275   0.257  16.911  0.6250 -0.7710  0.5570
18685TIP3    H177546   0.244   0.296  16.829  3.4796 -1.3498 -0.9370
18685TIP3    H277547   0.328   0.326  16.952 -0.1173 -0.7620  1.5272
18686TIP3   OH277548   4.782   1.836  13.052 -0.2797 -0.9077 -0.4233
18686TIP3    H177549   4.761   1.786  13.131  0.9524 -0.0692  0.4726
18686TIP3    H277550   4.872   1.865  13.064 -1.6249  3.8857  0.5469
18687TIP3   OH277551   5.073   1.375   3.756 -0.6573 -0.1060  0.0735
18687TIP3    H177552   5.005   1.407   3.697 -1.0769 -2.2842 -0.7189
18687TIP3    H277553   5.043   1.289   3.783  1.0971 -0.5118  0.8934
18688TIP3   OH277554   1.954   3.243   1.969 -0.2769  0.5560  0.4923
18688TIP3    H177555   2.011   3.273   1.898  0.0152 -1.1877 -0.0516
18688TIP3    H277556   1.865   3.261   1.937 -0.1240  0.3563 -0.0490
18689TIP3   OH277557   6.716   3.352   1.074  0.2021 -0.3068  0.6187
18689TIP3    H177558   6.803   3.372   1.110 -0.3821  2.3720  0.7831
18689TIP3    H277559   6.656   3.365   1.147 -0.4908 -0.5420  0.1012
18690TIP3   OH277560   1.062   0.512  15.873 -0.7404  0.1541 -0.0481
18690TIP3    H177561   1.004   0.437  15.859 -1.4022  0.5726  0.4049
18690TIP3    H277562   1.003   0.587  15.880 -0.1852  0.5302  0.8452
18691TIP3   OH277563   2.201   4.586   1.892 -0.1771 -0.0080 -0.3525
18691TIP3    H177564   2.170   4.530   1.820  2.1594 -4.4274  1.6664
18691TIP3    H277565   2.130   4.584   1.956 -0.8966  1.1208 -1.0763
18692TIP3   OH277566   5.748   0.128   3.840  0.1623 -0.3274 -0.0130
18692TIP3    H177567   5.819   0.124   3.903  0.6442 -0.3880 -0.5546
18692TIP3    H277568   5.769   0.203   3.784  0.3850 -0.9953 -0.8523
18693TIP3   OH277569   3.172   6.338   5.539 -0.1043  0.4249  0.1140
18693TIP3    H177570   3.135   6.426   5.535  2.8218  1.8218  0.8633
18693TIP3    H277571   3.167   6.314   5.632 -0.6689 -0.1289 -0.0503
18694TIP3   OH277572   5.070   5.922  16.333  0.0685  0.0559  0.3269
18694TIP3    H177573   5.101   5.836  16.362 -1.7573 -0.6289  0.3832
18694TIP3    H277574   5.024   5.958  16.409 -0.7776  0.2534 -0.2559
18695TIP3   OH277575   3.781   6.707   0.260  0.3194 -0.4494 -0.6415
18695TIP3    H177576   3.823   6.776   0.311 -0.6425 -1.1248  1.1495
18695TIP3    H277577   3.721   6.665   0.321 -0.3113 -1.8321 -2.1334
18696TIP3   OH277578   0.626   3.904   0.360  0.2048  0.0101 -0.2777
18696TIP3    H177579   0.550   3.955   0.388 -1.1041 -2.0923  0.2488
18696TIP3    H277580   0.634   3.923   0.266 -0.4434  0.8983 -0.1639
18697TIP3   OH277581   4.812   4.957  14.789 -0.1377  0.6227 -0.5381
18697TIP3    H177582   4.718   4.969  14.800 -0.0111  0.6853  0.5552
18697TIP3    H277583   4.850   5.043  14.807  0.1698  0.4650 -0.4263
18698TIP3   OH277584   0.626   2.142   1.647  0.2590  0.0761  0.3788
18698TIP3    H177585   0.684   2.172   1.577 -0.2540  0.5929  0.1605
18698TIP3    H277586   0.649   2.197   1.722  1.2597 -0.9193  0.8276
18699TIP3   OH277587   6.338   3.451  12.381 -0.4480 -0.1167  0.4524
18699TIP3    H177588   6.321   3.545  12.375 -0.0900 -0.0925 -0.2759
18699TIP3    H277589   6.261   3.416  12.424 -2.4888 -0.0384 -2.8353
18700TIP3   OH277590   4.718   3.813  15.169  0.3937  0.5594 -0.3974
18700TIP3    H177591   4.647   3.799  15.231  0.6244  1.0192 -0.0203
18700TIP3    H277592   4.703   3.902  15.135 -0.1376  0.0557 -1.5469
18701TIP3   OH277593   4.865   2.972   6.963 -0.4830  0.0981 -0.2492
18701TIP3    H177594   4.916   2.895   6.986 -1.4109 -0.4243  0.1214
18701TIP3    H277595   4.774   2.945   6.975 -0.8101  1.8494  1.8566
18702TIP3   OH277596   1.094   1.117   1.134  0.4020 -0.6284 -0.7328
18702TIP3    H177597   1.054   1.078   1.056  1.1560  0.0704 -1.4965
18702TIP3    H277598   1.021   1.129   1.195 -0.0135 -2.2646 -0.8538
18703TIP3   OH277599   4.639   5.661   2.278 -0.1233 -0.1623 -0.0063
18703TIP3    H177600   4.576   5.683   2.209  0.0121  1.2951  0.2938
18703TIP3    H277601   4.719   5.707   2.252  0.5445 -1.2529  0.0913
18704TIP3   OH277602   4.183   2.239   6.517 -0.4554  0.1326 -0.9060
18704TIP3    H177603   4.243   2.167   6.540 -0.7718 -0.3601 -1.5937
18704TIP3    H277604   4.230   2.318   6.543 -0.2657 -0.3349  0.2403
18705TIP3   OH277605   2.330   3.866  11.974  0.5274  0.5271 -0.2419
18705TIP3    H177606   2.423   3.861  11.998  1.0817  1.3537 -1.9886
18705TIP3    H277607   2.321   3.806  11.900 -0.9459 -1.4329  1.4279
18706TIP3   OH277608   2.988   3.711  14.227 -0.8317  0.1402 -0.0539
18706TIP3    H177609   3.019   3.692  14.315  0.3118 -1.8499 -0.8411
18706TIP3    H277610   2.896   3.734  14.239 -1.2353 -2.0265  1.4778
18707TIP3   OH277611   3.086   0.176  12.861  0.3519  0.4557  0.0486
18707TIP3    H177612   3.046   0.262  12.872  0.8644  0.5013  1.9237
18707TIP3    H277613   3.156   0.189  12.797 -0.8902  0.9557 -1.2310
18708TIP3   OH277614   1.147   4.982  11.369 -0.3256 -0.2293  0.1450
18708TIP3    H177615   1.094   5.046  11.322  1.0839  1.7284  1.0831
18708TIP3    H277616   1.114   4.983  11.458 -1.2756 -1.9965 -0.1359
18709TIP3   OH277617   4.472   1.616  16.552 -0.4752  0.3884  0.2858
18709TIP3    H177618   4.484   1.666  16.471 -0.2116 -0.3916 -0.1590
18709TIP3    H277619   4.393   1.654  16.592 -0.4515  0.9583 -0.1974
18710TIP3   OH277620   3.685   1.535  16.974  0.5454  0.5497  0.2661
18710TIP3    H177621   3.623   1.545  17.047 -0.6479 -0.3507 -0.5971
18710TIP3    H277622   3.767   1.568  17.009  0.2094 -0.5905  2.3121
18711TIP3   OH277623   5.673   6.019   3.582 -0.6699 -0.2342 -0.1645
18711TIP3    H177624   5.588   6.051   3.552  0.0443  0.7555 -1.2308
18711TIP3    H277625   5.686   5.936   3.536 -0.8756 -0.1851 -0.3119
18712TIP3   OH277626   4.220   1.452  16.974  0.5225 -0.2061  0.5144
18712TIP3    H177627   4.205   1.379  17.034  0.0524 -0.9004 -0.4157
18712TIP3    H277628   4.134   1.472  16.939  0.7166  0.5202  0.4454
18713TIP3   OH277629   3.640   2.925  14.068 -0.0632 -0.1004  0.3397
18713TIP3    H177630   3.566   2.868  14.088 -1.3922  1.3338 -0.2314
18713TIP3    H277631   3.688   2.931  14.151  1.1020 -3.2645  0.0351
18714TIP3   OH277632   1.349   3.769   3.732 -0.0050  0.4656 -0.0342
18714TIP3    H177633   1.442   3.746   3.735  0.5075  2.3760  1.2702
18714TIP3    H277634   1.311   3.724   3.807 -0.1507 -0.3763 -0.6115
18715TIP3   OH277635   4.058   3.032   1.401  0.0085  0.1578 -0.6588
18715TIP3    H177636   4.143   3.033   1.444 -0.3831 -1.0040  0.1833
18715TIP3    H277637   4.027   2.942   1.409 -2.5308  1.0798  1.5842
18716TIP3   OH277638   0.673   4.668  15.643  0.3664 -0.9027 -0.4359
18716TIP3    H177639   0.597   4.614  15.624 -0.7850  0.6926 -0.5847
18716TIP3    H277640   0.636   4.750  15.677  2.0043  0.0272 -0.7945
18717TIP3   OH277641   0.636   3.753   5.544 -0.6174  0.0746 -0.6599
18717TIP3    H177642   0.588   3.743   5.626 -0.1332  1.4534 -0.1884
18717TIP3    H277643   0.585   3.704   5.480  0.2140 -3.1167  0.8855
18718TIP3   OH277644   3.166   1.603   4.788  0.2861  0.0452  0.6559
18718TIP3    H177645   3.114   1.573   4.863 -0.9900  0.1538 -0.1607
18718TIP3    H277646   3.228   1.532   4.771  0.1127 -0.2838  1.3610
18719TIP3   OH277647   3.605   3.250  15.070  0.4954 -0.0490 -0.1884
18719TIP3    H177648   3.586   3.248  14.976 -0.7295 -0.5998  0.0490
18719TIP3    H277649   3.556   3.324  15.103 -0.5223 -0.9124  0.2871
18720TIP3   OH277650   2.328   4.296   0.742  1.0530  0.2831 -0.3187
18720TIP3    H177651   2.321   4.298   0.837  0.7902  0.3069 -0.3374
18720TIP3    H277652   2.342   4.388   0.717 -2.1891  0.8431 -0.5342
18721TIP3   OH277653   5.997   2.329  16.630 -0.1680 -0.0958 -0.1694
18721TIP3    H177654   5.971   2.321  16.722 -0.1615  1.3806 -0.0083
18721TIP3    H277655   6.084   2.369  16.634 -0.0257 -0.3445 -0.8078
18722TIP3   OH277656   4.435   2.308   1.195 -0.6910  0.8693  0.1410
18722TIP3    H177657   4.355   2.267   1.228 -0.6582  0.5362 -0.1841
18722TIP3    H277658   4.457   2.258   1.116  1.4587 -0.9177  1.7601
18723TIP3   OH277659   0.670   3.230  11.816 -0.1465  0.7109  0.0541
18723TIP3    H177660   0.666   3.324  11.832 -0.4113  0.6513  0.3423
18723TIP3    H277661   0.737   3.220  11.748  0.1597  1.0684  0.2998
18724TIP3   OH277662   6.308   4.064   0.402 -0.4764 -0.3716  0.9451
18724TIP3    H177663   6.385   4.040   0.350 -2.2873 -2.9573 -0.7546
18724TIP3    H277664   6.243   3.997   0.382 -3.1278  1.5213  2.5179
18725TIP3   OH277665   4.318   0.050   0.237 -0.6963 -0.2948 -0.6585
18725TIP3    H177666   4.280  -0.038   0.233  0.5922 -0.8471 -2.1906
18725TIP3    H277667   4.266   0.102   0.176 -0.3112 -0.5037 -1.1738
18726TIP3   OH277668   4.196   5.011  16.286 -0.0784  0.2671 -0.1005
18726TIP3    H177669   4.284   5.049  16.278 -0.0637  0.0140 -1.3927
18726TIP3    H277670   4.156   5.025  16.199 -0.9287 -0.5613  0.1451
18727TIP3   OH277671   5.865   0.399  10.849 -0.4216 -0.2497  0.3802
18727TIP3    H177672   5.846   0.458  10.775  1.8091  0.9812  0.6816
18727TIP3    H277673   5.959   0.410  10.864 -0.1366 -3.0569  1.2427
18728TIP3   OH277674   3.024   2.699  16.587  0.2432 -0.1629  0.0062
18728TIP3    H177675   2.938   2.663  16.564  0.5099 -0.7039 -0.1505
18728TIP3    H277676   3.010   2.743  16.671  0.2409 -1.9244  0.9617
18729TIP3   OH277677   2.280   1.515   1.464  0.3724  0.0495  0.5129
18729TIP3    H177678   2.349   1.571   1.429  1.9185 -1.1461  1.5012
18729TIP3    H277679   2.198   1.556   1.435  1.4939  0.8454 -1.7308
18730TIP3   OH277680   3.056   6.220   2.135 -0.5135  0.4206  0.4941
18730TIP3    H177681   3.127   6.160   2.159 -0.6809  0.5546  1.3643
18730TIP3    H277682   3.068   6.295   2.193 -1.4170  0.4027  0.7141
18731TIP3   OH277683   4.831   2.054   2.135  0.1176 -0.7214  0.2414
18731TIP3    H177684   4.828   2.037   2.040 -1.4088 -2.7722  0.5847
18731TIP3    H277685   4.899   2.120   2.145  2.7483 -2.8698 -1.9326
18732TIP3   OH277686   1.636   5.245  10.229  0.0385  0.4020  0.2639
18732TIP3    H177687   1.706   5.199  10.184  1.0664 -1.0748  3.1372
18732TIP3    H277688   1.666   5.336  10.233  0.5880  0.2779 -0.7126
18733TIP3   OH277689   6.069   5.415   0.450 -0.3334  0.7013 -0.3071
18733TIP3    H177690   6.117   5.498   0.447  0.5506  0.1683 -2.7989
18733TIP3    H277691   6.058   5.397   0.544  0.5062  3.0128  0.2888
18734TIP3   OH277692   6.078   4.563  11.746  0.1543  0.6066  0.3637
18734TIP3    H177693   6.012   4.508  11.787  0.6456  0.0381  0.4159
18734TIP3    H277694   6.064   4.650  11.783 -0.0986  0.3348  0.9189
18735TIP3   OH277695   1.286   1.883  14.238 -0.3730 -0.2615  0.3252
18735TIP3    H177696   1.234   1.896  14.317  1.5244 -1.7499  1.9337
18735TIP3    H277697   1.358   1.827  14.266  2.2038  1.7636 -1.6972
18736TIP3   OH277698   1.388   4.257   3.846  0.1274  0.3231 -0.2724
18736TIP3    H177699   1.402   4.346   3.879  0.8230 -0.2393  1.0331
18736TIP3    H277700   1.322   4.267   3.777 -2.1278  1.4593  1.8859
18737TIP3   OH277701   5.907   3.182   1.637  0.2708 -0.0672  0.0755
18737TIP3    H177702   5.981   3.201   1.695  0.6729  0.8478 -0.7030
18737TIP3    H277703   5.947   3.139   1.562 -0.2639 -1.3605  0.5037
18738TIP3   OH277704   1.350   4.435  16.976 -0.3678 -0.1504 -0.0928
18738TIP3    H177705   1.328   4.412  16.885  1.4873 -2.4041 -0.0709
18738TIP3    H277706   1.350   4.352  17.022  0.9894  0.6490  1.4482
18739TIP3   OH277707   5.078   0.895  15.942 -0.2504  0.3935  0.1375
18739TIP3    H177708   5.100   0.830  15.874 -0.0234  0.6525 -0.0402
18739TIP3    H277709   5.101   0.852  16.024  0.6702  0.5482 -0.0285
18740TIP3   OH277710   4.632   3.524  15.989  0.6210  0.1573  0.2379
18740TIP3    H177711   4.700   3.496  16.050  0.5124 -0.6329  0.0057
18740TIP3    H277712   4.647   3.618  15.978  0.6414  0.3144  1.4795
18741TIP3   OH277713   5.979   1.325  13.011  0.3083  0.2240  0.1081
18741TIP3    H177714   5.982   1.273  12.931 -0.8702 -0.9769  0.8133
18741TIP3    H277715   5.913   1.392  12.994  1.4766  1.2294 -0.6197
18742TIP3   OH277716   4.195   4.148   5.856  0.2705  0.8336 -0.3562
18742TIP3    H177717   4.134   4.116   5.923  0.1672  2.1517  0.2108
18742TIP3    H277718   4.164   4.108   5.775 -0.3044  0.1200  0.2002
18743TIP3   OH277719   6.608   4.173  13.177  0.1587 -0.3838 -0.5643
18743TIP3    H177720   6.673   4.219  13.124 -1.6299  0.7902 -1.8725
18743TIP3    H277721   6.548   4.242  13.207  0.4580 -1.1786  2.1170
18744TIP3   OH277722   2.953   0.036  11.485 -0.2500 -0.7813  1.0870
18744TIP3    H177723   2.946  -0.028  11.556 -0.1356 -1.0473  0.8624
18744TIP3    H277724   2.993  -0.013  11.412 -0.7319 -0.6163  0.7074
18745TIP3   OH277725   0.379   0.369  15.205 -0.0818 -0.4735 -0.3191
18745TIP3    H177726   0.335   0.398  15.284  1.0228 -1.3579  0.6592
18745TIP3    H277727   0.419   0.448  15.169 -0.0611 -0.1721  0.3560
18746TIP3   OH277728   4.213   6.162  15.921  0.3864  0.3464  0.7837
18746TIP3    H177729   4.182   6.096  15.983  1.6033  0.2756  1.3476
18746TIP3    H277730   4.135   6.213  15.899 -1.0454 -2.5396 -1.3157
18747TIP3   OH277731   5.467   1.885  16.081 -0.2895  0.2590  0.3869
18747TIP3    H177732   5.446   1.919  15.994 -2.5143 -0.0549  0.7303
18747TIP3    H277733   5.525   1.811  16.064  0.9914  1.4234 -0.6488
18748TIP3   OH277734   4.946   2.574   0.264  0.0510  0.0478 -0.0564
18748TIP3    H177735   4.879   2.635   0.233 -0.6633 -0.2800  0.7995
18748TIP3    H277736   4.984   2.617   0.340 -0.1842 -0.3879  0.3142
18749TIP3   OH277737   3.630   1.530   0.382 -0.3260  0.0193  0.2691
18749TIP3    H177738   3.555   1.585   0.360  0.4325  0.6203 -0.9599
18749TIP3    H277739   3.607   1.490   0.466 -1.2773  1.5298  0.7719
18750TIP3   OH277740   0.558   5.904  10.868 -0.1918  0.0125  0.1197
18750TIP3    H177741   0.476   5.940  10.900  0.9255  2.6295  0.2724
18750TIP3    H277742   0.562   5.930  10.776  0.3242 -0.3626  0.0288
18751TIP3   OH277743   1.695   1.113   2.511  0.2948  0.3141 -0.7129
18751TIP3    H177744   1.696   1.035   2.566  0.7981 -0.1421 -1.3611
18751TIP3    H277745   1.784   1.147   2.517 -0.0850  1.2260  0.0917
18752TIP3   OH277746   1.654   3.775   1.608 -0.0598  0.6371 -0.0647
18752TIP3    H177747   1.666   3.757   1.515 -0.2413  2.7724 -0.5479
18752TIP3    H277748   1.743   3.774   1.645  0.0549  0.2404 -0.3494
18753TIP3   OH277749   4.054   6.672   3.976  0.2982  0.2684 -0.0912
18753TIP3    H177750   4.122   6.739   3.989 -1.4117  2.1339 -0.3457
18753TIP3    H277751   4.034   6.641   4.064  1.0074  0.1643  0.0447
18754TIP3   OH277752   1.149   1.104  16.323 -0.2258 -0.3235 -0.3544
18754TIP3    H177753   1.113   1.189  16.348 -1.0701 -0.7263 -0.1540
18754TIP3    H277754   1.106   1.082  16.241  1.5434  0.3755 -1.5217
18755TIP3   OH277755   0.174   3.670  12.673  0.6193  0.1222  0.0584
18755TIP3    H177756   0.213   3.596  12.625  1.1270  0.0120  0.6164
18755TIP3    H277757   0.234   3.742  12.658  0.4353  0.2623 -0.0020
18756TIP3   OH277758   5.443   0.064   3.055  1.4413  0.3745  0.4252
18756TIP3    H177759   5.392  -0.015   3.071 -1.2971  2.1705  1.1642
18756TIP3    H277760   5.489   0.080   3.138 -0.8717  1.4686  1.5688
18757TIP3   OH277761   6.299   5.442  10.728 -0.0669 -0.7846  0.3494
18757TIP3    H177762   6.341   5.360  10.702  0.9943 -0.4601  0.9345
18757TIP3    H277763   6.252   5.471  10.651 -0.3708 -1.8876  0.1020
18758TIP3   OH277764   0.830   3.363  11.629  0.3244  0.4935  0.2760
18758TIP3    H177765   0.854   3.434  11.688  0.8158  0.0540  0.6259
18758TIP3    H277766   0.746   3.389  11.591  0.6207  1.3626  0.2103
18759TIP3   OH277767   2.651   3.407  14.567 -0.0825  0.0345 -0.0575
18759TIP3    H177768   2.623   3.319  14.541 -0.9539  0.9763 -2.6071
18759TIP3    H277769   2.570   3.458  14.572  0.4667  0.8642  0.7608
18760TIP3   OH277770   5.761   1.783  15.001  0.3007 -0.3473 -0.6156
18760TIP3    H177771   5.746   1.825  14.916 -0.1451  0.7795 -0.0033
18760TIP3    H277772   5.677   1.742  15.022  0.3367 -0.4140 -0.6015
18761TIP3   OH277773   1.580   2.090  14.984 -0.1923  0.2717  0.2543
18761TIP3    H177774   1.624   2.034  14.921 -1.4550  0.2682 -0.6583
18761TIP3    H277775   1.650   2.142  15.024  0.7042 -0.2262 -0.6408
18762TIP3   OH277776   2.091   1.893   1.370  0.1792  0.0109  0.8637
18762TIP3    H177777   1.996   1.900   1.376  0.2666  0.9830  1.2133
18762TIP3    H277778   2.116   1.961   1.308  0.8438  1.2793  2.4585
18763TIP3   OH277779   0.430   1.184   0.943  0.8061 -0.1350 -0.4425
18763TIP3    H177780   0.377   1.106   0.925  0.5715 -0.1284  0.2169
18763TIP3    H277781   0.392   1.222   1.022  0.6827  0.8660 -0.9606
18764TIP3   OH277782   0.594   3.835   4.549 -0.4662 -0.2369  0.2852
18764TIP3    H177783   0.543   3.884   4.614 -1.2107 -1.2117  0.4684
18764TIP3    H277784   0.574   3.743   4.567 -1.1108 -0.5340 -1.6407
18765TIP3   OH277785   3.452   3.413   3.360  0.0458  0.5373 -0.2726
18765TIP3    H177786   3.442   3.318   3.356  1.5422  0.2146  2.0179
18765TIP3    H277787   3.459   3.441   3.268 -2.0104 -1.3142 -1.0778
18766TIP3   OH277788   1.158   2.208  15.853 -0.3755 -0.2086  0.0569
18766TIP3    H177789   1.222   2.279  15.859 -2.1621  1.5545 -0.6395
18766TIP3    H277790   1.207   2.135  15.816  1.8622  0.1842  2.0308
18767TIP3   OH277791   3.411   5.940  13.049  0.1048  0.3923  0.1209
18767TIP3    H177792   3.468   5.958  12.974  0.6529 -2.4029 -0.2835
18767TIP3    H277793   3.355   5.868  13.019 -0.2514 -0.2036  2.0821
18768TIP3   OH277794   1.544   3.742  11.126  0.3243 -0.1092  0.1865
18768TIP3    H177795   1.600   3.678  11.082  1.9085  1.7446 -0.6654
18768TIP3    H277796   1.522   3.805  11.057  1.2807  1.8467  1.5845
18769TIP3   OH277797   4.172   1.646  15.380 -0.0579 -0.4631 -0.2171
18769TIP3    H177798   4.191   1.602  15.463 -0.7285  0.2932  0.3499
18769TIP3    H277799   4.101   1.594  15.341 -0.0750 -0.5403 -0.0846
18770TIP3   OH277800   1.556   6.474   0.155 -0.1168  0.0973  0.2840
18770TIP3    H177801   1.545   6.417   0.231  0.1492 -0.5845 -0.1850
18770TIP3    H277802   1.608   6.548   0.188 -0.8294  0.2862  0.9953
18771TIP3   OH277803   6.779   2.390  11.268  0.2887  0.3360  0.7318
18771TIP3    H177804   6.849   2.443  11.231  0.5483 -1.1462 -1.0181
18771TIP3    H277805   6.755   2.435  11.349  1.5709  2.2095  0.1272
18772TIP3   OH277806   1.775   0.878   1.616  0.0508 -0.1409  0.2035
18772TIP3    H177807   1.810   0.845   1.534  2.0928 -0.4306  1.1214
18772TIP3    H277808   1.726   0.804   1.654  2.6273 -1.4846  1.1495
18773TIP3   OH277809   4.474   0.301  16.833 -0.5781  0.5096  0.0215
18773TIP3    H177810   4.405   0.285  16.768  1.2284  0.8992 -2.1302
18773TIP3    H277811   4.551   0.323  16.780  1.0126  0.8214  2.3454
18774TIP3   OH277812   1.608   1.842  13.364  0.0514  0.0678 -0.0703
18774TIP3    H177813   1.622   1.747  13.364 -1.5469 -0.1909  0.0177
18774TIP3    H277814   1.533   1.855  13.422  1.6190  1.6411  1.7453
18775TIP3   OH277815   2.042   6.489   5.236 -0.0516  0.2441  0.1008
18775TIP3    H177816   2.066   6.452   5.151 -0.2330 -2.0339  0.9516
18775TIP3    H277817   2.125   6.495   5.283 -0.0869  0.4785  0.1335
18776TIP3   OH277818   6.518   4.438   4.673  0.2040  0.0151  0.0260
18776TIP3    H177819   6.569   4.368   4.715  0.3985  1.0043  1.4784
18776TIP3    H277820   6.428   4.404   4.672  0.4838 -0.7451 -0.3854
18777TIP3   OH277821   3.418   0.598  17.011 -0.0141  0.0159  0.1266
18777TIP3    H177822   3.400   0.674  17.066 -1.9398 -0.8256  0.7451
18777TIP3    H277823   3.337   0.546  17.013 -0.0794 -0.2693 -3.1954
18778TIP3   OH277824   2.124   0.669   4.679 -0.0058  0.3921  0.8270
18778TIP3    H177825   2.172   0.736   4.630  2.7697 -1.8018  0.2414
18778TIP3    H277826   2.145   0.687   4.770  3.2000 -1.1221  0.5643
18779TIP3   OH277827   3.436   4.780   5.193  0.0603 -0.9264 -0.3389
18779TIP3    H177828   3.350   4.795   5.153  0.5013 -0.7633 -1.2720
18779TIP3    H277829   3.452   4.857   5.247 -0.8161 -1.4304  0.6641
18780TIP3   OH277830   3.916   4.566  12.871 -0.5728 -0.2171 -0.2547
18780TIP3    H177831   3.934   4.482  12.828 -0.7003 -0.7727  0.7560
18780TIP3    H277832   3.830   4.592  12.837 -1.3108 -1.3401  0.6913
18781TIP3   OH277833   6.262   6.068  16.664  0.0332  0.1408 -0.6153
18781TIP3    H177834   6.246   6.049  16.756  2.4411  0.8341  0.0307
18781TIP3    H277835   6.278   6.162  16.661  1.0536 -0.0360 -1.5300
18782TIP3   OH277836   4.476   6.456  13.122 -0.2420 -0.0892  0.0766
18782TIP3    H177837   4.537   6.526  13.148 -0.1325  1.0046 -2.8064
18782TIP3    H277838   4.389   6.492  13.142 -0.1880  0.9647 -1.4131
18783TIP3   OH277839   3.944   1.072  13.067  0.2227 -0.2668  0.7451
18783TIP3    H177840   3.983   1.087  13.154 -0.4576 -0.4938  1.0927
18783TIP3    H277841   3.917   0.980  13.068  0.8547 -0.4752  0.0252
18784TIP3   OH277842   0.673   4.348   1.839  0.0928 -0.3287  0.3940
18784TIP3    H177843   0.680   4.343   1.934  1.0759 -0.8057  0.3048
18784TIP3    H277844   0.586   4.386   1.823 -0.1735 -0.4696  1.4673
18785TIP3   OH277845   6.769   6.111  16.529 -0.6220 -0.0213 -0.2243
18785TIP3    H177846   6.804   6.199  16.543 -3.6970  1.2060  0.6425
18785TIP3    H277847   6.828   6.071  16.465  1.5999  2.1663  0.3205
18786TIP3   OH277848   3.158   6.006   0.667 -0.0047  0.8013  0.5615
18786TIP3    H177849   3.240   6.055   0.664  2.0262 -2.2412  1.3357
18786TIP3    H277850   3.172   5.932   0.608 -1.5535 -0.6582  1.9099
18787TIP3   OH277851   2.244   4.811  15.928  0.9363  0.9661  0.2177
18787TIP3    H177852   2.297   4.837  16.004  1.2883 -0.4331  0.4684
18787TIP3    H277853   2.154   4.810  15.961  1.0769  0.4540  0.5892
18788TIP3   OH277854   0.656   4.388  15.824  0.2599  0.4723  0.5271
18788TIP3    H177855   0.580   4.370  15.768  0.6437 -0.3420  0.2595
18788TIP3    H277856   0.650   4.323  15.894  0.6263  0.5030  0.5890
18789TIP3   OH277857   6.490   3.110   3.583 -0.4070  0.3226  0.2680
18789TIP3    H177858   6.445   3.194   3.587  1.4124  1.2840  1.8787
18789TIP3    H277859   6.578   3.128   3.614  0.6440 -1.8191 -1.2064
18790TIP3   OH277860   5.225   6.455   5.095 -0.6104  0.2641 -0.5219
18790TIP3    H177861   5.155   6.492   5.042 -0.3103  0.6299 -0.6734
18790TIP3    H277862   5.290   6.425   5.032 -1.4392 -1.7777 -0.4491
18791TIP3   OH277863   3.309   6.376   0.200 -0.2292  0.0995 -0.2128
18791TIP3    H177864   3.361   6.450   0.230  1.7069 -0.9046 -0.8983
18791TIP3    H277865   3.353   6.346   0.120 -2.7038  0.0312 -1.6647
18792TIP3   OH277866   1.289   4.559   3.486 -0.2922  0.5532 -0.3410
18792TIP3    H177867   1.275   4.628   3.421  1.5244 -0.0018 -1.3881
18792TIP3    H277868   1.302   4.607   3.568 -1.5366  1.3119 -0.5469
18793TIP3   OH277869   2.221   2.715   4.798  0.2231  0.0315  0.2786
18793TIP3    H177870   2.141   2.708   4.746 -0.5021 -3.3071  1.5820
18793TIP3    H277871   2.292   2.715   4.733 -0.7322  0.0278 -0.7905
18794TIP3   OH277872   6.139   1.301   3.138  0.0399  0.1367  0.3118
18794TIP3    H177873   6.156   1.394   3.127  2.2498 -0.2542 -0.2347
18794TIP3    H277874   6.144   1.265   3.050 -1.6529 -0.4016  0.4110
18795TIP3   OH277875   1.587   2.233  14.326 -0.7024 -0.0989 -0.3026
18795TIP3    H177876   1.612   2.300  14.263  2.0704  1.0466  1.8105
18795TIP3    H277877   1.652   2.163  14.314 -1.1815 -0.6306  0.1452
18796TIP3   OH277878   1.047   4.607   5.008  0.4528  0.3536  0.0724
18796TIP3    H177879   1.061   4.532   4.951  0.0197 -0.9897  1.6646
18796TIP3    H277880   1.116   4.669   4.983  1.1678 -0.7768 -0.8968
18797TIP3   OH277881   2.969   6.256   4.092  0.1342 -0.4660 -0.1482
18797TIP3    H177882   2.999   6.233   4.004 -0.3148 -0.1282 -0.3933
18797TIP3    H277883   2.892   6.201   4.107  0.5727 -0.9770  0.2860
18798TIP3   OH277884   6.254   0.497  12.837 -0.0139  0.4891  0.2313
18798TIP3    H177885   6.199   0.563  12.877 -2.0690 -1.4738  0.8645
18798TIP3    H277886   6.289   0.538  12.758 -2.2856  1.8986 -0.1036
18799TIP3   OH277887   0.273   3.613  15.638 -0.2806 -0.4157  0.0386
18799TIP3    H177888   0.275   3.700  15.599 -0.1757 -1.5627 -2.7693
18799TIP3    H277889   0.364   3.582  15.632 -0.5293 -1.1492 -0.1443
18800TIP3   OH277890   4.500   4.919  12.099 -0.4125  0.3455 -0.6508
18800TIP3    H177891   4.542   4.960  12.174  0.7502  0.5527 -1.3823
18800TIP3    H277892   4.506   4.984  12.029 -0.7854 -0.1250 -1.1339
18801TIP3   OH277893   2.227   5.412  13.201 -0.1985 -0.1156 -0.0067
18801TIP3    H177894   2.313   5.451  13.184  0.9754 -2.9138 -1.1481
18801TIP3    H277895   2.214   5.424  13.296  1.3610  0.5032  0.1634
18802TIP3   OH277896   4.965   0.452  16.006  0.2689  0.1602  0.3238
18802TIP3    H177897   5.005   0.394  16.070  1.6176 -0.0719 -0.6911
18802TIP3    H277898   4.872   0.427  16.007  0.6786 -1.5054  0.4581
18803TIP3   OH277899   6.364   1.591   4.560 -0.5012  0.5870 -0.6504
18803TIP3    H177900   6.416   1.594   4.480  0.1071  0.3033 -0.2658
18803TIP3    H277901   6.273   1.601   4.529 -0.2171  1.2813 -1.3042
18804TIP3   OH277902   2.465   4.727  11.509 -0.0484 -0.9265 -0.1276
18804TIP3    H177903   2.409   4.771  11.574  2.0579  0.1441  1.0646
18804TIP3    H277904   2.526   4.676  11.562  1.1818 -0.7202 -1.3200
18805TIP3   OH277905   2.415   6.002  13.731 -0.1333 -0.0253 -0.3987
18805TIP3    H177906   2.440   5.964  13.816  0.3203  0.2671 -0.4015
18805TIP3    H277907   2.341   6.059  13.752  0.6606  0.8908 -0.0153
18806TIP3   OH277908   0.700   5.325  15.613 -0.2292 -0.2803  0.1073
18806TIP3    H177909   0.714   5.397  15.551  1.0019  1.3840  2.1716
18806TIP3    H277910   0.767   5.260  15.589 -1.7867 -1.1747 -2.2164
18807TIP3   OH277911   6.754   0.864   2.584 -0.1075 -0.3188 -0.4323
18807TIP3    H177912   6.841   0.824   2.581 -0.4902 -1.1113 -1.7484
18807TIP3    H277913   6.693   0.790   2.581 -0.8578  0.1641  1.5238
18808TIP3   OH277914   6.770   3.512  11.423 -0.1920 -0.7506  0.1505
18808TIP3    H177915   6.844   3.494  11.365  0.8447  1.1591  0.7769
18808TIP3    H277916   6.715   3.434  11.417  0.2341 -0.9449 -2.7868
18809TIP3   OH277917   5.966   4.436   0.120  0.7115 -0.3919  0.4592
18809TIP3    H177918   5.940   4.346   0.136 -2.6185  0.1117 -1.1420
18809TIP3    H277919   6.023   4.432   0.043 -0.0493 -1.0735 -0.0765
18810TIP3   OH277920   3.928   3.085  12.747 -1.0757  0.3690 -0.1757
18810TIP3    H177921   3.902   3.115  12.834  2.3923  1.0785  0.7713
18810TIP3    H277922   3.876   3.138  12.687 -0.0126  3.5879  1.4982
18811TIP3   OH277923   0.516   4.912  13.323  0.1506 -0.1345 -0.2018
18811TIP3    H177924   0.446   4.916  13.258  0.3637  0.9635 -0.3773
18811TIP3    H277925   0.556   4.826  13.310 -0.3666 -0.2699 -0.9316
18812TIP3   OH277926   0.295   2.915   0.530  0.1761 -0.0778  0.0318
18812TIP3    H177927   0.279   2.947   0.618 -0.5867 -0.3511 -0.0029
18812TIP3    H277928   0.374   2.861   0.537  0.0316 -0.2163  0.5723
18813TIP3   OH277929   0.603   5.518  14.514  0.5530  0.1887 -0.1474
18813TIP3    H177930   0.629   5.583  14.449  1.3499 -0.2003 -0.2342
18813TIP3    H277931   0.681   5.507  14.569 -0.2970  0.9584  1.2707
18814TIP3   OH277932   1.797   1.523  16.030  0.6120  0.1696 -0.2586
18814TIP3    H177933   1.831   1.602  16.073 -3.0231  0.9495  1.6423
18814TIP3    H277934   1.787   1.460  16.102 -1.1262 -0.2120 -0.7858
18815TIP3   OH277935   0.534   0.158  11.407  0.0634  0.0532 -0.2444
18815TIP3    H177936   0.491   0.176  11.491 -0.0924  0.3609 -0.3874
18815TIP3    H277937   0.606   0.222  11.403 -0.3037  0.4441 -0.6197
18816TIP3   OH277938   3.013   6.748  11.743 -0.3252 -0.3589 -0.4314
18816TIP3    H177939   2.947   6.698  11.791 -1.6145  0.3497 -1.3898
18816TIP3    H277940   3.070   6.682  11.705 -0.5590 -1.0016  0.3125
18817TIP3   OH277941   6.222   4.263  15.540  0.4136 -0.3204 -0.5015
18817TIP3    H177942   6.241   4.189  15.599  1.1170  1.4474  1.6180
18817TIP3    H277943   6.309   4.298  15.517  0.0615  0.5992 -0.4680
18818TIP3   OH277944   3.430   1.814  11.330 -0.1313 -0.1306  0.2934
18818TIP3    H177945   3.437   1.721  11.350 -0.5566  0.0569  1.4049
18818TIP3    H277946   3.515   1.838  11.295  0.0159 -0.9118  0.1026
18819TIP3   OH277947   1.856   6.764  15.615 -0.0397 -0.1384 -0.2744
18819TIP3    H177948   1.848   6.695  15.548 -1.6904  0.2023 -0.4515
18819TIP3    H277949   1.817   6.726  15.693 -0.5061  0.4127 -0.2359
18820TIP3   OH277950   3.576   2.550   5.952  0.2812  0.0639 -0.5741
18820TIP3    H177951   3.664   2.513   5.955  1.0171  1.7717  1.5665
18820TIP3    H277952   3.519   2.478   5.980  1.2070 -0.5191 -0.1407
18821TIP3   OH277953   5.143   2.999  15.306  0.2209  0.4799  0.6732
18821TIP3    H177954   5.166   3.091  15.316  0.7548  0.3434  0.7602
18821TIP3    H277955   5.195   2.954  15.373  2.5322 -0.2498 -1.4191
18822TIP3   OH277956   1.100   0.271  13.030 -0.5593 -0.2478 -0.4452
18822TIP3    H177957   1.190   0.301  13.029 -0.0721 -1.6420 -1.7603
18822TIP3    H277958   1.105   0.177  13.009 -2.2330 -0.5981  0.4700
18823TIP3   OH277959   0.443   5.116  16.413 -0.5724 -0.8424  0.0023
18823TIP3    H177960   0.466   5.024  16.399  1.3749 -0.7585  2.0633
18823TIP3    H277961   0.506   5.165  16.361  2.2319 -0.6782  3.2139
18824TIP3   OH277962   2.025   4.526  15.947  0.3518  0.1465  0.1481
18824TIP3    H177963   2.027   4.495  15.857  0.3769 -0.6928  0.4355
18824TIP3    H277964   2.106   4.492  15.986  1.0605  1.6958  0.1107
18825TIP3   OH277965   1.821   1.867   1.386  0.1125  0.5492 -0.0177
18825TIP3    H177966   1.782   1.870   1.473  0.4225 -2.3742  0.3427
18825TIP3    H277967   1.761   1.813   1.334  1.5121 -0.5305 -0.6229
18826TIP3   OH277968   5.471   0.150  15.286 -0.5119  0.5204 -0.3204
18826TIP3    H177969   5.554   0.192  15.265  0.4212 -1.0694  0.0076
18826TIP3    H277970   5.468   0.072  15.231 -1.2427 -0.0588  0.4921
18827TIP3   OH277971   1.693   5.964  15.134  0.4028  0.0557 -0.4438
18827TIP3    H177972   1.688   6.029  15.064  0.1061  0.7604  0.2167
18827TIP3    H277973   1.760   5.997  15.194  1.5754 -1.1843 -1.0180
18828TIP3   OH277974   4.974   2.854   1.013  0.1250  0.8858  0.0808
18828TIP3    H177975   5.007   2.815   1.094 -0.6419  0.8062  0.3583
18828TIP3    H277976   4.921   2.786   0.973  2.8982 -0.2131 -2.0736
18829TIP3   OH277977   3.844   6.164  13.796 -0.0152  0.3164  0.5090
18829TIP3    H177978   3.855   6.101  13.725 -0.6729 -0.2580  0.9082
18829TIP3    H277979   3.921   6.151  13.852  1.1975  1.6815 -0.7579
18830TIP3   OH277980   5.783   1.995   4.787 -0.1990  0.5831  0.0241
18830TIP3    H177981   5.736   2.021   4.708  0.0570 -0.2786 -0.4291
18830TIP3    H277982   5.854   1.939   4.756 -0.2427  0.0297  0.8756
18831TIP3   OH277983   2.169   0.733  16.117 -0.8797  0.0869 -0.3274
18831TIP3    H177984   2.190   0.804  16.178 -0.6969 -0.6493  0.4864
18831TIP3    H277985   2.254   0.709  16.079 -0.9091  0.1705 -0.4441
18832TIP3   OH277986   2.477   2.136   3.708 -0.6987 -0.1984 -0.2124
18832TIP3    H177987   2.404   2.179   3.751 -1.8855  0.3315 -2.5806
18832TIP3    H277988   2.503   2.197   3.638 -0.5497 -2.0439 -1.8555
18833TIP3   OH277989   2.163   1.053  11.024 -0.1451 -0.2489 -0.4471
18833TIP3    H177990   2.171   1.012  11.110  0.4684 -1.6070 -1.1058
18833TIP3    H277991   2.137   0.981  10.966  1.7106  0.0751 -1.7949
18834TIP3   OH277992   1.930   0.289   4.501 -0.1750  0.2620 -0.1016
18834TIP3    H177993   1.881   0.268   4.422  1.8728  0.5934 -1.5514
18834TIP3    H277994   1.912   0.381   4.516 -0.7548  0.1422 -0.0287
18835TIP3   OH277995   1.347   3.457   0.256  0.5385 -0.2005 -0.1066
18835TIP3    H177996   1.440   3.477   0.270  0.5553 -1.2724  1.5489
18835TIP3    H277997   1.308   3.462   0.343 -0.8642 -0.3184 -0.7020
18836TIP3   OH277998   5.761   4.218  14.298 -0.2118  0.2181 -0.2977
18836TIP3    H177999   5.770   4.298  14.246 -0.7568  0.6825  0.3100
18836TIP3    H278000   5.698   4.240  14.366  0.4051 -0.4155  0.5036
18837TIP3   OH278001   3.775   0.994  13.944 -0.0975  0.2684 -0.0800
18837TIP3    H178002   3.733   1.058  13.887 -0.4475 -0.7075 -0.9361
18837TIP3    H278003   3.762   0.910  13.901  0.4898 -0.3772  0.9458
18838TIP3   OH278004   0.570   1.554  14.559  0.1201 -0.3284 -0.8349
18838TIP3    H178005   0.497   1.501  14.591  0.6556 -0.5055  0.1165
18838TIP3    H278006   0.628   1.564  14.634 -0.1285  1.9268 -0.8531
18839TIP3   OH278007   5.735   2.595   5.271  0.0643 -0.4896 -0.6615
18839TIP3    H178008   5.717   2.529   5.337  1.5753  0.5062  0.8323
18839TIP3    H278009   5.766   2.671   5.320  0.2659  0.6575 -2.4506
18840TIP3   OH278010   6.259   6.327   1.609 -0.1382 -0.4974  0.2359
18840TIP3    H178011   6.200   6.391   1.649  0.3636  0.7244 -0.8791
18840TIP3    H278012   6.344   6.345   1.648  0.2521  0.3723 -0.9597
18841TIP3   OH278013   5.959   3.800   4.528 -0.2657  0.3819  0.2753
18841TIP3    H178014   6.051   3.786   4.506 -0.2720  0.0879  0.4296
18841TIP3    H278015   5.948   3.757   4.612 -0.9873 -1.2278 -0.5931
18842TIP3   OH278016   4.682   5.958  16.048 -0.2022  0.8490 -0.6119
18842TIP3    H178017   4.677   5.971  15.954  0.5535  1.7454 -0.5434
18842TIP3    H278018   4.751   6.017  16.077 -1.1855  1.4369  0.6584
18843TIP3   OH278019   2.206   6.585   4.419  0.1853 -0.3632  0.3776
18843TIP3    H178020   2.211   6.505   4.366 -0.1314 -0.0856 -0.0818
18843TIP3    H278021   2.211   6.656   4.355 -1.5235 -0.0251  0.5519
18844TIP3   OH278022   4.279   1.881   2.378  0.3942  0.2489  0.6930
18844TIP3    H178023   4.284   1.930   2.460  0.9394  0.7845  0.3455
18844TIP3    H278024   4.358   1.906   2.331 -0.3135  0.5604 -0.3467
18845TIP3   OH278025   3.653   0.034   6.193 -0.1538 -0.5565 -0.1811
18845TIP3    H178026   3.647   0.104   6.259  1.6067 -1.8805  1.4946
18845TIP3    H278027   3.685   0.079   6.115  0.1994  0.6401  0.6107
18846TIP3   OH278028   4.532   2.788   6.154 -0.2955 -0.1898 -0.1429
18846TIP3    H178029   4.543   2.811   6.246  2.4605  2.7802 -1.0356
18846TIP3    H278030   4.518   2.871   6.109  0.0202 -1.3594 -2.5789
18847TIP3   OH278031   6.304   1.593  12.831  0.2892 -0.2505 -0.8887
18847TIP3    H178032   6.296   1.498  12.836  0.8974 -0.2586  0.3130
18847TIP3    H278033   6.250   1.625  12.902  0.0623  0.3151 -1.3100
18848TIP3   OH278034   2.550   0.532   3.860 -0.1739  0.2762 -0.0697
18848TIP3    H178035   2.497   0.604   3.893 -1.7726 -0.3146 -1.2227
18848TIP3    H278036   2.568   0.478   3.937 -1.4074  0.4087  0.3243
18849TIP3   OH278037   6.425   0.386  16.096 -0.0609  0.3883 -0.3985
18849TIP3    H178038   6.445   0.318  16.031 -0.1956 -0.9905  0.9485
18849TIP3    H278039   6.330   0.391  16.098 -0.1327 -0.7575  0.8026
18850TIP3   OH278040   3.320   5.832  15.022  0.0508  0.3322 -0.2672
18850TIP3    H178041   3.350   5.900  15.083  0.3292 -0.4133  0.4497
18850TIP3    H278042   3.281   5.881  14.950 -0.0408  1.2526  0.3765
18851TIP3   OH278043   5.096   2.194   0.508  0.0623  0.1635  0.0529
18851TIP3    H178044   5.092   2.171   0.415  0.4409 -0.6799  0.2287
18851TIP3    H278045   5.189   2.190   0.529  0.0595  1.1712  0.2776
18852TIP3   OH278046   3.656   2.522  12.645  0.4887  0.2626  0.1752
18852TIP3    H178047   3.568   2.495  12.620  0.5147  1.1676 -0.9494
18852TIP3    H278048   3.645   2.608  12.684  0.9924  0.9211 -1.0817
18853TIP3   OH278049   0.685   1.240  14.445 -0.1603  0.2742  0.6049
18853TIP3    H178050   0.780   1.229  14.438 -0.2711  0.4178 -1.7098
18853TIP3    H278051   0.672   1.277  14.533  1.9455  0.6254  0.8171
18854TIP3   OH278052   1.470   3.662  11.386  0.9641  0.7548  0.0724
18854TIP3    H178053   1.513   3.703  11.311  0.7738 -2.8059 -2.2136
18854TIP3    H278054   1.383   3.639  11.355  0.5823 -0.1219  1.6430
18855TIP3   OH278055   3.528   4.059  13.888  0.2806  0.2230 -0.0002
18855TIP3    H178056   3.559   3.976  13.852 -2.5414 -0.5088 -1.0633
18855TIP3    H278057   3.570   4.126  13.834  1.7452 -0.5438  0.1488
18856TIP3   OH278058   0.857   4.507  12.986  0.0932  0.0633 -0.0457
18856TIP3    H178059   0.835   4.591  13.027  0.8415  0.6464 -0.7956
18856TIP3    H278060   0.910   4.462  13.051  1.4144  1.0496 -0.3924
18857TIP3   OH278061   1.426   1.304  15.117  0.1712 -0.2821 -0.7584
18857TIP3    H178062   1.485   1.250  15.170  1.0733 -0.0693 -1.5235
18857TIP3    H278063   1.378   1.357  15.181  0.2767 -0.9790 -0.0836
18858TIP3   OH278064   0.106   0.280  13.160  0.1017 -0.2574  0.1595
18858TIP3    H178065   0.180   0.295  13.101  0.2845  0.1501  0.4918
18858TIP3    H278066   0.069   0.367  13.175 -1.4700 -0.6156 -1.3094
18859TIP3   OH278067   3.539   2.215   4.686  0.7547  0.3674 -0.1996
18859TIP3    H178068   3.474   2.250   4.626 -0.9839 -1.2035  0.6623
18859TIP3    H278069   3.493   2.209   4.770  2.6882  1.2119  0.9980
18860TIP3   OH278070   3.454   4.462  10.387 -0.3763  0.5755 -0.4760
18860TIP3    H178071   3.408   4.524  10.331  0.9687  3.6968  1.5575
18860TIP3    H278072   3.398   4.452  10.464  0.3521  1.0496  0.1425
18861TIP3   OH278073   2.621   5.426   0.904  0.6826  0.0585 -0.6610
18861TIP3    H178074   2.630   5.500   0.963  0.8603 -0.8164  0.4512
18861TIP3    H278075   2.711   5.404   0.879  0.6613 -0.0797 -0.6167
18862TIP3   OH278076   6.144   5.861   1.159  0.0418  0.3865 -0.2426
18862TIP3    H178077   6.079   5.924   1.129 -0.5925  0.3197  0.9599
18862TIP3    H278078   6.226   5.911   1.159 -0.2504  0.8801 -0.3891
18863TIP3   OH278079   5.658   3.037  14.341 -0.2368  0.3006  0.4816
18863TIP3    H178080   5.648   2.945  14.316 -0.5110  0.2576  0.7455
18863TIP3    H278081   5.643   3.085  14.259 -0.1322  0.1139  0.3521
18864TIP3   OH278082   0.831   3.413  17.071  0.3166 -0.5850  0.0024
18864TIP3    H178083   0.903   3.355  17.046  0.1100 -0.1178 -1.8615
18864TIP3    H278084   0.803   3.452  16.988 -1.5578 -0.1511  0.8024
18865TIP3   OH278085   1.101   5.899  15.193 -0.0370  1.1021 -0.5206
18865TIP3    H178086   1.094   5.804  15.196  0.1193  1.1002 -0.1198
18865TIP3    H278087   1.193   5.917  15.207 -0.4400  1.3994  2.2940
18866TIP3   OH278088   4.199   2.439  10.236  0.1630 -0.0657 -0.4757
18866TIP3    H178089   4.222   2.401  10.320  2.3240  1.2149 -0.4312
18866TIP3    H278090   4.199   2.364  10.175  0.0265 -0.7732  0.3747
18867TIP3   OH278091   4.291   4.589  11.929 -0.6095 -0.7630 -0.0570
18867TIP3    H178092   4.216   4.640  11.959 -0.0120  0.2872 -0.3085
18867TIP3    H278093   4.315   4.628  11.845  0.4441 -0.8574  0.1910
18868TIP3   OH278094   4.192   1.590  11.094  0.1890  0.1780 -1.0103
18868TIP3    H178095   4.109   1.548  11.075  1.1201 -2.3300  0.0245
18868TIP3    H278096   4.256   1.544  11.040  1.2908  0.0987  0.2990
18869TIP3   OH278097   4.922   6.031   2.605  0.6836  0.0263  0.3756
18869TIP3    H178098   4.930   5.936   2.621  1.3568  0.4742  3.2646
18869TIP3    H278099   5.011   6.060   2.589  0.7042  0.3922  1.1259
18870TIP3   OH278100   0.112   5.253  16.796  0.3161 -0.1023 -0.1877
18870TIP3    H178101   0.163   5.244  16.715 -1.4628  0.8361 -1.4874
18870TIP3    H278102   0.172   5.297  16.857  1.8770 -1.2934 -0.7814
18871TIP3   OH278103   0.666   6.565   3.447  0.2265  0.1629  0.3327
18871TIP3    H178104   0.585   6.534   3.408  0.6752 -0.5494 -0.0542
18871TIP3    H278105   0.726   6.491   3.440  0.8826  0.6472  0.6986
18872TIP3   OH278106   0.480   4.464  14.439  0.6449 -0.0159  0.4954
18872TIP3    H178107   0.464   4.524  14.511 -1.6517 -0.6724  0.6059
18872TIP3    H278108   0.421   4.391  14.454 -0.6354  0.2337 -2.4910
18873TIP3   OH278109   1.980   6.232  11.938 -0.6899 -0.2206 -0.3636
18873TIP3    H178110   1.904   6.199  11.987  0.0034  0.2760  1.0984
18873TIP3    H278111   2.018   6.155  11.897 -0.5762 -0.8445  0.8925
18874TIP3   OH278112   4.386   5.552   5.671 -0.2214 -0.0023 -0.1554
18874TIP3    H178113   4.384   5.508   5.755 -1.4480 -0.3974 -0.3746
18874TIP3    H278114   4.334   5.631   5.683  0.5739  0.5517 -0.2327
18875TIP3   OH278115   2.922   0.605   0.647 -0.3052 -0.1812  0.4088
18875TIP3    H178116   2.843   0.578   0.599  1.1314  1.2793 -3.0684
18875TIP3    H278117   2.942   0.530   0.703 -2.0875 -2.1160 -1.3652
18876TIP3   OH278118   4.122   2.342  16.462 -0.0793  0.0909  1.0763
18876TIP3    H178119   4.037   2.317  16.497 -0.0304 -0.3233  0.9091
18876TIP3    H278120   4.183   2.278  16.499 -0.0963 -0.6503 -0.1192
18877TIP3   OH278121   4.212   6.344   1.608  1.0323  0.1784  0.0635
18877TIP3    H178122   4.220   6.401   1.531 -0.3505 -0.1652 -0.3660
18877TIP3    H278123   4.161   6.270   1.577 -0.6481  0.6190  1.6059
18878TIP3   OH278124   6.787   2.210   1.646 -0.7540 -0.6003 -0.3135
18878TIP3    H178125   6.766   2.303   1.640  1.0674 -0.2171 -1.3587
18878TIP3    H278126   6.827   2.189   1.562  1.8302 -1.5282  1.0569
18879TIP3   OH278127   0.438   5.602  16.736  0.0685  0.5367 -0.1336
18879TIP3    H178128   0.464   5.519  16.696 -1.0357  1.0142 -1.9449
18879TIP3    H278129   0.504   5.664  16.708  1.3829  0.1802  1.9216
18880TIP3   OH278130   4.407   4.538  16.228  0.5856 -0.3246 -0.1115
18880TIP3    H178131   4.329   4.576  16.188 -0.1501 -3.2070 -1.6517
18880TIP3    H278132   4.380   4.516  16.317 -0.2043 -0.8357 -0.4714
18881TIP3   OH278133   0.488   0.381  11.197 -0.0073 -0.0655 -0.8707
18881TIP3    H178134   0.434   0.303  11.185  1.5566 -1.4095  0.3424
18881TIP3    H278135   0.535   0.391  11.113  0.7086 -1.2035 -0.6236
18882TIP3   OH278136   0.192   5.126   1.476  0.0622 -0.2368 -0.2117
18882TIP3    H178137   0.249   5.130   1.553  0.3228  0.5124 -0.4352
18882TIP3    H278138   0.152   5.039   1.481  1.6142 -0.9994 -0.3311
18883TIP3   OH278139   2.306   4.880   1.178  0.2630  0.2633  0.0308
18883TIP3    H178140   2.328   4.789   1.160  1.3737  0.7680 -1.3498
18883TIP3    H278141   2.310   4.923   1.093  0.2104  1.6920  0.7251
18884TIP3   OH278142   2.759   0.771  11.822  0.3831  0.1444 -0.2312
18884TIP3    H178143   2.760   0.700  11.886 -0.2207 -0.7279 -1.1611
18884TIP3    H278144   2.789   0.848  11.871  1.0361 -0.7374  0.7983
18885TIP3   OH278145   0.600   6.079   4.876  0.2141 -0.3161  0.2448
18885TIP3    H178146   0.575   6.010   4.937  0.0616 -0.1639  0.3533
18885TIP3    H278147   0.672   6.124   4.919 -0.5040  0.3866  0.7357
18886TIP3   OH278148   4.744   3.198  12.341  0.3602 -0.8332  0.0423
18886TIP3    H178149   4.697   3.115  12.345  0.4907 -0.9165 -0.1482
18886TIP3    H278150   4.782   3.200  12.253  1.4497 -1.1558  0.4955
18887TIP3   OH278151   6.125   6.518  14.855 -0.2261  0.3396 -0.1892
18887TIP3    H178152   6.214   6.488  14.840 -0.2723  0.3510 -0.4814
18887TIP3    H278153   6.118   6.600  14.806 -0.8694 -0.4273 -1.4380
18888TIP3   OH278154   2.596   3.712  14.782  0.1336 -0.6365 -0.6003
18888TIP3    H178155   2.643   3.787  14.819  0.0485 -0.2908 -1.1868
18888TIP3    H278156   2.511   3.747  14.756 -0.0731 -1.0370 -0.4726
18889TIP3   OH278157   6.651   3.578  13.918 -0.1703  0.5111 -0.0120
18889TIP3    H178158   6.680   3.494  13.954 -0.4864  0.3764 -0.0727
18889TIP3    H278159   6.644   3.564  13.824 -2.0213  0.0506  0.1566
18890TIP3   OH278160   1.890   3.601   3.896  0.6481 -0.2144 -0.0420
18890TIP3    H178161   1.826   3.530   3.887 -0.7445  0.9298  0.4987
18890TIP3    H278162   1.884   3.650   3.814  0.1424  0.4222  0.3625
18891TIP3   OH278163   3.765   4.835  11.109  0.3106 -0.2082 -0.0002
18891TIP3    H178164   3.736   4.898  11.043  0.3802  0.3060  0.4527
18891TIP3    H278165   3.843   4.794  11.071  0.5819  0.3659 -0.0765
18892TIP3   OH278166   5.835   6.538  14.535 -0.0076 -0.0078  0.0478
18892TIP3    H178167   5.752   6.514  14.495 -0.0761 -0.6018  0.5250
18892TIP3    H278168   5.822   6.522  14.629  1.5534 -2.9654 -0.1404
18893TIP3   OH278169   0.066   1.515  12.216  0.6959 -0.5837 -0.1272
18893TIP3    H178170   0.037   1.482  12.131  0.1841 -0.9212  0.1735
18893TIP3    H278171   0.145   1.566  12.196  1.4508 -1.8954 -0.6187
18894TIP3   OH278172   6.383   6.537  11.403 -0.2352 -0.1883  0.6124
18894TIP3    H178173   6.463   6.534  11.351  0.1758  3.4890  0.7878
18894TIP3    H278174   6.368   6.446  11.429  0.2781 -2.1697 -4.6690
18895TIP3   OH278175   2.491   4.359  14.979  0.1603  0.1794  0.3736
18895TIP3    H178176   2.450   4.281  14.941 -1.2922  2.2109 -2.6015
18895TIP3    H278177   2.489   4.424  14.909  1.1366  2.9953  2.7504
18896TIP3   OH278178   6.292   0.321   1.907 -0.3011  0.4173 -0.0682
18896TIP3    H178179   6.234   0.251   1.938  0.7665  0.0616  1.2407
18896TIP3    H278180   6.354   0.334   1.979  1.8376  0.1212 -1.7533
18897TIP3   OH278181   0.846   5.004   3.415  0.0887 -0.4340  0.0881
18897TIP3    H178182   0.920   5.042   3.463 -0.4092  0.3643  0.2459
18897TIP3    H278183   0.873   4.914   3.396  0.9188 -0.2859  0.5262
18898TIP3   OH278184   2.359   6.293   3.626  0.1378 -0.1163 -0.5853
18898TIP3    H178185   2.393   6.371   3.582  1.6918 -1.3434 -1.6598
18898TIP3    H278186   2.436   6.251   3.664 -1.0507  0.7009  3.1822
18899TIP3   OH278187   5.545   3.939   1.338 -0.1083  0.6113  0.7174
18899TIP3    H178188   5.611   3.888   1.385 -0.8464  0.3758  1.5385
18899TIP3    H278189   5.565   4.030   1.358  1.6867  0.7515 -1.3784
18900TIP3   OH278190   4.858   2.161  11.486 -0.9358 -0.5819 -0.8721
18900TIP3    H178191   4.837   2.078  11.528 -2.8834 -0.6284 -1.8036
18900TIP3    H278192   4.895   2.137  11.401 -1.4658 -0.5404 -1.1267
18901TIP3   OH278193   5.680   1.311  10.526  0.1636 -0.1114 -0.2245
18901TIP3    H178194   5.724   1.226  10.530  0.5577 -0.0163 -1.9380
18901TIP3    H278195   5.709   1.356  10.606  1.9518 -0.6524 -0.5123
18902TIP3   OH278196   2.602   5.399   3.431  0.1024  0.9718  0.4724
18902TIP3    H178197   2.670   5.439   3.378 -2.4082  1.6499 -2.5303
18902TIP3    H278198   2.550   5.348   3.369 -3.1642  1.9388  2.1763
18903TIP3   OH278199   6.408   1.668  16.887  0.2232 -0.4163  0.0407
18903TIP3    H178200   6.448   1.753  16.870 -0.3034 -0.3197 -0.7923
18903TIP3    H278201   6.360   1.680  16.969 -1.8206  0.8391 -1.2466
18904TIP3   OH278202   6.687   3.257   0.202 -0.0618  0.2757 -0.1695
18904TIP3    H178203   6.703   3.306   0.121 -1.2809  0.9897  0.0011
18904TIP3    H278204   6.771   3.215   0.221  0.3331  0.3431 -1.6292
18905TIP3   OH278205   1.856   3.081   3.998  0.3065 -0.2565  0.6108
18905TIP3    H178206   1.859   3.073   4.094 -0.8034 -1.6007  0.5556
18905TIP3    H278207   1.910   3.158   3.979 -0.1886  0.5773  2.3820
18906TIP3   OH278208   5.851   2.416   5.780 -0.5666 -0.1266 -0.3774
18906TIP3    H178209   5.820   2.454   5.862 -1.1826  0.1179 -0.7186
18906TIP3    H278210   5.946   2.412   5.790 -0.6422 -0.1848  0.3829
18907TIP3   OH278211   0.730   0.487  13.032  0.5929  0.2765 -0.3383
18907TIP3    H178212   0.768   0.556  12.977  0.2541  0.5492 -0.2330
18907TIP3    H278213   0.714   0.414  12.972 -1.7022  1.2930 -1.0513
18908TIP3   OH278214   5.834   6.102  16.280 -0.2015  0.0901  0.2659
18908TIP3    H178215   5.762   6.129  16.337 -0.1422  0.7518  0.0311
18908TIP3    H278216   5.870   6.183  16.246 -1.4584 -0.2864 -2.2267
18909TIP3   OH278217   1.815   2.588  16.907  0.0223 -0.1663 -0.4136
18909TIP3    H178218   1.776   2.648  16.843 -1.4781 -2.0560 -1.3859
18909TIP3    H278219   1.748   2.580  16.975  0.3043 -0.5357 -0.1800
18910TIP3   OH278220   1.393   5.852  13.429 -0.0803 -0.6197 -0.5346
18910TIP3    H178221   1.396   5.826  13.522  2.4945 -1.1285 -0.6996
18910TIP3    H278222   1.314   5.907  13.423 -0.0086 -0.0672  2.0811
18911TIP3   OH278223   6.604   5.235   1.526 -0.3610  0.3044 -0.0471
18911TIP3    H178224   6.587   5.177   1.600 -0.3924  0.1563 -0.1701
18911TIP3    H278225   6.535   5.216   1.464  1.1449 -1.5272 -1.2858
18912TIP3   OH278226   0.296   2.697  14.167 -0.1555  0.6712  0.8007
18912TIP3    H178227   0.343   2.771  14.129 -0.9022  0.5655 -0.3821
18912TIP3    H278228   0.245   2.735  14.238 -0.1568  1.2164  0.5149
18913TIP3   OH278229   1.747   1.703  12.603  0.1376 -0.0375 -0.4612
18913TIP3    H178230   1.725   1.658  12.521 -1.7752 -0.8098  0.4063
18913TIP3    H278231   1.765   1.632  12.665  0.3605  0.5003  0.1003
18914TIP3   OH278232   2.116   5.513  14.208 -0.3142 -0.0094 -0.2912
18914TIP3    H178233   2.112   5.590  14.266 -0.0150  0.4056 -0.8133
18914TIP3    H278234   2.207   5.484  14.214 -0.2551  0.1016 -0.6357
18915TIP3   OH278235   4.763   4.179  14.424  0.3756  0.2264 -0.4477
18915TIP3    H178236   4.742   4.130  14.345 -2.5874 -0.4789  0.6559
18915TIP3    H278237   4.840   4.135  14.460  0.8087 -0.4274 -2.0768
18916TIP3   OH278238   1.960   2.546  13.249 -0.0407  0.1001  0.4950
18916TIP3    H178239   1.978   2.546  13.155  0.1891  1.4461  0.5280
18916TIP3    H278240   1.945   2.638  13.271  0.4258 -0.1382  1.8831
18917TIP3   OH278241   0.793   5.962  16.952  0.4146  0.1816  0.0084
18917TIP3    H178242   0.874   5.911  16.944  1.3274  1.2326  1.8955
18917TIP3    H278243   0.757   5.938  17.037 -0.8449  0.3299 -0.4599
18918TIP3   OH278244   6.553   3.642  15.011 -0.6594  0.9116  0.2832
18918TIP3    H178245   6.615   3.715  15.015 -0.3581  0.6538  0.3813
18918TIP3    H278246   6.484   3.665  15.072 -0.9091  1.4294 -0.1872
18919TIP3   OH278247   5.236   3.036   1.427 -0.2117 -0.8599 -0.1136
18919TIP3    H178248   5.154   3.011   1.468 -0.2375 -0.0569  0.3382
18919TIP3    H278249   5.223   3.017   1.334 -2.0109  1.9264 -0.5271
18920TIP3   OH278250   4.663   4.555  16.836 -0.1040  0.3697  0.7144
18920TIP3    H178251   4.642   4.465  16.811  0.2176 -0.0735  1.9418
18920TIP3    H278252   4.753   4.551  16.868 -0.3877  0.9324  1.6311
18921TIP3   OH278253   6.175   6.533  15.729  0.4297 -0.1643 -0.5909
18921TIP3    H178254   6.183   6.628  15.727  1.9930 -0.2718 -2.2802
18921TIP3    H278255   6.259   6.502  15.762 -0.4553 -0.9742  1.0156
18922TIP3   OH278256   1.731   3.821  16.974  0.3952  0.2057 -0.5909
18922TIP3    H178257   1.823   3.842  16.960  0.2102  0.4465 -1.4452
18922TIP3    H278258   1.685   3.861  16.901 -0.2113 -1.2640 -1.0580
18923TIP3   OH278259   3.060   6.311  10.829  0.3171  0.0429 -0.0874
18923TIP3    H178260   3.008   6.235  10.805  0.4841  0.0174 -0.3775
18923TIP3    H278261   3.151   6.283  10.817  0.3622  0.6037 -1.1937
18924TIP3   OH278262   1.657   3.251  11.831 -0.0199  0.3582  0.1935
18924TIP3    H178263   1.658   3.308  11.907  1.0559  0.6069 -0.0033
18924TIP3    H278264   1.626   3.306  11.759  0.7353  0.6179  0.0653
18925TIP3   OH278265   0.199   2.034   0.456  0.0663 -0.0641  0.4333
18925TIP3    H178266   0.144   2.038   0.377  0.1432  0.4622  0.4064
18925TIP3    H278267   0.277   2.086   0.434 -1.0823  2.3737  1.7946
18926TIP3   OH278268   5.347   1.538  13.063 -0.4605 -0.5199  0.8224
18926TIP3    H178269   5.441   1.551  13.050 -0.7663  0.8415 -0.3462
18926TIP3    H278270   5.338   1.444  13.079  1.2197 -0.4715  2.3555
18927TIP3   OH278271   3.325   0.210   1.887  0.7249 -0.2593 -0.1846
18927TIP3    H178272   3.243   0.191   1.933  1.0740  0.4141  0.7443
18927TIP3    H278273   3.359   0.124   1.862  1.2084 -0.7581  2.0402
18928TIP3   OH278274   1.233   1.747   0.738 -0.0983  0.1111  0.4816
18928TIP3    H178275   1.166   1.810   0.712 -0.2969 -0.6958 -1.0418
18928TIP3    H278276   1.316   1.789   0.713  0.2168  1.8855  3.9280
18929TIP3   OH278277   6.278   5.737   2.509 -0.5226  0.3627 -0.3586
18929TIP3    H178278   6.321   5.814   2.546  1.6086 -1.7568  1.8482
18929TIP3    H278279   6.217   5.708   2.577 -0.6110 -0.4478 -0.7670
18930TIP3   OH278280   0.554   2.134   1.127  0.3057 -0.1321 -0.3189
18930TIP3    H178281   0.514   2.180   1.201 -0.1024 -1.0319  0.0341
18930TIP3    H278282   0.484   2.077   1.094  0.7187 -0.3026 -0.9113
18931TIP3   OH278283   2.341   4.532  13.563 -0.1535 -0.0953  0.4670
18931TIP3    H178284   2.270   4.595  13.551 -0.2704 -0.1327  0.9644
18931TIP3    H278285   2.339   4.510  13.656 -0.3718 -1.1323  0.2353
18932TIP3   OH278286   5.283   0.398  17.080  0.4116  0.3243 -0.3694
18932TIP3    H178287   5.313   0.474  17.032 -1.3885  0.4624 -1.3492
18932TIP3    H278288   5.285   0.425  17.172  3.2921  0.2539 -0.2900
18933TIP3   OH278289   6.072   5.066   2.279  0.0784  0.0883  0.4446
18933TIP3    H178290   6.111   5.153   2.283 -0.1230  0.2783 -0.9214
18933TIP3    H278291   6.002   5.068   2.344 -0.2909  1.1600  0.0420
18934TIP3   OH278292   2.730   6.743  11.180 -0.6810  0.2061 -0.5825
18934TIP3    H178293   2.740   6.730  11.274  0.0786  2.8788 -0.2343
18934TIP3    H278294   2.790   6.680  11.141  1.0119  0.8612  0.8416
18935TIP3   OH278295   4.772   3.833  14.357  0.1294  0.3292  0.1376
18935TIP3    H178296   4.851   3.833  14.302  0.9643 -1.6391  1.2166
18935TIP3    H278297   4.751   3.741  14.369 -2.4930  0.7996 -0.2445
18936TIP3   OH278298   3.002   0.975   1.251 -0.0514 -0.1017 -0.4063
18936TIP3    H178299   2.914   0.999   1.224 -0.9817 -0.9748  1.6215
18936TIP3    H278300   3.014   1.018   1.336  1.8059  0.6522 -0.9868
18937TIP3   OH278301   5.533   1.108  14.682 -0.0923  0.3166 -0.4521
18937TIP3    H178302   5.624   1.134  14.695  0.4416 -1.8553  0.6050
18937TIP3    H278303   5.539   1.030  14.627 -1.1951 -0.6997  0.8300
18938TIP3   OH278304   6.459   5.505   4.629 -0.5994  0.9036 -0.9142
18938TIP3    H178305   6.419   5.528   4.545  2.1343  2.2422 -1.9896
18938TIP3    H278306   6.523   5.437   4.607 -1.0140  0.0112  0.4473
18939TIP3   OH278307   1.588   4.444  12.093  0.0657 -0.0561 -0.0739
18939TIP3    H178308   1.537   4.363  12.096 -1.0656  0.6614  0.7180
18939TIP3    H278309   1.645   4.439  12.170  0.0321 -0.1067 -0.0518
18940TIP3   OH278310   2.243   4.914   0.533  0.0028  0.3108  0.1709
18940TIP3    H178311   2.196   4.944   0.611  0.8006  1.9984  0.0675
18940TIP3    H278312   2.176   4.876   0.476 -0.8923  0.8131  0.8725
18941TIP3   OH278313   0.145   1.042  12.747  0.5643  0.3912 -0.5762
18941TIP3    H178314   0.228   1.078  12.716  1.4527  0.8971  2.0785
18941TIP3    H278315   0.169   0.986  12.821 -1.4666  1.6885  1.2192
18942TIP3   OH278316   5.795   0.987  11.172  0.1173  0.3625 -0.3069
18942TIP3    H178317   5.817   0.994  11.079 -1.7166  0.9366 -0.7332
18942TIP3    H278318   5.777   1.077  11.199 -0.1635  0.1043  0.3869
18943TIP3   OH278319   4.985   3.457   4.896  0.6363  0.7015 -0.0016
18943TIP3    H178320   5.052   3.426   4.957  0.9938  0.6258 -0.4298
18943TIP3    H278321   4.915   3.393   4.902  0.8932  0.4152 -0.0551
18944TIP3   OH278322   3.841   6.327  14.564 -0.5479 -0.0031 -0.3175
18944TIP3    H178323   3.934   6.303  14.564 -0.4195  0.4329  0.7519
18944TIP3    H278324   3.797   6.251  14.527  0.2793  0.0012 -1.3675
18945TIP3   OH278325   1.927   4.582   5.659 -0.2042  0.3755  0.0162
18945TIP3    H178326   1.997   4.521   5.682 -1.8451 -1.4372  0.4977
18945TIP3    H278327   1.903   4.623   5.742 -2.4496 -2.1493  0.7838
18946TIP3   OH278328   4.544   0.124  14.148  0.2431 -0.2691  0.1691
18946TIP3    H178329   4.585   0.208  14.127  0.8912 -0.9752 -1.6150
18946TIP3    H278330   4.588   0.095  14.228  0.8425  0.5377  0.1451
18947TIP3   OH278331   0.323   6.650  13.120  0.0656 -0.0168 -0.3481
18947TIP3    H178332   0.387   6.580  13.134  0.5690  0.1739 -1.5780
18947TIP3    H278333   0.261   6.614  13.056  0.6228  0.8130 -1.3965
18948TIP3   OH278334   2.810   6.835  15.384  0.7524  0.2402 -0.7367
18948TIP3    H178335   2.902   6.809  15.384  0.2550 -1.9906  2.0819
18948TIP3    H278336   2.763   6.756  15.356 -0.4474  0.1642  1.3059
18949TIP3   OH278337   6.458   3.010   1.113  0.1350  0.0593 -0.2803
18949TIP3    H178338   6.478   3.094   1.071  2.0251  0.8201  1.8869
18949TIP3    H278339   6.544   2.975   1.136 -0.6974 -1.7985  0.1661
18950TIP3   OH278340   5.381   4.412   3.640  0.2985 -0.7776  0.2923
18950TIP3    H178341   5.370   4.341   3.576 -0.0721  0.9721 -1.6922
18950TIP3    H278342   5.306   4.403   3.698 -0.3097 -1.3993 -0.5582
18951TIP3   OH278343   3.932   2.349  15.279 -0.6362  0.3068 -0.1748
18951TIP3    H178344   3.932   2.257  15.251  1.1379  0.3899 -0.5845
18951TIP3    H278345   3.904   2.397  15.201  1.3158  0.2950 -0.9547
18952TIP3   OH278346   0.339   4.822   3.289 -0.5592 -0.4966  0.3492
18952TIP3    H178347   0.258   4.778   3.317  0.4231 -1.6912  1.4757
18952TIP3    H278348   0.330   4.830   3.194 -1.6755 -1.3072  0.3622
18953TIP3   OH278349   5.474   2.140  14.746  0.9473  0.0699  0.2849
18953TIP3    H178350   5.385   2.105  14.758  0.8304  0.1918 -0.2193
18953TIP3    H278351   5.491   2.131  14.652  2.5893 -2.6105  0.7523
18954TIP3   OH278352   2.230   2.772  13.271  0.7657  0.2729  0.1386
18954TIP3    H178353   2.194   2.779  13.359 -0.6511  2.8194 -0.5090
18954TIP3    H278354   2.265   2.860  13.252  1.8637 -0.4567 -1.5083
18955TIP3   OH278355   4.228   5.175  16.780 -0.1207 -0.0733 -0.6617
18955TIP3    H178356   4.316   5.139  16.780  0.6707  1.7352  0.0926
18955TIP3    H278357   4.211   5.198  16.689 -0.5362 -2.0108 -1.1050
18956TIP3   OH278358   4.650   2.858  16.644 -0.2463 -0.1544  0.4463
18956TIP3    H178359   4.668   2.897  16.729 -1.3030 -1.9242  1.5355
18956TIP3    H278360   4.735   2.825  16.614  0.3616  1.5373  0.2109
18957TIP3   OH278361   0.628   3.090  16.369  0.3389  0.1791  0.4084
18957TIP3    H178362   0.582   3.143  16.304  0.4146  1.3544  1.2785
18957TIP3    H278363   0.574   3.011  16.377 -0.0037  0.2859 -0.6166
18958TIP3   OH278364   1.162   3.635   3.909  0.0777  0.1455 -0.1547
18958TIP3    H178365   1.133   3.549   3.881 -2.9243  0.4223  1.6122
18958TIP3    H278366   1.106   3.656   3.984  2.0625  2.7962  0.7676
18959TIP3   OH278367   1.952   0.354  16.053 -0.5199 -0.3902  0.2470
18959TIP3    H178368   1.991   0.369  15.967  0.7296 -1.7105  0.5380
18959TIP3    H278369   1.909   0.269  16.045 -0.4966 -0.4684  0.8861
18960TIP3   OH278370   5.335   2.833  13.066  0.0528  0.2349 -0.4104
18960TIP3    H178371   5.365   2.742  13.073  0.3400  0.3289 -0.4218
18960TIP3    H278372   5.270   2.842  13.136 -0.6210 -0.2318 -0.9639
18961TIP3   OH278373   0.649   3.157  14.888 -0.0411 -0.6063  0.1288
18961TIP3    H178374   0.709   3.226  14.918  0.5175 -0.7159 -0.7005
18961TIP3    H278375   0.698   3.076  14.901  0.2119 -0.6582 -1.0184
18962TIP3   OH278376   3.416   0.430   5.933 -0.2276  0.2373  0.1754
18962TIP3    H178377   3.445   0.409   5.845  0.4895  0.2881  0.3990
18962TIP3    H278378   3.322   0.410   5.933 -0.0907 -0.4173 -0.3909
18963TIP3   OH278379   0.227   0.058   3.464  0.1375 -0.5255  0.1415
18963TIP3    H178380   0.321   0.045   3.460 -0.0771 -2.1017 -0.2619
18963TIP3    H278381   0.190  -0.011   3.409 -1.2372  0.2894 -0.0040
18964TIP3   OH278382   2.890   0.455   5.537 -0.5347 -0.0591  0.5394
18964TIP3    H178383   2.937   0.445   5.454 -1.8527 -0.6242 -0.1778
18964TIP3    H278384   2.803   0.487   5.512 -1.4761 -1.6843  1.5368
18965TIP3   OH278385   4.345   2.234  11.431 -0.1796  0.5688  0.0984
18965TIP3    H178386   4.379   2.147  11.453  2.0446  1.3506  0.0821
18965TIP3    H278387   4.421   2.292  11.441 -1.0413  2.1879 -1.9519
18966TIP3   OH278388   3.258   0.305   5.120  0.0254 -0.2942  0.0488
18966TIP3    H178389   3.280   0.350   5.038 -1.1736  1.4390  0.6061
18966TIP3    H278390   3.174   0.263   5.102  0.4124 -1.0633  0.0009
18967TIP3   OH278391   6.035   0.566   0.684  0.1571 -0.0851  0.4848
18967TIP3    H178392   6.077   0.484   0.710 -1.1601 -0.1610  2.5751
18967TIP3    H278393   6.013   0.609   0.767  1.8637  2.9946 -0.5075
18968TIP3   OH278394   6.711   1.852   1.487 -0.2211 -0.7683 -0.0830
18968TIP3    H178395   6.783   1.839   1.424 -0.0763 -0.7863  0.0855
18968TIP3    H278396   6.649   1.909   1.441 -0.9979 -2.2403 -0.9480
18969TIP3   OH278397   2.027   0.869  15.909  0.0539 -0.0283 -0.3896
18969TIP3    H178398   1.960   0.896  15.971 -0.7457 -0.6902 -0.9475
18969TIP3    H278399   2.077   0.802  15.956  1.0621  1.2649  0.4335
18970TIP3   OH278400   2.221   6.112   5.764 -0.1728 -0.5660  0.0631
18970TIP3    H178401   2.221   6.040   5.827  1.0262 -0.3991  0.2888
18970TIP3    H278402   2.178   6.184   5.809  0.8980 -0.3728  0.8052
18971TIP3   OH278403   4.899   5.777   2.101 -0.1108 -0.1866 -0.0862
18971TIP3    H178404   4.927   5.770   2.010  0.9463 -1.0007  0.2746
18971TIP3    H278405   4.926   5.865   2.128 -0.7050  0.1713 -0.6347
18972TIP3   OH278406   3.793   2.797  16.251  0.1528 -0.1526 -0.7947
18972TIP3    H178407   3.801   2.827  16.161 -0.9718  1.3530 -0.4352
18972TIP3    H278408   3.883   2.780  16.279  0.5498 -0.1743 -2.0398
18973TIP3   OH278409   2.883   2.773  13.007  0.2628 -0.6560  0.2266
18973TIP3    H178410   2.808   2.831  13.017  0.7440  0.1364 -0.5752
18973TIP3    H278411   2.888   2.755  12.913  2.2347  0.9794 -0.0702
18974TIP3   OH278412   6.592   0.359   5.793  0.1138 -0.6817 -0.3161
18974TIP3    H178413   6.523   0.393   5.851  0.4667  1.0860 -0.8800
18974TIP3    H278414   6.544   0.315   5.723 -0.4842  0.5463 -0.7100
18975TIP3   OH278415   2.074   3.684  16.196 -0.1267 -0.2318 -0.0819
18975TIP3    H178416   2.127   3.737  16.254 -0.2451 -0.3638  0.1503
18975TIP3    H278417   2.082   3.726  16.110 -1.0378  0.7612  0.2988
18976TIP3   OH278418   3.692   6.008  15.131  0.3083  0.2930 -0.0142
18976TIP3    H178419   3.677   6.100  15.111  1.2864  0.5891  0.5433
18976TIP3    H278420   3.604   5.971  15.144 -0.1091  1.0433 -0.6525
18977TIP3   OH278421   5.543   3.266  13.709  0.1825 -0.7513  0.1714
18977TIP3    H178422   5.612   3.296  13.767 -0.3787  0.3138  0.3067
18977TIP3    H278423   5.523   3.177  13.740  1.7492 -1.2474 -0.1405
18978TIP3   OH278424   2.010   2.429   1.753 -0.0026 -0.0448  0.1470
18978TIP3    H178425   2.080   2.363   1.755  0.2824  0.2323 -0.4033
18978TIP3    H278426   1.960   2.413   1.833  0.1709 -0.8078  0.1112
18979TIP3   OH278427   0.149   4.029  10.667 -0.7287 -0.4655 -0.1021
18979TIP3    H178428   0.054   4.025  10.681 -0.5826 -1.3312  0.7357
18979TIP3    H278429   0.166   3.962  10.601 -0.3625 -2.4974  1.9203
18980TIP3   OH278430   1.945   0.873   4.859 -0.0525  1.0004 -0.1971
18980TIP3    H178431   1.985   0.907   4.779  1.0902  1.7803  0.6795
18980TIP3    H278432   1.870   0.930   4.875  0.0277  1.1710 -0.4233
18981TIP3   OH278433   5.965   5.425  15.934 -0.3924 -0.4373 -0.3192
18981TIP3    H178434   5.956   5.407  15.841 -0.4287 -0.3436 -0.3340
18981TIP3    H278435   6.060   5.426  15.949 -0.3291  1.2693 -0.6987
18982TIP3   OH278436   4.781   0.763  15.492  0.0573  0.6449  0.4151
18982TIP3    H178437   4.721   0.795  15.559  0.8563  3.6335 -0.1452
18982TIP3    H278438   4.729   0.763  15.412  0.2407  1.2779  0.2904
18983TIP3   OH278439   1.471   0.168  14.257 -0.3481 -0.5213 -0.1579
18983TIP3    H178440   1.388   0.124  14.237  0.8580 -1.7968 -2.8812
18983TIP3    H278441   1.511   0.184  14.172  1.8463  0.8545  1.0313
18984TIP3   OH278442   3.436   5.448  15.156  0.2996  0.7573  0.1416
18984TIP3    H178443   3.479   5.504  15.091  0.9056 -0.8758 -0.9140
18984TIP3    H278444   3.346   5.483  15.162  0.4916  1.4739 -0.9182
18985TIP3   OH278445   3.200   6.724   3.764 -0.1268  0.0934 -0.1963
18985TIP3    H178446   3.114   6.730   3.723  0.0704 -1.4412 -0.8775
18985TIP3    H278447   3.199   6.641   3.811  1.4487 -0.6227 -1.3647
18986TIP3   OH278448   2.099   4.487   3.554 -0.8891 -0.1704  1.1029
18986TIP3    H178449   2.152   4.565   3.570 -0.2289 -0.7635  1.9443
18986TIP3    H278450   2.150   4.436   3.490 -1.2808  0.0452  0.6132
18987TIP3   OH278451   1.444   5.846   3.762  0.2441  0.2437 -0.1433
18987TIP3    H178452   1.538   5.845   3.777  0.0452 -1.6618  1.4454
18987TIP3    H278453   1.415   5.757   3.784 -1.8219  0.5301 -1.3716
18988TIP3   OH278454   6.434   2.989  11.952  0.2566  0.3601  0.1297
18988TIP3    H178455   6.351   3.016  11.913  0.8214  2.7111  0.3820
18988TIP3    H278456   6.501   3.029  11.895  1.2342 -1.2567  0.0866
18989TIP3   OH278457   0.424   1.904   1.549  0.4358  0.5556 -0.1672
18989TIP3    H178458   0.501   1.847   1.551 -0.5635 -0.8523  0.6622
18989TIP3    H278459   0.416   1.932   1.458 -1.0847 -3.6600 -1.5753
18990TIP3   OH278460   4.043   1.326  13.464 -0.4112 -0.0485 -0.1696
18990TIP3    H178461   3.982   1.387  13.506 -1.2095 -2.6944  2.8799
18990TIP3    H278462   4.125   1.375  13.458 -1.2063  1.6048  1.4310
18991TIP3   OH278463   5.834   6.596  11.349 -0.2466  0.4662 -0.6724
18991TIP3    H178464   5.826   6.622  11.441  2.4661 -2.4001  0.5398
18991TIP3    H278465   5.768   6.528  11.337  0.7966 -0.6708 -0.1480
18992TIP3   OH278466   1.375   4.817  14.329  0.1688  0.0385  0.1522
18992TIP3    H178467   1.470   4.828  14.325  0.3116 -1.2104 -3.3934
18992TIP3    H278468   1.362   4.722  14.324 -1.2058  0.2572 -1.3231
18993TIP3   OH278469   2.738   3.876  15.182 -0.2624 -0.2372  0.0477
18993TIP3    H178470   2.796   3.810  15.144 -0.2906  0.1487 -0.6891
18993TIP3    H278471   2.654   3.831  15.191 -0.1929 -0.4045 -0.1303
18994TIP3   OH278472   4.095   0.025   2.690  0.3934  0.6063  0.7449
18994TIP3    H178473   4.053   0.040   2.606 -0.2195  2.1396  1.3011
18994TIP3    H278474   4.132  -0.063   2.683  1.1100  1.0198 -1.4389
18995TIP3   OH278475   0.768   3.946  15.944 -0.5001  0.4496 -0.0319
18995TIP3    H178476   0.700   3.971  16.007  0.6088  0.0806  1.3741
18995TIP3    H278477   0.804   3.864  15.979  0.9052  0.8246 -0.5246
18996TIP3   OH278478   5.476   5.420  14.883  0.7521  0.2387  0.3134
18996TIP3    H178479   5.422   5.352  14.842  1.8932 -0.6124  0.1791
18996TIP3    H278480   5.530   5.454  14.811  1.7092 -0.2300  0.7936
18997TIP3   OH278481   5.137   5.905   1.603  0.3332  0.6276 -1.0972
18997TIP3    H178482   5.215   5.959   1.593 -0.6116  2.6859  1.4551
18997TIP3    H278483   5.168   5.815   1.593  2.4802  1.4975 -2.8071
18998TIP3   OH278484   2.910   1.341   0.594 -0.3851  0.2124 -0.0099
18998TIP3    H178485   2.996   1.299   0.592 -0.9040 -0.9326  0.5099
18998TIP3    H278486   2.868   1.306   0.673 -0.9895  1.4510  0.2337
18999TIP3   OH278487   3.804   2.910   0.651 -0.7817 -0.9031  0.1376
18999TIP3    H178488   3.816   3.001   0.679 -0.9556 -0.8090 -0.0958
18999TIP3    H278489   3.778   2.864   0.731 -0.5211 -0.7826  0.2925
19000TIP3   OH278490   2.245   5.659   0.207 -0.3468 -0.0119 -0.3060
19000TIP3    H178491   2.227   5.584   0.151 -3.1290 -0.1176  0.5954
19000TIP3    H278492   2.169   5.665   0.265  0.3905  2.7156  0.5345
19001TIP3   OH278493   4.755   4.033  16.416  0.2906  0.0230 -0.4181
19001TIP3    H178494   4.662   4.013  16.427 -0.0646  0.9706 -1.5110
19001TIP3    H278495   4.781   4.069  16.500 -0.8129  1.4802 -0.6580
19002TIP3   OH278496   6.264   5.441  14.316 -0.3409 -0.0070 -0.2059
19002TIP3    H178497   6.300   5.449  14.228  1.3802 -0.9508  0.3688
19002TIP3    H278498   6.226   5.353  14.319  1.0267 -0.6140  0.4356
19003TIP3   OH278499   6.560   3.098  13.925  1.0098 -0.2195  0.1105
19003TIP3    H178500   6.563   3.087  14.020  0.2698 -0.8522  0.0732
19003TIP3    H278501   6.469   3.120  13.906  1.0124 -0.7186 -0.5093
19004TIP3   OH278502   5.184   0.352   1.291  0.1313  0.1405  0.2848
19004TIP3    H178503   5.237   0.383   1.364  0.5869  0.5089 -0.1954
19004TIP3    H278504   5.228   0.385   1.213  0.6537 -1.7205 -0.2707
19005TIP3   OH278505   5.115   1.599  13.977  0.1326 -0.6491 -0.3660
19005TIP3    H178506   5.187   1.538  13.965 -1.4216 -2.2388 -2.2561
19005TIP3    H278507   5.154   1.686  13.961  1.8825 -1.3274  0.0290
19006TIP3   OH278508   4.207   6.656   2.234 -0.3977  0.2058 -0.1545
19006TIP3    H178509   4.293   6.615   2.247  1.1489  2.1005 -3.2514
19006TIP3    H278510   4.224   6.750   2.240 -1.9600  0.6790 -2.1364
19007TIP3   OH278511   1.862   0.672   5.914  0.2304  0.4254 -0.0537
19007TIP3    H178512   1.830   0.708   5.831 -0.2247  2.0811  0.8040
19007TIP3    H278513   1.785   0.670   5.970  0.3040 -1.6791  0.0343
19008TIP3   OH278514   4.086   6.824   3.574  0.2963 -0.0359  0.1788
19008TIP3    H178515   4.084   6.920   3.579  0.0309 -0.0816  1.1256
19008TIP3    H278516   4.013   6.796   3.629  0.1361 -0.7762 -0.4083
19009TIP3   OH278517   6.666   1.696  13.079  0.2058  0.1799  0.3304
19009TIP3    H178518   6.624   1.758  13.018 -0.1857 -0.1642  0.2440
19009TIP3    H278519   6.740   1.660  13.029  0.2797  0.3874  0.2896
19010TIP3   OH278520   0.072   1.155  11.070 -0.4638 -0.5292  0.2724
19010TIP3    H178521   0.132   1.140  11.143 -0.2134 -0.8665 -0.0056
19010TIP3    H278522   0.038   1.243  11.086  2.6944  1.1296 -1.4105
19011TIP3   OH278523   5.374   2.532   4.292  0.4214 -0.3160  0.2461
19011TIP3    H178524   5.380   2.623   4.323  1.3088  0.4647 -1.9985
19011TIP3    H278525   5.293   2.530   4.241  0.3821 -0.7990  0.3263
19012TIP3   OH278526   2.882   4.404   3.000  0.2774 -0.3010  0.4893
19012TIP3    H178527   2.961   4.433   2.955 -0.9230  2.1321 -0.1904
19012TIP3    H278528   2.913   4.370   3.084  2.0709 -0.0268 -0.0377
19013TIP3   OH278529   0.543   1.316  14.721 -0.2734  0.1689  0.2668
19013TIP3    H178530   0.634   1.334  14.744  0.8709 -0.0996 -3.3395
19013TIP3    H278531   0.526   1.229  14.756  0.8291  0.2689  1.1043
19014TIP3   OH278532   3.407   1.446   6.372 -0.0467 -0.0925 -0.2162
19014TIP3    H178533   3.469   1.426   6.441 -0.1545  0.8991  0.1912
19014TIP3    H278534   3.350   1.369   6.367 -0.0366 -0.1730  0.8003
19015TIP3   OH278535   3.891   0.236   0.117 -0.6041  0.1283  0.0556
19015TIP3    H178536   3.843   0.168   0.070  0.0237  1.6853 -3.0984
19015TIP3    H278537   3.823   0.294   0.150 -1.0475 -0.3478  0.0012
19016TIP3   OH278538   2.128   3.059   1.696  0.4213 -0.0040 -0.4903
19016TIP3    H178539   2.174   3.003   1.633  0.7313  1.1112 -1.2830
19016TIP3    H278540   2.147   3.020   1.781  1.0719 -0.7913 -0.9818
19017TIP3   OH278541   0.345   3.034   5.932 -0.5495  0.3364  0.6314
19017TIP3    H178542   0.402   2.994   5.997 -0.4719 -1.6175 -0.5620
19017TIP3    H278543   0.317   2.961   5.876 -0.1726  1.9760 -1.8625
19018TIP3   OH278544   4.096   4.899   1.161  0.4410  0.5106 -0.5740
19018TIP3    H178545   4.034   4.865   1.097  1.3319 -1.3983 -0.4967
19018TIP3    H278546   4.048   4.899   1.244 -0.0373  0.9324 -0.8436
19019TIP3   OH278547   3.453   4.594  16.420  0.1491 -0.3303 -0.4420
19019TIP3    H178548   3.493   4.515  16.455 -0.1407 -0.5679 -0.6446
19019TIP3    H278549   3.501   4.613  16.339  0.7314  0.1439  0.0062
19020TIP3   OH278550   0.395   0.830  14.957 -0.4593 -0.9980 -0.5035
19020TIP3    H178551   0.488   0.849  14.945 -0.5393 -0.2638 -0.0161
19020TIP3    H278552   0.387   0.737  14.936  0.1938 -0.8305 -1.5632
19021TIP3   OH278553   5.544   1.513   5.057 -0.6383 -0.4223 -0.2036
19021TIP3    H178554   5.534   1.421   5.031 -0.7315 -0.1764 -1.0710
19021TIP3    H278555   5.557   1.510   5.151 -0.0598 -1.3695 -0.3020
19022TIP3   OH278556   2.927   2.257   4.521 -0.3914  0.6516 -0.2557
19022TIP3    H178557   2.874   2.337   4.515 -1.5077 -0.1243 -1.1479
19022TIP3    H278558   3.013   2.288   4.549 -1.3736  1.9242  1.5484
19023TIP3   OH278559   1.262   6.070   3.715 -0.4766 -0.0357  0.6310
19023TIP3    H178560   1.331   6.131   3.691  0.2313 -1.2233 -0.4936
19023TIP3    H278561   1.308   5.995   3.752 -1.0078 -1.3014 -1.1032
19024TIP3   OH278562   6.455   6.627   4.030  0.6549  0.1633 -0.1181
19024TIP3    H178563   6.412   6.583   3.956 -2.4482  0.6481  1.2638
19024TIP3    H278564   6.455   6.719   4.007  2.8514  0.0236 -0.9289
19025TIP3   OH278565   2.760   6.318  15.377  0.4712 -0.0008  0.4976
19025TIP3    H178566   2.807   6.402  15.380  0.4103  0.0829 -0.5609
19025TIP3    H278567   2.827   6.254  15.352  0.1289  0.0580 -0.6400
19026TIP3   OH278568   1.931   1.238   0.694 -0.4399  0.2983  0.5911
19026TIP3    H178569   1.968   1.297   0.759 -0.1218  0.0590  0.6286
19026TIP3    H278570   1.874   1.294   0.641  0.0157  0.6799  0.4989
19027TIP3   OH278571   0.327   3.502  16.576  0.1192  0.5993 -0.5705
19027TIP3    H178572   0.355   3.592  16.593  2.3223 -0.1692  0.1619
19027TIP3    H278573   0.316   3.498  16.481  1.1791  1.3463 -0.7435
19028TIP3   OH278574   5.916   3.165  12.741 -0.0440 -0.5622  0.5099
19028TIP3    H178575   5.957   3.092  12.694  1.8218  1.2583 -0.8583
19028TIP3    H278576   5.847   3.124  12.793 -1.5333 -2.8725 -2.9332
19029TIP3   OH278577   1.996   4.672  13.086  0.0120  0.3335  0.0428
19029TIP3    H178578   2.047   4.713  13.156  0.8301  0.3795 -0.5716
19029TIP3    H278579   1.977   4.742  13.025  1.7154 -0.2147 -1.1874
19030TIP3   OH278580   4.517   3.406  15.782  0.0990  0.4776 -0.2100
19030TIP3    H178581   4.596   3.369  15.743 -0.1436 -0.9698  0.5833
19030TIP3    H278582   4.549   3.457  15.857  0.3242  0.3179 -0.1965
19031TIP3   OH278583   1.297   1.964   1.305 -0.0188  0.6331 -0.7082
19031TIP3    H178584   1.351   1.889   1.283 -0.9928  0.2102 -1.7319
19031TIP3    H278585   1.266   1.998   1.221 -3.5117 -0.8000 -0.1832
19032TIP3   OH278586   0.280   4.729   5.281  0.3610  0.3585 -0.3644
19032TIP3    H178587   0.257   4.766   5.196  0.5055 -0.2057 -0.6563
19032TIP3    H278588   0.215   4.765   5.341  0.8777  1.5690 -0.5144
19033TIP3   OH278589   3.422   3.932   6.812  0.0633 -0.3944  0.1891
19033TIP3    H178590   3.458   3.876   6.743  2.2651 -1.4610  2.0680
19033TIP3    H278591   3.354   3.879   6.852  0.7475 -0.9516  0.6440
19034TIP3   OH278592   1.053   3.371  16.727 -0.4074  0.0405  0.1227
19034TIP3    H178593   1.097   3.291  16.699 -2.4820 -1.0694 -0.1507
19034TIP3    H278594   1.117   3.440  16.712  0.8777 -1.3577 -1.1485
19035TIP3   OH278595   2.293   0.985   3.504 -0.1065  0.2155 -0.9897
19035TIP3    H178596   2.306   0.990   3.598 -1.6364 -2.5481 -0.5076
19035TIP3    H278597   2.288   1.076   3.474  1.7586  1.1716  1.3274
19036TIP3   OH278598   4.904   2.321  15.952 -0.4588 -0.7281  0.2438
19036TIP3    H178599   4.871   2.286  15.869 -0.7323  0.2839 -0.0924
19036TIP3    H278600   4.998   2.332  15.937 -0.8217  1.6029 -0.7870
19037TIP3   OH278601   1.790   5.604   1.093  0.4408  0.1550 -0.2015
19037TIP3    H178602   1.872   5.653   1.086  1.5222 -1.6280 -0.7968
19037TIP3    H278603   1.817   5.516   1.121 -1.2870 -0.4373 -0.2714
19038TIP3   OH278604   0.769   4.622   3.771  0.1886 -0.6029  0.3663
19038TIP3    H178605   0.729   4.703   3.741 -0.1613 -0.6934  0.5845
19038TIP3    H278606   0.857   4.623   3.733 -0.5529 -1.1848 -1.4963
19039TIP3   OH278607   6.160   3.246  13.479  0.0926 -0.1057  0.1356
19039TIP3    H178608   6.168   3.330  13.524  0.8255 -0.6812  1.0899
19039TIP3    H278609   6.102   3.194  13.535 -1.1994  0.0836 -0.9637
19040TIP3   OH278610   4.413   1.786   2.756 -0.2595  0.3256 -0.6001
19040TIP3    H178611   4.501   1.789   2.794 -0.8072  0.6699  0.6718
19040TIP3    H278612   4.367   1.859   2.797 -1.1999  0.0456 -1.1364
19041TIP3   OH278613   2.926   3.160  12.305  0.3209  0.6199  0.1896
19041TIP3    H178614   2.846   3.134  12.259  0.7819  1.9026 -1.4393
19041TIP3    H278615   2.894   3.214  12.378 -0.3508  0.0321  0.3467
19042TIP3   OH278616   5.602   4.979  13.173 -0.5213 -0.0584 -0.2132
19042TIP3    H178617   5.618   5.011  13.084  1.9867  1.6629  0.7556
19042TIP3    H278618   5.634   5.048  13.230  0.7284 -2.3084  2.0372
19043TIP3   OH278619   6.774   6.135   0.188  0.4535 -0.1525 -0.2404
19043TIP3    H178620   6.681   6.116   0.203  0.5144  1.4013  3.1928
19043TIP3    H278621   6.821   6.068   0.237  0.9679  1.1284  1.1127
19044TIP3   OH278622   5.401   0.324   1.935  0.2485 -0.0948  0.2377
19044TIP3    H178623   5.488   0.299   1.967  0.3015 -0.8189 -0.4652
19044TIP3    H278624   5.362   0.371   2.009  1.7183  1.3861  0.1404
19045TIP3   OH278625   4.388   3.655   4.870 -0.1318 -0.6589 -0.1093
19045TIP3    H178626   4.394   3.559   4.866 -0.4533 -0.6715 -0.3170
19045TIP3    H278627   4.310   3.676   4.818 -1.7030 -0.4994  2.1483
19046TIP3   OH278628   5.590   4.017  14.850 -0.3396 -0.0318 -0.2700
19046TIP3    H178629   5.640   4.008  14.769  2.1360 -1.8170  1.3195
19046TIP3    H278630   5.632   4.088  14.897 -2.2006  1.4700 -0.7443
19047TIP3   OH278631   0.310   4.823   3.016  0.1915 -0.8625  0.6024
19047TIP3    H178632   0.221   4.788   3.018 -0.0843 -0.1468  1.5631
19047TIP3    H278633   0.310   4.886   2.944  0.0776 -1.2556  0.2581
19048TIP3   OH278634   4.150   0.160  16.081  0.5797  0.0035 -0.7227
19048TIP3    H178635   4.129   0.191  15.993  1.2467  0.9013 -0.5745
19048TIP3    H278636   4.240   0.189  16.096  0.0315  1.0762  0.7729
19049TIP3   OH278637   1.481   5.266   5.800 -0.0303 -0.3962  0.3831
19049TIP3    H178638   1.416   5.304   5.741  1.2517  0.1666 -0.7052
19049TIP3    H278639   1.432   5.200   5.850 -1.3345 -0.2744 -0.6794
19050TIP3   OH278640   6.269   3.419   2.116 -0.1348  0.3858 -0.1915
19050TIP3    H178641   6.201   3.409   2.183 -0.0360 -0.0855 -0.1569
19050TIP3    H278642   6.298   3.330   2.098 -2.0203  0.1904 -2.8256
19051TIP3   OH278643   0.099   6.453   2.368  0.4909 -0.5298 -0.1537
19051TIP3    H178644   0.104   6.365   2.405 -0.8753 -0.4440  0.2779
19051TIP3    H278645   0.042   6.444   2.292 -0.8874  0.2242  0.7415
19052TIP3   OH278646   1.198   2.896  11.065  0.1361 -0.5122 -0.0253
19052TIP3    H178647   1.206   2.826  11.130 -0.0596 -1.9455 -1.4869
19052TIP3    H278648   1.281   2.944  11.071  0.8633 -1.7340  0.0606
19053TIP3   OH278649   2.305   5.964  10.780  0.5005 -0.6320  0.5055
19053TIP3    H178650   2.295   5.888  10.724 -1.9687  0.1504 -0.2179
19053TIP3    H278651   2.274   5.935  10.866  0.1405 -0.6218  0.3798
19054TIP3   OH278652   0.601   3.842  12.768 -0.5310  0.1360  0.2423
19054TIP3    H178653   0.693   3.858  12.748 -0.4164  0.7887  1.2028
19054TIP3    H278654   0.598   3.837  12.864 -1.3127 -1.0927  0.1732
19055TIP3   OH278655   2.329   4.613   5.388 -0.0477 -0.3814 -0.1747
19055TIP3    H178656   2.330   4.518   5.390 -1.0340 -0.3975  0.4403
19055TIP3    H278657   2.292   4.639   5.472  3.0219  0.6579  0.9895
19056TIP3   OH278658   6.613   6.048  15.308  0.7109 -0.1931  0.2423
19056TIP3    H178659   6.637   5.965  15.267 -2.0072 -0.9359 -0.0664
19056TIP3    H278660   6.657   6.115  15.256  2.2692 -1.3699 -0.0248
19057TIP3   OH278661   2.673   6.526   4.144 -0.0472 -0.1621 -0.2230
19057TIP3    H178662   2.747   6.585   4.163 -0.1692 -0.3231  0.8026
19057TIP3    H278663   2.630   6.514   4.229 -0.6699 -0.8625 -0.6317
19058TIP3   OH278664   1.627   2.772   1.934 -0.6008 -0.4154 -0.3403
19058TIP3    H178665   1.693   2.841   1.939 -1.6726  0.6103 -0.0316
19058TIP3    H278666   1.592   2.778   1.846 -0.6083 -0.6618 -0.3565
19059TIP3   OH278667   2.937   4.518   4.109 -0.1401  0.1276  0.4239
19059TIP3    H178668   2.918   4.424   4.106  2.1504 -0.3769 -1.9277
19059TIP3    H278669   2.988   4.530   4.189 -0.5656 -0.5952  0.8111
19060TIP3   OH278670   2.982   4.300   4.479  0.2782  0.2646 -0.1278
19060TIP3    H178671   2.906   4.325   4.426 -2.6790 -1.8787  2.6953
19060TIP3    H278672   2.989   4.368   4.546 -0.9996 -0.8510  1.2134
19061TIP3   OH278673   2.681   5.692  14.053 -0.2147 -0.2073 -0.3764
19061TIP3    H178674   2.648   5.747  14.124 -0.9056  2.5547 -2.6625
19061TIP3    H278675   2.603   5.667  14.004  0.3576 -0.9320 -0.9368
19062TIP3   OH278676   0.093   0.117   3.016 -0.3015 -0.8493 -0.1532
19062TIP3    H178677   0.010   0.092   3.057  0.2616 -3.5771 -0.4979
19062TIP3    H278678   0.153   0.046   3.038  1.7299  0.6590 -0.6073
19063TIP3   OH278679   2.221   2.914   3.397 -0.5135  0.0058 -0.1328
19063TIP3    H178680   2.149   2.964   3.435 -0.5955 -0.0102 -0.2672
19063TIP3    H278681   2.183   2.829   3.376 -0.1089 -0.5164  1.1301
19064TIP3   OH278682   2.953   2.251  14.836  0.1500  0.1441 -0.3200
19064TIP3    H178683   2.982   2.230  14.746 -1.2799  0.2681 -0.8292
19064TIP3    H278684   2.880   2.192  14.851 -0.1156  0.6755  0.4841
19065TIP3   OH278685   0.273   4.866  13.159  0.3703  0.6546  0.4452
19065TIP3    H178686   0.254   4.846  13.251  1.9529 -0.1247  0.6276
19065TIP3    H278687   0.257   4.783  13.113  0.6093  0.7551  0.1821
19066TIP3   OH278688   3.775   0.512  15.958 -0.4049  0.4659  0.5131
19066TIP3    H178689   3.746   0.545  15.873 -1.0539  3.3079  1.7311
19066TIP3    H278690   3.695   0.504  16.010 -0.2536 -3.0022  0.4079
19067TIP3   OH278691   4.284   6.607  14.068  0.3103  0.0135 -0.0745
19067TIP3    H178692   4.236   6.688  14.050 -0.0845 -0.2486 -0.2039
19067TIP3    H278693   4.369   6.637  14.102 -0.2361  0.4670  0.9190
19068TIP3   OH278694   1.599   5.418  11.984 -0.0115 -0.6372 -0.2661
19068TIP3    H178695   1.516   5.457  11.956  0.4153  0.9126  0.5034
19068TIP3    H278696   1.616   5.349  11.919 -2.0199 -1.1934 -0.2724
19069TIP3   OH278697   2.822   4.629   2.517  0.2878  0.1599 -0.4233
19069TIP3    H178698   2.747   4.689   2.513  0.0660 -0.1096 -0.3559
19069TIP3    H278699   2.786   4.549   2.555  0.7632  0.2529  0.2221
19070TIP3   OH278700   3.903   3.206   5.615 -0.5084  0.1540 -0.7283
19070TIP3    H178701   3.955   3.223   5.693  1.1328 -1.3315 -1.4138
19070TIP3    H278702   3.901   3.290   5.569 -0.0331  0.6234  0.0745
19071TIP3   OH278703   4.514   2.240   4.297 -0.4572  0.3319  0.1975
19071TIP3    H178704   4.533   2.182   4.223 -0.3070  0.2350  0.3106
19071TIP3    H278705   4.512   2.182   4.373  0.9893  0.6374  0.5019
19072TIP3   OH278706   0.835   3.522   1.403  0.4367  0.6101 -0.1844
19072TIP3    H178707   0.820   3.447   1.346 -0.1196  1.2198 -0.8638
19072TIP3    H278708   0.865   3.484   1.485  1.2192 -0.2893 -0.8632
19073TIP3   OH278709   0.994   1.372   4.617  0.4868  0.3385 -0.0161
19073TIP3    H178710   0.944   1.434   4.565  0.2003 -0.8903 -1.2586
19073TIP3    H278711   0.995   1.410   4.705  0.9309  2.4324 -0.8666
19074TIP3   OH278712   2.601   2.688  13.286  0.8124 -0.6511 -1.1184
19074TIP3    H178713   2.571   2.599  13.266 -2.0570  0.1871 -1.0875
19074TIP3    H278714   2.652   2.679  13.366 -0.3627 -2.1540 -0.4806
19075TIP3   OH278715   6.032   3.591   5.057  0.3196  0.0191 -0.4016
19075TIP3    H178716   6.011   3.535   5.131 -0.5576  0.5212 -0.2603
19075TIP3    H278717   6.021   3.680   5.091  1.8122  0.2998 -0.5809
19076TIP3   OH278718   1.454   1.577   0.500 -0.2825  0.7710 -0.2927
19076TIP3    H178719   1.437   1.617   0.585  0.2820  1.4095 -0.4695
19076TIP3    H278720   1.465   1.484   0.519 -2.2965  0.5540  0.0308
19077TIP3   OH278721   1.583   0.254   3.686 -0.4083 -0.2656 -0.7761
19077TIP3    H178722   1.579   0.315   3.612  1.3472 -0.8473 -1.3995
19077TIP3    H278723   1.665   0.207   3.674 -0.2970 -0.7014  1.3126
19078TIP3   OH278724   2.915   4.579   4.536 -0.8993  0.2430  0.3711
19078TIP3    H178725   2.844   4.558   4.476 -1.3729  1.2860  0.5355
19078TIP3    H278726   2.916   4.675   4.538 -0.3270  0.2258  1.3512
19079TIP3   OH278727   0.253   6.574   5.031  1.0003  0.2661 -0.3294
19079TIP3    H178728   0.275   6.533   5.115  0.6425 -1.3523 -0.9889
19079TIP3    H278729   0.321   6.640   5.018  0.9190  0.7277  1.3420
19080TIP3   OH278730   2.326   1.768  16.306  0.2087 -0.1011  0.6045
19080TIP3    H178731   2.409   1.752  16.262  1.1209  0.2980  2.0871
19080TIP3    H278732   2.272   1.813  16.241  1.3998  0.2410 -0.1862
19081TIP3   OH278733   1.763   3.695   2.152 -0.2186  0.0182  0.7333
19081TIP3    H178734   1.820   3.623   2.129 -0.4136  0.1900 -0.3473
19081TIP3    H278735   1.689   3.654   2.198  0.4895 -0.2581  1.6550
19082TIP3   OH278736   1.387   1.645   2.725  0.0579 -0.1125  0.3381
19082TIP3    H178737   1.414   1.648   2.633  1.8963 -1.4862  0.7895
19082TIP3    H278738   1.433   1.719   2.766 -0.7793  0.5142  0.1954
19083TIP3   OH278739   4.831   2.714   0.680  0.1097 -0.0203  0.2355
19083TIP3    H178740   4.921   2.691   0.659  1.2987  3.2461  1.1283
19083TIP3    H278741   4.820   2.686   0.771  0.7107  0.7337  0.5509
19084TIP3   OH278742   3.875   1.235   3.531 -0.5989 -0.1434 -0.7868
19084TIP3    H178743   3.936   1.199   3.467 -1.7000  1.0819 -2.6268
19084TIP3    H278744   3.790   1.197   3.507 -0.9999  0.1541  0.1091
19085TIP3   OH278745   4.492   3.128   3.158  0.7552  0.7877  0.0900
19085TIP3    H178746   4.508   3.037   3.182 -1.7437  0.2833  0.1405
19085TIP3    H278747   4.578   3.169   3.158  1.9814 -1.6221 -0.1619
19086TIP3   OH278748   6.159   2.312   3.470 -0.0088 -0.5417 -0.0153
19086TIP3    H178749   6.090   2.318   3.405  0.4949 -1.6039 -0.6674
19086TIP3    H278750   6.122   2.354   3.548 -1.2622 -0.8211 -0.4458
19087TIP3   OH278751   6.848   0.453   5.772 -0.3144 -0.2533 -0.3318
19087TIP3    H178752   6.758   0.421   5.774 -0.0260 -1.2385 -1.7277
19087TIP3    H278753   6.849   0.519   5.703  0.0822 -0.4240 -0.4942
19088TIP3   OH278754   5.977   2.603   2.748 -0.0530 -0.0494 -0.0603
19088TIP3    H178755   5.939   2.623   2.662  0.7689 -0.6016 -0.5727
19088TIP3    H278756   5.962   2.509   2.760 -0.3409  0.0637  0.4969
19089TIP3   OH278757   3.648   4.044  15.115  0.0474  0.3969  0.1976
19089TIP3    H178758   3.616   4.130  15.142  0.4809  1.0316 -1.2542
19089TIP3    H278759   3.735   4.038  15.154  0.1025  0.7028  0.1215
19090TIP3   OH278760   3.072   2.165  16.881  0.1915 -0.1486  0.2483
19090TIP3    H178761   3.077   2.231  16.812  0.4652 -2.6793 -2.3463
19090TIP3    H278762   2.978   2.159  16.901  0.0885  0.5227 -0.0020
19091TIP3   OH278763   1.486   6.008  12.114 -0.0434 -0.2675  0.5775
19091TIP3    H178764   1.504   6.030  12.205  0.7164 -0.0197  0.3708
19091TIP3    H278765   1.467   5.914  12.116 -1.3994  0.0014  1.1798
19092TIP3   OH278766   1.829   2.816   5.698 -0.4515 -0.0857 -0.0137
19092TIP3    H178767   1.834   2.864   5.615 -1.4868 -2.1140 -1.3094
19092TIP3    H278768   1.780   2.875   5.756  1.3634  1.9093 -0.3464
19093TIP3   OH278769   0.194   4.287  14.940 -0.3121 -0.0377  1.0332
19093TIP3    H178770   0.100   4.296  14.924 -0.1980 -0.9454 -0.2902
19093TIP3    H278771   0.199   4.258  15.031 -1.4280 -1.4946  0.6825
19094TIP3   OH278772   1.024   5.316  12.087  0.1497 -0.2624  0.2248
19094TIP3    H178773   1.013   5.311  12.182  0.8811 -0.3861  0.3137
19094TIP3    H278774   0.937   5.338  12.054 -0.2112 -0.6314  0.8884
19095TIP3   OH278775   0.035   5.533   4.303  0.1088  0.2171 -0.0984
19095TIP3    H178776   0.000   5.622   4.308  0.4828  0.2811  2.2908
19095TIP3    H278777  -0.001   5.489   4.380  2.8419 -0.5929  0.8224
19096TIP3   OH278778   3.290   6.490  14.336 -1.0196 -0.2289 -0.4730
19096TIP3    H178779   3.199   6.507  14.363 -1.4343 -1.6295 -0.8695
19096TIP3    H278780   3.289   6.502  14.241 -0.5490  0.6695 -0.3729
19097TIP3   OH278781   0.058   5.459  11.934 -0.2077  0.4491 -0.1996
19097TIP3    H178782   0.014   5.442  12.017  0.5453  0.1638  0.1518
19097TIP3    H278783   0.088   5.550  11.941 -0.2052  0.4475 -0.1892
19098TIP3   OH278784   3.484   4.659  10.804 -0.0353 -0.0876 -0.4198
19098TIP3    H178785   3.544   4.728  10.777  3.0304 -1.9524  1.0385
19098TIP3    H278786   3.506   4.585  10.748 -0.7587 -0.9439  0.3937
19099TIP3   OH278787   4.200   5.006   5.425 -0.1989  0.0856  0.0539
19099TIP3    H178788   4.110   5.003   5.458 -0.6544 -3.0352 -1.1037
19099TIP3    H278789   4.255   5.007   5.503 -1.2460  0.4942  0.7991
19100TIP3   OH278790   2.007   5.659   5.986 -0.0405 -0.3664 -0.1091
19100TIP3    H178791   2.029   5.572   6.020 -0.2226 -0.2075  0.4212
19100TIP3    H278792   2.022   5.718   6.059 -2.2484 -0.2466  0.3260
19101TIP3   OH278793   4.453   4.012  14.965  0.5483  0.5236 -0.8036
19101TIP3    H178794   4.436   4.064  14.886 -1.5432 -0.4102 -1.0316
19101TIP3    H278795   4.478   3.926  14.932  1.3899  0.6021 -0.4118
19102TIP3   OH278796   0.549   0.077   1.686  0.2757 -0.0738 -0.4501
19102TIP3    H178797   0.474   0.119   1.643 -0.7810 -0.5813  0.8045
19102TIP3    H278798   0.626   0.113   1.642 -0.7133 -0.1762 -2.3653
19103TIP3   OH278799   0.532   0.974  12.921  0.3817  0.4380  0.3317
19103TIP3    H178800   0.481   0.922  12.983 -2.1588  1.6758 -0.5907
19103TIP3    H278801   0.598   1.018  12.976  0.6046 -1.3138  1.5469
19104TIP3   OH278802   2.769   0.557  12.002  0.3106 -0.1868 -0.0480
19104TIP3    H178803   2.700   0.559  12.068 -1.1273  2.6723 -1.4388
19104TIP3    H278804   2.740   0.491  11.939  0.5529 -1.3134  0.9891
19105TIP3   OH278805   4.273   5.208   1.263 -0.4050 -0.5876  0.3700
19105TIP3    H178806   4.315   5.155   1.196  1.0852  2.1470 -1.0216
19105TIP3    H278807   4.230   5.279   1.215 -2.6910 -0.6677  2.0895
19106TIP3   OH278808   0.789   2.412   4.838  0.0427 -0.2966 -0.0058
19106TIP3    H178809   0.833   2.446   4.761  0.3353  0.6124  0.5538
19106TIP3    H278810   0.709   2.463   4.845 -0.9016 -1.6026 -0.7302
19107TIP3   OH278811   1.507   1.411  14.015  0.1987 -0.0720  0.1618
19107TIP3    H178812   1.580   1.462  13.981 -0.4213  0.8730  0.2075
19107TIP3    H278813   1.528   1.397  14.107 -0.4784  1.7075  0.6173
19108TIP3   OH278814   4.927   1.271  16.869 -0.2754  0.0358  1.0117
19108TIP3    H178815   4.896   1.300  16.955 -0.2552 -0.4696  1.1884
19108TIP3    H278816   4.874   1.194  16.849  0.0261 -0.1094  0.7701
19109TIP3   OH278817   6.343   5.100   3.721 -0.1364 -0.0510  0.0851
19109TIP3    H178818   6.263   5.148   3.742 -0.4579 -0.6147  0.1788
19109TIP3    H278819   6.405   5.124   3.790  0.4215  1.8491 -1.0025
19110TIP3   OH278820   0.789   4.834   3.971 -0.7024 -0.8011 -0.7162
19110TIP3    H178821   0.700   4.853   3.939 -0.7122  0.3144 -0.1105
19110TIP3    H278822   0.843   4.834   3.893 -1.1609 -0.9819 -1.0383
19111TIP3   OH278823   0.230   3.030   2.634  0.8673  0.4740 -0.1313
19111TIP3    H178824   0.294   3.081   2.684 -1.0245  0.6481  2.3063
19111TIP3    H278825   0.182   2.980   2.700  1.2279 -2.9646 -2.2381
19112TIP3   OH278826   1.480   5.794   4.558  0.1980 -0.7419 -0.3667
19112TIP3    H178827   1.434   5.865   4.602 -1.0461 -1.1231 -0.9901
19112TIP3    H278828   1.572   5.810   4.575 -0.1773 -0.1945  1.3184
19113TIP3   OH278829   0.575   0.070   4.524 -0.6307  0.1568 -0.1845
19113TIP3    H178830   0.668   0.051   4.530 -0.6868 -0.7563 -1.7376
19113TIP3    H278831   0.541   0.048   4.611  0.4797 -0.2013  0.1727
19114TIP3   OH278832   4.051   2.682  11.675 -0.0883 -0.3548 -0.4489
19114TIP3    H178833   4.057   2.751  11.741 -0.5607 -0.8224  0.0881
19114TIP3    H278834   4.015   2.607  11.721  0.1213 -0.8714 -1.1040
19115TIP3   OH278835   1.784   2.120  12.006 -0.3061 -0.0486 -0.5336
19115TIP3    H178836   1.707   2.135  11.951 -0.2549  0.8634 -0.3615
19115TIP3    H278837   1.762   2.041  12.056 -1.9178  1.1857  0.8448
19116TIP3   OH278838   6.717   1.828   2.447 -0.0647  0.3249 -0.0400
19116TIP3    H178839   6.796   1.881   2.445  0.0931  0.1550  1.0565
19116TIP3    H278840   6.665   1.859   2.373  0.6897  0.9557 -0.3139
19117TIP3   OH278841   0.387   4.839   1.466 -0.1984 -0.1324 -0.0690
19117TIP3    H178842   0.400   4.752   1.427  1.7512  0.7309 -1.4650
19117TIP3    H278843   0.435   4.835   1.549 -1.2402 -0.7732  0.5338
19118TIP3   OH278844   5.217   5.113  13.534  0.1239  0.6478  0.0053
19118TIP3    H178845   5.261   5.148  13.456 -2.1017  0.1432 -1.6089
19118TIP3    H278846   5.249   5.166  13.606  2.2307  1.1996 -1.2504
19119TIP3   OH278847   5.325   4.342   0.158 -0.2532  0.2793 -0.2141
19119TIP3    H178848   5.370   4.402   0.098  1.0337 -0.8546 -0.4336
19119TIP3    H278849   5.253   4.394   0.194  0.7221  1.8979 -0.4985
19120TIP3   OH278850   4.140   6.711  13.445  0.3879 -0.0289  0.1922
19120TIP3    H178851   4.092   6.719  13.363  0.6674 -0.4209 -0.0125
19120TIP3    H278852   4.075   6.678  13.508  0.0227  0.8341  0.2806
19121TIP3   OH278853   5.493   4.205  12.923 -0.3746 -0.1624  0.1069
19121TIP3    H178854   5.521   4.149  12.996  0.3470 -0.3416 -0.2981
19121TIP3    H278855   5.440   4.148  12.868  0.2623 -0.4322 -0.2435
19122TIP3   OH278856   0.332   5.029  14.496  0.3327  0.1959 -0.0159
19122TIP3    H178857   0.328   5.085  14.419 -0.3242  0.4085  0.1736
19122TIP3    H278858   0.266   4.961  14.481 -0.5999  0.8825  0.8582
19123TIP3   OH278859   5.770   3.778  16.828 -0.5110  0.6354 -0.1474
19123TIP3    H178860   5.775   3.874  16.832 -0.7474  0.6520 -0.1963
19123TIP3    H278861   5.775   3.758  16.734  0.1611  0.5591 -0.0958
19124TIP3   OH278862   4.472   4.077   2.358 -0.4147  0.2313 -0.4821
19124TIP3    H178863   4.414   4.000   2.361 -0.0676 -0.0095  0.1834
19124TIP3    H278864   4.520   4.074   2.440 -0.1968  1.0158 -0.5767
19125TIP3   OH278865   1.592   4.937  13.054 -0.3026 -0.7384  0.8864
19125TIP3    H178866   1.598   4.852  13.011 -1.4078 -1.0258  1.2881
19125TIP3    H278867   1.547   4.920  13.137 -1.0112  0.3092  0.7379
19126TIP3   OH278868   2.520   3.721   2.572 -0.2887 -0.1034 -0.0771
19126TIP3    H178869   2.567   3.778   2.511  1.1992 -1.3392 -0.1507
19126TIP3    H278870   2.481   3.781   2.635  0.8003  1.0336 -0.4352
19127TIP3   OH278871   2.883   5.554   3.020  0.3066 -0.8144  0.4205
19127TIP3    H178872   2.893   5.550   2.925  2.8105 -0.5915  0.6043
19127TIP3    H278873   2.819   5.624   3.035 -0.4800 -1.1671 -1.0757
19128TIP3   OH278874   4.609   5.487  16.939 -0.3141 -0.4918 -0.1154
19128TIP3    H178875   4.541   5.462  17.002 -1.9517  1.4728 -0.9673
19128TIP3    H278876   4.663   5.551  16.986 -0.4454 -0.3695 -0.1300
19129TIP3   OH278877   2.796   5.367   5.954  0.8867 -0.1921 -0.7423
19129TIP3    H178878   2.800   5.274   5.976  0.9425 -0.2486 -0.9808
19129TIP3    H278879   2.870   5.406   6.000 -0.2926  0.0927  0.9777
19130TIP3   OH278880   4.666   2.149  11.710  0.0114  0.1730 -0.1287
19130TIP3    H178881   4.737   2.161  11.647  0.7886  0.5530  0.7918
19130TIP3    H278882   4.625   2.235  11.715  0.6871  0.4551  0.7316
19131TIP3   OH278883   6.277   4.252  12.171 -0.2547  0.1514 -0.2967
19131TIP3    H178884   6.262   4.309  12.247 -0.8555  0.9897 -1.0164
19131TIP3    H278885   6.351   4.291  12.125  0.3102 -0.5326  0.0096
19132TIP3   OH278886   4.782   6.622   3.157 -0.3137  0.1638  0.1942
19132TIP3    H178887   4.847   6.589   3.219  0.7941  0.9933 -0.4920
19132TIP3    H278888   4.818   6.599   3.071 -1.6547 -0.6534 -0.1739
19133TIP3   OH278889   1.330   5.615   3.296  0.5578 -0.2576 -0.1558
19133TIP3    H178890   1.422   5.636   3.315  0.8024 -0.2627 -1.2921
19133TIP3    H278891   1.282   5.694   3.320  1.0748  0.3859 -1.1635
19134TIP3   OH278892   0.879   6.674   2.895  0.0673  0.3612  0.5215
19134TIP3    H178893   0.821   6.615   2.846 -0.3846 -0.5866  2.1286
19134TIP3    H278894   0.832   6.692   2.976  1.0185  1.4898  0.8465
19135TIP3   OH278895   1.512   1.219   2.747  0.2869 -0.0688 -0.5155
19135TIP3    H178896   1.569   1.141   2.750  0.5458  0.1426  0.2744
19135TIP3    H278897   1.511   1.244   2.655 -0.3664 -1.4174 -0.9056
19136TIP3   OH278898   2.462   3.212   2.780  0.1560  0.5141 -0.3162
19136TIP3    H178899   2.534   3.170   2.828 -0.5203 -2.8688 -1.9731
19136TIP3    H278900   2.503   3.250   2.702  0.2720 -1.0363 -1.0420
19137TIP3   OH278901   0.769   2.191   0.765 -0.4483 -0.3972 -0.3101
19137TIP3    H178902   0.728   2.105   0.754 -0.7974 -0.2765  0.0207
19137TIP3    H278903   0.849   2.173   0.815 -1.0546 -0.4014  0.6716
19138TIP3   OH278904   6.638   0.862   6.096 -0.7690  0.0295  0.1331
19138TIP3    H178905   6.675   0.823   6.017  0.0500  0.0875  0.4807
19138TIP3    H278906   6.592   0.790   6.139 -0.0498 -0.3375  0.2981
19139TIP3   OH278907   6.764   2.431   0.614  0.2499  0.3089 -0.0343
19139TIP3    H178908   6.767   2.419   0.709  1.8392 -0.8088 -0.1813
19139TIP3    H278909   6.847   2.475   0.593  0.8804 -1.3061 -1.0994
19140TIP3   OH278910   0.889   0.345  12.840  0.2850 -0.0451 -0.0637
19140TIP3    H178911   0.945   0.344  12.762  0.5725  1.1621  0.1093
19140TIP3    H278912   0.950   0.335  12.913  0.8352  4.4885  0.3702
19141TIP3   OH278913   3.214   5.781  15.800 -0.2672  0.2798 -0.0264
19141TIP3    H178914   3.205   5.749  15.710 -0.0922  1.1279 -0.3516
19141TIP3    H278915   3.188   5.707  15.854  1.0466 -0.7512 -0.7316
19142TIP3   OH278916   6.843   0.487  11.298  0.2834 -0.1896  0.3491
19142TIP3    H178917   6.903   0.546  11.252 -1.4389 -0.4419 -2.4843
19142TIP3    H278918   6.900   0.419  11.334  1.7653 -0.9464 -2.9917
19143TIP3   OH278919   1.397   3.238  15.616 -0.6636 -0.0991  0.0429
19143TIP3    H178920   1.393   3.255  15.710  0.4098  0.1141  0.0639
19143TIP3    H278921   1.317   3.190  15.596 -0.6754 -0.5543  1.1544
19144TIP3   OH278922   1.235   4.919   6.232  0.3235 -0.3762 -0.3085
19144TIP3    H178923   1.181   4.994   6.256  1.9207  0.4176  0.9499
19144TIP3    H278924   1.230   4.860   6.307  2.0551  0.2188  0.3133
19145TIP3   OH278925   4.325   2.925   4.439 -0.5252  0.2349 -0.1672
19145TIP3    H178926   4.362   2.919   4.351 -1.6417 -0.6568 -0.6027
19145TIP3    H278927   4.250   2.864   4.438 -1.4180  1.2619  0.9516
19146TIP3   OH278928   3.071   2.580   3.277  0.2596 -0.1919 -0.0344
19146TIP3    H178929   2.989   2.627   3.259  0.6857  0.1415 -1.1843
19146TIP3    H278930   3.051   2.489   3.257 -0.5659 -0.5707  2.1889
19147TIP3   OH278931   4.511   3.292  15.404 -0.0071 -0.1405  0.0360
19147TIP3    H178932   4.460   3.284  15.323  0.6273 -1.0516 -0.2979
19147TIP3    H278933   4.496   3.209  15.449  0.8063 -0.2334  0.1502
19148TIP3   OH278934   3.339   1.674   5.803  0.0913 -0.5085  0.2691
19148TIP3    H178935   3.410   1.656   5.741  1.5362 -1.2774  2.0439
19148TIP3    H278936   3.272   1.717   5.750  0.7222 -2.1500 -2.0805
19149TIP3   OH278937   1.444   5.778  15.502  0.1951 -0.1015 -0.1492
19149TIP3    H178938   1.540   5.775  15.505  0.2200  0.5233 -0.2707
19149TIP3    H278939   1.423   5.871  15.494 -0.3320 -0.4210 -3.7566
19150TIP3   OH278940   5.675   2.975  15.306  0.3933  0.3186 -0.2626
19150TIP3    H178941   5.769   2.961  15.322  0.1746 -0.6944  0.2185
19150TIP3    H278942   5.637   2.983  15.394 -0.1366 -0.4542 -0.4132
19151TIP3   OH278943   6.732   5.731   5.199  0.4238  0.8101  0.5113
19151TIP3    H178944   6.679   5.654   5.223  1.3530  0.5766  1.8774
19151TIP3    H278945   6.761   5.712   5.109 -0.8694  0.4372  0.1431
19152TIP3   OH278946   5.688   6.181   1.774 -0.0554 -0.3335 -0.0777
19152TIP3    H178947   5.646   6.216   1.695 -1.0170  0.1607  0.6262
19152TIP3    H278948   5.666   6.088   1.774 -0.3269 -0.2694 -0.2261
19153TIP3   OH278949   2.382   5.810   1.251 -0.5927  0.2866  0.1598
19153TIP3    H178950   2.401   5.892   1.205 -1.3914  0.7528  0.6374
19153TIP3    H278951   2.456   5.753   1.229 -0.8637  0.5456 -1.5446
19154TIP3   OH278952   3.408   6.195   2.682  0.4074  0.2711  0.3442
19154TIP3    H178953   3.485   6.162   2.729  0.8608  0.6506 -0.1130
19154TIP3    H278954   3.355   6.238   2.749  0.4586 -0.2327  0.7101
19155TIP3   OH278955   4.654   6.762  12.132  0.4229  0.0142  0.2232
19155TIP3    H178956   4.722   6.798  12.075  0.2319  0.0930  0.0455
19155TIP3    H278957   4.702   6.731  12.209  1.5522 -4.8983 -2.0222
19156TIP3   OH278958   5.730   4.692  14.581 -0.3142 -0.1506  0.0527
19156TIP3    H178959   5.781   4.717  14.503 -0.3433  0.0289  0.0895
19156TIP3    H278960   5.781   4.622  14.622  0.4380  0.7171  0.6511
19157TIP3   OH278961   2.095   0.754  13.993 -0.2585  0.6687 -0.2477
19157TIP3    H178962   2.075   0.782  14.082 -0.2084  2.3097 -0.7233
19157TIP3    H278963   2.130   0.832  13.951  2.4811 -0.7945 -0.8935
19158TIP3   OH278964   6.156   6.491   0.629 -0.0206  0.5932 -0.2738
19158TIP3    H178965   6.138   6.444   0.710  2.1292 -3.2469 -1.7482
19158TIP3    H278966   6.248   6.519   0.638  0.0559  0.6434 -1.1298
19159TIP3   OH278967   0.557   3.518  14.631 -0.7922  0.0802  0.0055
19159TIP3    H178968   0.643   3.476  14.640 -1.0519 -0.1734  1.5030
19159TIP3    H278969   0.554   3.583  14.701 -2.3335 -0.8382  0.8557
19160TIP3   OH278970   1.635   0.219   0.324 -0.0374 -0.4496 -0.4565
19160TIP3    H178971   1.660   0.252   0.411  1.0763 -1.5192 -0.3448
19160TIP3    H278972   1.544   0.193   0.334 -0.3762  0.8220 -0.0324
19161TIP3   OH278973   1.222   1.691   2.379 -0.1754  0.1229  0.0949
19161TIP3    H178974   1.307   1.717   2.416  0.1912 -0.4089 -0.3422
19161TIP3    H278975   1.157   1.738   2.431  0.2807 -1.0949  1.8606
19162TIP3   OH278976   6.054   4.436   2.411  0.1832  0.2431  0.4418
19162TIP3    H178977   6.106   4.429   2.331 -1.6082  1.6321 -0.9280
19162TIP3    H278978   6.028   4.347   2.431 -0.5300  0.0201 -1.3723
19163TIP3   OH278979   2.066   4.418   2.679  0.2609 -0.2250  0.0747
19163TIP3    H178980   1.998   4.380   2.735  0.0440  0.6596  0.4275
19163TIP3    H278981   2.110   4.342   2.641 -2.3529 -0.8680 -1.9342
19164TIP3   OH278982   6.683   6.279   1.456 -0.5572  0.2654  0.5681
19164TIP3    H178983   6.766   6.243   1.486 -0.5298  0.8017  1.1785
19164TIP3    H278984   6.652   6.218   1.390  1.0059  0.7976 -0.6987
19165TIP3   OH278985   3.984   6.399   5.560 -0.4036 -0.3505  0.4027
19165TIP3    H178986   3.981   6.423   5.653 -2.9734 -1.0480  0.5521
19165TIP3    H278987   4.078   6.388   5.542  0.1280 -1.0409  3.1253
19166TIP3   OH278988   0.055   1.851  12.612  0.0820 -0.1141 -0.1391
19166TIP3    H178989  -0.013   1.793  12.647  0.8619 -0.1428  1.4054
19166TIP3    H278990   0.006   1.918  12.564 -0.8074 -2.6365 -3.0687
19167TIP3   OH278991   4.026   0.102  15.816 -0.1145  0.2931 -0.3057
19167TIP3    H178992   3.946   0.146  15.847 -0.0185  1.2691 -1.3591
19167TIP3    H278993   4.018   0.013  15.849 -2.9589 -0.4359 -2.4706
19168TIP3   OH278994   4.094   0.671   5.439 -0.1392 -0.4038  0.1742
19168TIP3    H178995   4.097   0.766   5.435  0.3959 -0.4582 -1.0087
19168TIP3    H278996   4.112   0.642   5.350  3.5955 -1.6608  1.1458
19169TIP3   OH278997   4.970   5.974  14.914 -0.4550 -0.1907 -0.0744
19169TIP3    H178998   5.040   6.039  14.923 -0.8464  0.2520 -0.1964
19169TIP3    H278999   4.904   6.001  14.978 -0.7640 -0.2798 -0.3548
19170TIP3   OH279000   1.682   4.051  13.778  0.8943  0.2059 -0.5085
19170TIP3    H179001   1.644   4.138  13.792  1.1470  0.5194 -1.6858
19170TIP3    H279002   1.607   3.992  13.777  0.5773  0.6199 -1.2790
19171TIP3   OH279003   3.196   4.908  13.110 -0.8883 -0.6634  0.1758
19171TIP3    H179004   3.134   4.974  13.139  1.9113  1.5857  1.5933
19171TIP3    H279005   3.260   4.956  13.058  0.6240 -2.4938  0.2375
19172TIP3   OH279006   5.353   0.331  13.761  0.3538 -0.3352  0.6302
19172TIP3    H179007   5.411   0.255  13.761 -2.0999 -2.3863 -1.5894
19172TIP3    H279008   5.366   0.370  13.848  4.5508 -0.8794  0.4600
19173TIP3   OH279009   5.948   2.654  16.272  0.2435 -0.3438  0.4259
19173TIP3    H179010   5.870   2.693  16.309 -0.7441 -0.6856 -1.1680
19173TIP3    H279011   5.915   2.579  16.221  1.4950  0.0404 -1.0175
19174TIP3   OH279012   1.486   1.758   3.930 -0.3103  0.4141  0.4611
19174TIP3    H179013   1.409   1.791   3.976  0.1640  0.5324  1.1866
19174TIP3    H279014   1.560   1.795   3.978  0.2110  1.4307 -1.0532
19175TIP3   OH279015   3.999   1.887  13.894 -0.1865  0.2996 -0.2987
19175TIP3    H179016   3.992   1.835  13.974  0.5902 -0.8818 -0.9665
19175TIP3    H279017   4.088   1.872  13.864  0.5512  3.1710  0.2111
19176TIP3   OH279018   3.326   3.424  13.461  0.2562  0.4685 -0.3718
19176TIP3    H179019   3.334   3.336  13.425  0.8694  0.3549  0.0392
19176TIP3    H279020   3.336   3.482  13.385  2.7533  0.2661 -0.2778
19177TIP3   OH279021   2.617   1.922  16.914  0.0557  0.0589  0.4851
19177TIP3    H179022   2.622   2.001  16.861 -0.3005 -0.4312 -0.2904
19177TIP3    H279023   2.595   1.953  17.002  0.5767  0.8693  0.3351
19178TIP3   OH279024   1.388   1.648   3.411  0.1477  0.2307  0.0701
19178TIP3    H179025   1.459   1.616   3.467 -0.3242 -0.9179  0.0317
19178TIP3    H279026   1.308   1.624   3.458 -0.2239  1.0864 -0.1199
19179TIP3   OH279027   0.935   2.743  16.630 -0.8558  0.3340 -0.3276
19179TIP3    H179028   0.935   2.737  16.725  0.1054  2.9210 -0.0958
19179TIP3    H279029   0.846   2.720  16.604 -0.7883 -1.7458  1.0162
19180TIP3   OH279030   3.509   0.131  12.435 -0.5088  0.6472  0.4498
19180TIP3    H179031   3.600   0.159  12.423 -0.2928 -0.1945  0.0104
19180TIP3    H279032   3.460   0.183  12.371 -0.0799 -0.1178 -0.5339
19181TIP3   OH279033   4.400   6.594   4.256 -0.1141  0.8619 -0.0953
19181TIP3    H179034   4.475   6.605   4.197 -0.3948 -0.5720 -0.7585
19181TIP3    H279035   4.379   6.501   4.250 -0.5194  0.7967  1.8404
19182TIP3   OH279036   4.966   3.463   0.577 -0.1714  0.0980  0.6039
19182TIP3    H179037   4.953   3.370   0.597  0.6732  0.0050  0.7598
19182TIP3    H279038   5.054   3.483   0.611 -0.1292  0.8193  0.0966
19183TIP3   OH279039   6.166   0.299  15.053 -0.2288  0.4467  0.1003
19183TIP3    H179040   6.140   0.277  14.963 -1.1643  0.5318  0.3375
19183TIP3    H279041   6.259   0.319  15.047 -0.1241 -0.2356 -0.7303
19184TIP3   OH279042   4.769   2.408   6.525  0.1769  0.3400  0.3507
19184TIP3    H179043   4.760   2.392   6.619  1.3629  1.0928  0.6021
19184TIP3    H279044   4.706   2.478   6.507  2.2619  2.5739  1.2730
19185TIP3   OH279045   1.293   4.976  10.561 -0.3474 -0.0312  0.1893
19185TIP3    H179046   1.272   4.934  10.478 -0.0207  2.0237 -0.9880
19185TIP3    H279047   1.384   4.954  10.577 -0.3829 -0.3504 -0.0405
19186TIP3   OH279048   6.685   4.734  11.582 -0.3140 -0.0897 -0.1048
19186TIP3    H179049   6.619   4.699  11.641 -0.0847  0.8152  0.7108
19186TIP3    H279050   6.767   4.694  11.610 -0.2445  0.1405  0.0229
19187TIP3   OH279051   3.797   3.121  12.409 -0.1386  0.2097 -0.3992
19187TIP3    H179052   3.717   3.098  12.456 -0.0823 -1.1706 -0.9312
19187TIP3    H279053   3.766   3.157  12.326 -0.2188  1.5803  0.2044
19188TIP3   OH279054   4.855   3.354   0.331  0.4450 -0.2351 -0.6136
19188TIP3    H179055   4.895   3.414   0.393  1.8272  0.2222 -1.8807
19188TIP3    H279056   4.913   3.278   0.330  0.1917 -0.4275 -1.0086
19189TIP3   OH279057   0.421   0.320  16.152  0.4357 -0.0173 -0.2175
19189TIP3    H179058   0.334   0.282  16.163  1.4589 -2.5229 -0.1718
19189TIP3    H279059   0.478   0.245  16.136  2.2925  1.7223 -2.4077
19190TIP3   OH279060   0.949   0.818  14.707  0.1435 -0.5922  0.0530
19190TIP3    H179061   1.007   0.822  14.783  1.8687  4.0312 -1.1858
19190TIP3    H279062   0.996   0.762  14.644  0.9218 -0.7465  0.7520
19191TIP3   OH279063   5.271   1.875  12.754 -0.1591 -0.0933 -0.5060
19191TIP3    H179064   5.298   1.902  12.666  0.8536 -0.5743 -0.3684
19191TIP3    H279065   5.259   1.780  12.747  0.5965 -0.2414  0.0170
19192TIP3   OH279066   0.359   6.191  12.791  0.0217  0.4416 -0.0314
19192TIP3    H179067   0.368   6.196  12.886 -1.4957 -0.0898  0.1618
19192TIP3    H279068   0.421   6.124  12.765  1.3065  1.4114  0.4211
19193TIP3   OH279069   5.446   1.376  12.714  0.1054 -0.3930  0.2738
19193TIP3    H179070   5.509   1.449  12.716 -0.4219  0.0605  1.4368
19193TIP3    H279071   5.444   1.348  12.622 -0.1101  1.4410 -0.3249
19194TIP3   OH279072   4.057   6.063  15.288  0.4449 -1.0550  0.2946
19194TIP3    H179073   4.124   5.995  15.291  0.4969 -1.0040  0.2990
19194TIP3    H279074   4.068   6.112  15.370  0.7758 -0.6940  0.0362
19195TIP3   OH279075   6.205   6.348   1.011 -0.1629 -0.4817  0.1081
19195TIP3    H179076   6.205   6.317   1.102  0.5094  1.6188  0.8727
19195TIP3    H279077   6.119   6.389   1.001 -0.8566 -2.0889 -0.7364
19196TIP3   OH279078   6.649   1.427  15.689 -0.0397 -0.7484 -0.1581
19196TIP3    H179079   6.660   1.428  15.594 -0.5246 -0.6644 -0.2178
19196TIP3    H279080   6.630   1.335  15.710  1.1499 -0.9759 -0.0020
19197TIP3   OH279081   3.230   4.553  14.749 -0.8877 -0.4960  0.4396
19197TIP3    H179082   3.325   4.546  14.733 -0.6371  1.9306  0.5831
19197TIP3    H279083   3.190   4.512  14.673  0.2967 -0.1454 -0.3970
19198TIP3   OH279084   5.106   3.987  12.730  0.2424  0.0749 -0.0504
19198TIP3    H179085   5.161   4.066  12.732  0.6121 -0.1990  0.7514
19198TIP3    H279086   5.140   3.936  12.657 -0.4863  0.9841 -1.0833
19199TIP3   OH279087   5.989   4.337   3.263  0.0998  0.2121  0.3959
19199TIP3    H179088   5.928   4.387   3.317  0.2555  1.8706 -0.8985
19199TIP3    H279089   5.969   4.363   3.173 -0.3204 -2.6511 -0.4487
19200TIP3   OH279090   1.294   0.647  15.337  0.3678  0.0518  0.2489
19200TIP3    H179091   1.284   0.557  15.368 -1.2769  0.1265  0.0337
19200TIP3    H279092   1.349   0.640  15.259  3.0840 -0.3355  2.0707
19201TIP3   OH279093   4.992   0.245  16.242 -0.5532 -0.1486  0.8614
19201TIP3    H179094   4.930   0.172  16.251 -0.0074 -0.5907  1.1836
19201TIP3    H279095   4.997   0.283  16.330 -1.6791  0.9999  0.4472
19202TIP3   OH279096   4.719   5.144  11.171 -0.5951 -0.1892 -0.7812
19202TIP3    H179097   4.689   5.222  11.124 -0.2802  0.4536  0.0570
19202TIP3    H279098   4.798   5.117  11.124 -0.2294  0.5037 -0.5928
19203TIP3   OH279099   6.150   5.949  15.834  0.3901 -0.1600 -0.0193
19203TIP3    H179100   6.183   5.967  15.922  0.4932  0.6636 -0.2148
19203TIP3    H279101   6.140   6.036  15.794 -1.1916 -0.4264 -0.2724
19204TIP3   OH279102   1.762   4.460  15.956 -0.2706  0.2672  0.4313
19204TIP3    H179103   1.849   4.483  15.990 -0.6884 -0.7708  2.3439
19204TIP3    H279104   1.780   4.398  15.885  0.5710 -0.4325  1.2193
19205TIP3   OH279105   4.999   5.205  14.687  0.7022 -0.0880 -0.2997
19205TIP3    H179106   5.033   5.152  14.614  2.0928 -0.7721  0.7980
19205TIP3    H279107   4.933   5.262  14.647  1.6785 -0.1998 -2.1450
19206TIP3   OH279108   3.719   1.822  11.383  0.1207  0.2197 -0.1014
19206TIP3    H179109   3.736   1.811  11.289 -0.2316 -0.6705 -0.0769
19206TIP3    H279110   3.762   1.904  11.406 -1.6166  1.5776 -1.4905
19207TIP3   OH279111   6.241   5.176  14.231 -0.3951  0.3351  0.4124
19207TIP3    H179112   6.161   5.136  14.267 -0.2569  1.1795  1.7636
19207TIP3    H279113   6.249   5.139  14.143 -1.6558 -0.6242  0.6597
19208TIP3   OH279114   4.754   2.499  13.657  0.5088 -0.2537  0.2144
19208TIP3    H179115   4.689   2.557  13.616  0.4397 -0.4092  0.1022
19208TIP3    H279116   4.712   2.413  13.659  1.1718 -0.6462 -1.0343
19209TIP3   OH279117   6.101   3.331  12.893  0.1447 -0.1951 -0.6577
19209TIP3    H179118   6.076   3.369  12.977  0.0058  0.0279 -0.7982
19209TIP3    H279119   6.025   3.281  12.865  0.6283 -1.2922 -0.0706
19210TIP3   OH279120   6.335   0.857   2.004 -0.0599  0.1370  0.0713
19210TIP3    H179121   6.293   0.821   1.926  0.4009  0.4954 -0.3391
19210TIP3    H279122   6.408   0.908   1.971  0.4511 -0.1349  0.7667
19211TIP3   OH279123   3.167   0.542  15.321 -0.2407  0.3358  0.1097
19211TIP3    H179124   3.168   0.636  15.304  0.4372  0.4883  0.9391
19211TIP3    H279125   3.074   0.521  15.334 -0.3107  1.0960  0.9633
19212TIP3   OH279126   0.595   0.105   6.065 -0.0481 -0.2809  0.9171
19212TIP3    H179127   0.646   0.089   5.986  0.4274 -0.2446  1.2118
19212TIP3    H279128   0.508   0.129   6.033  0.2602  0.1711  0.3889
19213TIP3   OH279129   3.818   3.642   3.552  0.5938 -0.9359 -0.1149
19213TIP3    H179130   3.833   3.723   3.600  1.5447 -1.0527 -0.2025
19213TIP3    H279131   3.773   3.670   3.472  0.3889 -0.5684  0.1250
19214TIP3   OH279132   1.098   0.212  15.026 -0.2201  0.1371  0.1490
19214TIP3    H179133   1.135   0.294  14.992  2.5817 -0.7639  0.7346
19214TIP3    H279134   1.024   0.194  14.969  1.6047  0.9570 -2.7231
19215TIP3   OH279135   2.514   2.301  13.568  0.5458  0.0173 -0.0435
19215TIP3    H179136   2.483   2.362  13.634  0.2848 -1.6635  1.4766
19215TIP3    H279137   2.596   2.340  13.536 -0.0549  1.5563  0.2112
19216TIP3   OH279138   1.105   6.498   5.324  0.3949 -0.2905  0.4521
19216TIP3    H179139   1.146   6.581   5.300  0.8492 -0.7205 -0.3162
19216TIP3    H279140   1.115   6.492   5.419 -0.3387  0.8866  0.6253
19217TIP3   OH279141   2.014   3.041   6.062 -0.0898  0.7181 -0.6181
19217TIP3    H179142   1.919   3.034   6.074  0.0664 -0.1758  0.2435
19217TIP3    H279143   2.051   3.004   6.142  0.9934  0.5173 -1.1908
19218TIP3   OH279144   1.387   6.736  12.965 -0.0180 -0.3873  0.3342
19218TIP3    H179145   1.419   6.793  13.035  0.0530  0.6011 -0.4673
19218TIP3    H279146   1.445   6.660  12.966  1.2627  0.5486  0.0522
19219TIP3   OH279147   1.534   3.714  15.442  0.1373 -0.2732 -0.2696
19219TIP3    H179148   1.450   3.670  15.428  0.1068  0.0613 -1.1925
19219TIP3    H279149   1.598   3.656  15.400  0.2510 -0.0374 -0.4191
19220TIP3   OH279150   3.206   5.806  16.472 -0.9874 -0.0643 -0.4340
19220TIP3    H179151   3.285   5.769  16.431 -0.1377  1.5816 -0.3641
19220TIP3    H279152   3.186   5.745  16.543  1.1219  0.2390  0.4927
19221TIP3   OH279153   6.577   5.880  12.889  0.5284 -0.4792  0.7658
19221TIP3    H179154   6.589   5.798  12.938 -0.3889 -1.0508  0.0753
19221TIP3    H279155   6.636   5.871  12.815  1.4755  0.1246  1.4269
19222TIP3   OH279156   3.602   0.507   3.484 -0.2667 -0.6724  0.2441
19222TIP3    H179157   3.631   0.426   3.443 -0.7432  0.3621 -2.3033
19222TIP3    H279158   3.507   0.497   3.492 -0.1340 -1.0725  1.7029
19223TIP3   OH279159   2.829   0.723   1.746 -0.4411 -0.4506 -0.0967
19223TIP3    H179160   2.874   0.807   1.755 -0.5749 -0.3593 -0.2512
19223TIP3    H279161   2.878   0.676   1.679 -0.0490 -0.7136  0.3758
19224TIP3   OH279162   0.620   5.106   3.052  0.0271  0.2482  0.2671
19224TIP3    H179163   0.598   5.153   3.132 -1.2364 -0.3345  0.2920
19224TIP3    H279164   0.560   5.141   2.986 -0.6107 -0.9484  0.1693
19225TIP3   OH279165   5.359   3.535  12.833 -0.4928 -0.5132 -0.0218
19225TIP3    H179166   5.269   3.520  12.803 -1.0362  2.4452 -0.1539
19225TIP3    H279167   5.400   3.586  12.762  1.0265 -1.0097  0.4545
19226TIP3   OH279168   2.852   4.549  11.293 -0.4439 -0.3754 -0.6866
19226TIP3    H179169   2.860   4.641  11.319  0.0874 -0.8779  1.0610
19226TIP3    H279170   2.828   4.552  11.200 -0.5563  1.5182 -0.6290
19227TIP3   OH279171   1.363   6.582   2.526 -0.1638 -0.2318  0.3890
19227TIP3    H179172   1.365   6.528   2.604  0.9374  0.3683  0.8063
19227TIP3    H279173   1.456   6.591   2.501 -0.5136 -0.8378 -1.2876
19228TIP3   OH279174   2.145   2.715  12.410  0.1896  0.1095 -0.2938
19228TIP3    H179175   2.199   2.643  12.443  1.8772  0.9874 -1.0346
19228TIP3    H279176   2.178   2.731  12.322 -1.1896  0.7982 -0.7112
19229TIP3   OH279177   1.092   0.150   4.616  0.0501 -0.0668 -0.2564
19229TIP3    H179178   1.177   0.151   4.572  0.2690  0.8918  0.1559
19229TIP3    H279179   1.102   0.084   4.685 -0.1087 -1.1668 -1.2657
19230TIP3   OH279180   0.127   0.026  14.673 -0.1725 -0.0059  0.5288
19230TIP3    H179181   0.054  -0.013  14.624 -0.1354  0.0711  0.4106
19230TIP3    H279182   0.102   0.018  14.765 -0.4143  0.1884  0.4816
19231TIP3   OH279183   2.999   4.683  14.796  0.0791 -0.0947  0.0668
19231TIP3    H179184   2.933   4.614  14.792  0.1911 -0.4439  2.5701
19231TIP3    H279185   3.082   4.638  14.781 -0.0676  0.0558 -1.3396
19232TIP3   OH279186   3.089   6.662   0.687  0.3365 -0.5393 -0.3299
19232TIP3    H179187   3.077   6.606   0.763  1.0268  1.5101  1.3750
19232TIP3    H279188   3.145   6.611   0.628  0.4358 -1.8621  0.8662
19233TIP3   OH279189   2.835   3.474   6.057 -0.3801 -0.0550 -0.3376
19233TIP3    H179190   2.880   3.441   5.979 -0.4227 -1.4343  0.2009
19233TIP3    H279191   2.835   3.401   6.118 -1.3817  0.6294  0.5268
19234TIP3   OH279192   1.873   5.435  16.191 -0.4887  0.1561  0.2066
19234TIP3    H179193   1.895   5.383  16.114 -0.4138  2.1258 -1.1675
19234TIP3    H279194   1.957   5.470  16.221 -0.6485  0.2612  0.5329
19235TIP3   OH279195   3.954   6.484   6.247  0.0665  0.4532 -0.1962
19235TIP3    H179196   4.022   6.435   6.294 -0.0881 -0.2692 -0.7035
19235TIP3    H279197   3.873   6.436   6.266 -0.2373  1.0652  0.0627
19236TIP3   OH279198   0.253   3.431  12.009  0.5400  0.1868 -0.2491
19236TIP3    H179199   0.238   3.396  11.921 -1.0994  2.0269 -0.7813
19236TIP3    H279200   0.329   3.383  12.041 -0.4004 -2.4322 -1.6142
19237TIP3   OH279201   3.947   1.566  12.209 -0.2016 -0.5911  0.3429
19237TIP3    H179202   3.862   1.524  12.218 -0.1983 -0.7796 -0.4555
19237TIP3    H279203   3.926   1.657  12.186 -0.2308  0.1289  2.8744
19238TIP3   OH279204   3.976   3.308  11.217 -0.0832 -0.7592  0.0873
19238TIP3    H179205   4.070   3.293  11.204  0.1049  0.2892  0.2022
19238TIP3    H279206   3.963   3.401  11.197 -1.1966 -1.0152 -0.4852
19239TIP3   OH279207   3.742   2.515  11.421 -0.0532 -0.3233 -0.3936
19239TIP3    H179208   3.816   2.508  11.361 -1.0696 -0.8248 -1.6186
19239TIP3    H279209   3.718   2.607  11.418 -1.1993 -0.6280 -2.1733
19240TIP3   OH279210   2.091   4.630  12.408  0.0676 -0.0098 -0.3820
19240TIP3    H179211   2.175   4.641  12.364  0.0442 -1.3692 -0.8198
19240TIP3    H279212   2.080   4.535  12.415 -2.6586  0.0050 -2.7512
19241TIP3   OH279213   0.795   3.500  16.805 -0.0502  0.2001  0.6742
19241TIP3    H179214   0.786   3.575  16.747 -1.1591 -1.4860 -1.4949
19241TIP3    H279215   0.880   3.462  16.783 -1.2054 -1.4636 -1.2994
19242TIP3   OH279216   1.204   3.994  12.284  0.2210 -0.1515 -0.0008
19242TIP3    H179217   1.185   4.080  12.321  0.3393 -0.2445  0.2800
19242TIP3    H279218   1.295   3.977  12.310  0.7111  0.2983 -1.3303
19243TIP3   OH279219   6.520   5.358  13.716  0.1222  0.1038 -0.3526
19243TIP3    H179220   6.611   5.339  13.740  0.3561 -0.0253 -1.2936
19243TIP3    H279221   6.515   5.337  13.623 -1.7211 -3.1390  0.3146
19244TIP3   OH279222   4.755   3.606  14.517 -0.5681 -0.1926 -0.4525
19244TIP3    H179223   4.712   3.608  14.602 -0.1160  0.0919 -0.2270
19244TIP3    H279224   4.845   3.579  14.536 -1.0445 -2.3873 -1.0918
19245TIP3   OH279225   3.761   1.328  13.232  0.0416 -0.1059  0.3739
19245TIP3    H179226   3.853   1.346  13.212  0.0867  0.2945  0.8961
19245TIP3    H279227   3.764   1.253  13.292  0.1002  0.5200  1.1726
19246TIP3   OH279228   2.515   1.946  14.581  0.1976  0.3862  0.1830
19246TIP3    H179229   2.539   1.982  14.496 -2.6830  1.7302 -0.1950
19246TIP3    H279230   2.510   2.022  14.639  0.1940 -0.2569  1.0499
19247TIP3   OH279231   6.789   4.380  12.748  0.1024 -0.1400 -0.1789
19247TIP3    H179232   6.790   4.345  12.838  0.5785  1.5471  0.5014
19247TIP3    H279233   6.879   4.371  12.718 -0.1127 -0.9529 -0.6118
19248TIP3   OH279234   1.220   6.400  14.896 -0.4756  0.1217 -0.0072
19248TIP3    H179235   1.242   6.470  14.958 -0.9992 -0.7597  1.2211
19248TIP3    H279236   1.281   6.330  14.916 -0.3389 -0.0000 -0.8296
19249TIP3   OH279237   4.305   3.698   2.503 -0.5284 -0.3102 -0.1114
19249TIP3    H179238   4.258   3.776   2.475 -1.4658 -1.0409 -0.6471
19249TIP3    H279239   4.257   3.625   2.462  0.1284 -1.1837  0.6308
19250TIP3   OH279240   2.404   6.073  16.611  0.0901 -0.0237 -0.0902
19250TIP3    H179241   2.333   6.062  16.675 -0.9612  2.8651 -0.5750
19250TIP3    H279242   2.468   6.006  16.634 -0.9828 -0.1719  2.9256
19251TIP3   OH279243   4.623   4.216   3.381 -0.1151 -0.0603  0.3078
19251TIP3    H179244   4.655   4.142   3.432 -1.7092 -1.7589 -0.9936
19251TIP3    H279245   4.538   4.238   3.420  0.5403  1.4499  0.9749
19252TIP3   OH279246   4.469   2.000  11.508  0.0551  0.7968  0.7852
19252TIP3    H179247   4.512   1.931  11.458 -2.5143 -0.1518 -0.2900
19252TIP3    H279248   4.534   2.027  11.573  1.9901 -0.9313 -0.3195
19253TIP3   OH279249   4.494   4.981   1.431  0.1178  0.4592 -0.1779
19253TIP3    H179250   4.478   5.075   1.435  1.2358  0.5976  1.6606
19253TIP3    H279251   4.588   4.971   1.443 -0.1624 -0.9560  1.1890
19254TIP3   OH279252   5.579   3.125   2.580 -0.2668 -0.4313  0.2800
19254TIP3    H179253   5.629   3.044   2.589  0.4531  0.1467  2.0035
19254TIP3    H279254   5.581   3.145   2.487  2.2007 -0.7671  0.2004
19255TIP3   OH279255   2.095   6.803  14.661 -0.5064 -0.2297  0.0636
19255TIP3    H179256   2.067   6.843  14.744 -0.3392 -0.3590  0.1829
19255TIP3    H279257   2.109   6.711  14.682 -0.6739 -0.3069 -0.1605
19256TIP3   OH279258   6.183   0.655   0.964 -0.4588 -0.2949  0.0440
19256TIP3    H179259   6.194   0.570   1.007 -2.9886 -0.4155  0.6648
19256TIP3    H279260   6.098   0.648   0.921 -0.6453  1.8707 -0.0201
19257TIP3   OH279261   6.649   0.625   1.155 -0.7700 -0.3651 -0.5931
19257TIP3    H179262   6.724   0.570   1.179 -1.1965 -0.1095  1.5859
19257TIP3    H279263   6.587   0.612   1.227 -2.3443  0.3151 -1.7798
19258TIP3   OH279264   5.372   5.209   1.892 -0.1925  0.3691 -0.0731
19258TIP3    H179265   5.298   5.223   1.833  0.6565  0.9423 -1.0252
19258TIP3    H279266   5.422   5.139   1.851 -0.4138 -0.3131  0.7914
19259TIP3   OH279267   6.726   6.769   3.856  0.2833  0.0073  0.0481
19259TIP3    H179268   6.632   6.772   3.842  0.4486 -0.0725 -1.2527
19259TIP3    H279269   6.741   6.818   3.937 -0.8767 -0.0712  0.3155
19260TIP3   OH279270   0.127   3.761  16.647  0.2562 -0.0404 -0.2063
19260TIP3    H179271   0.215   3.784  16.618  0.0652 -1.8695 -2.4667
19260TIP3    H279272   0.069   3.802  16.582 -0.4543 -0.4130  0.1836
19261TIP3   OH279273   4.355   3.270  11.896 -0.1518  0.3413  0.4294
19261TIP3    H179274   4.355   3.275  11.991  0.0057 -0.8081  0.5012
19261TIP3    H279275   4.293   3.337  11.868  0.2907  1.1385  1.3042
19262TIP3   OH279276   5.845   2.106   1.030 -0.1061 -0.5361 -0.3080
19262TIP3    H179277   5.889   2.160   0.965  1.4691 -0.3085  0.8735
19262TIP3    H279278   5.897   2.026   1.035  0.8983  0.1502  1.8294
19263TIP3   OH279279   3.455   1.666   0.696 -0.2301  0.2211 -0.0392
19263TIP3    H179280   3.365   1.678   0.664 -0.0345  0.6727 -0.4411
19263TIP3    H279281   3.510   1.697   0.624  0.2158  3.2065  1.4007
19264TIP3   OH279282   2.987   3.526   5.329  0.1129  0.2691 -0.0541
19264TIP3    H179283   2.915   3.506   5.389  0.9353 -0.7321  0.6496
19264TIP3    H279284   2.999   3.445   5.279 -1.0554  1.3306 -2.1569
19265TIP3   OH279285   4.202   0.693   0.445 -0.3696 -0.2981  0.8223
19265TIP3    H179286   4.236   0.604   0.457 -1.7144 -0.6876  1.9824
19265TIP3    H279287   4.106   0.682   0.442 -0.5234  0.9911 -0.2260
19266TIP3   OH279288   4.044   0.256   0.528 -0.2489  0.6023  0.3194
19266TIP3    H179289   4.080   0.210   0.603 -0.5735 -0.1540  0.0242
19266TIP3    H279290   4.000   0.332   0.566  1.5569  1.5243  0.6898
19267TIP3   OH279291   6.096   1.251  16.517 -0.2286  0.7453  0.4292
19267TIP3    H179292   6.097   1.188  16.588  0.9590  0.2195 -0.0249
19267TIP3    H279293   6.164   1.221  16.457  0.5778  2.5881  0.3304
19268TIP3   OH279294   1.358   6.714  16.125  0.1724 -0.7574 -0.0876
19268TIP3    H179295   1.298   6.785  16.148 -0.3643 -0.8786 -1.0943
19268TIP3    H279296   1.371   6.666  16.207 -0.6731 -0.4108  0.2536
19269TIP3   OH279297   2.306   0.649  11.839  0.5370 -0.0579  0.3799
19269TIP3    H179298   2.312   0.585  11.769 -3.7984 -0.4640  0.0945
19269TIP3    H279299   2.305   0.734  11.795 -0.5831 -0.2225  0.0709
19270TIP3   OH279300   0.865   4.820  14.908 -0.6121 -0.8329  0.0061
19270TIP3    H179301   0.781   4.809  14.954 -0.3884 -2.0385  0.1402
19270TIP3    H279302   0.931   4.812  14.976 -0.3417 -1.0716 -0.2808
19271TIP3   OH279303   4.973   1.345  11.071  0.1158 -0.0417 -0.2461
19271TIP3    H179304   4.890   1.353  11.118 -0.4796 -1.1798 -1.0477
19271TIP3    H279305   5.028   1.292  11.129  0.6522  1.4802  0.7054
19272TIP3   OH279306   2.424   6.005   4.691 -0.5698  0.7780  0.6069
19272TIP3    H179307   2.480   6.077   4.661 -0.8669  0.6820 -0.1925
19272TIP3    H279308   2.424   5.943   4.619 -0.5428  0.0996  1.1863
19273TIP3   OH279309   3.415   1.939  11.846 -0.1414  0.3279 -0.2200
19273TIP3    H179310   3.373   1.866  11.891  0.8509 -0.1966 -0.1088
19273TIP3    H279311   3.422   1.910  11.755  0.9139 -0.0545 -0.0410
19274TIP3   OH279312   1.373   3.560   2.708 -0.1104  0.0652 -0.5216
19274TIP3    H179313   1.286   3.539   2.675 -0.1813 -0.5788  0.0483
19274TIP3    H279314   1.406   3.628   2.649  0.4192 -2.1362 -2.9550
19275TIP3   OH279315   6.712   0.947  15.617  0.1878  0.4800  0.0255
19275TIP3    H179316   6.699   0.857  15.649  1.8421  0.3190  0.3403
19275TIP3    H279317   6.763   0.989  15.687  1.7981  0.8370 -1.3035
19276TIP3   OH279318   3.356   4.081   0.370 -0.4272  0.1840  0.3316
19276TIP3    H179319   3.433   4.058   0.423  0.0135  0.8570  0.0093
19276TIP3    H279320   3.292   4.013   0.389  0.0715 -0.1121  0.9956
19277TIP3   OH279321   0.835   3.593  12.047 -0.1456 -0.3448  0.0847
19277TIP3    H179322   0.871   3.578  12.134  0.2344 -1.7776 -0.2864
19277TIP3    H279323   0.768   3.525  12.037 -0.6633  0.2352 -0.4909
19278TIP3   OH279324   3.241   3.248   4.233 -0.1236 -0.0935  0.8415
19278TIP3    H179325   3.202   3.332   4.209  0.3702  0.0564  0.5531
19278TIP3    H279326   3.220   3.237   4.326 -1.2155 -0.2200  0.5875
19279TIP3   OH279327   3.150   0.865   4.964  0.3432 -0.4401  0.2464
19279TIP3    H179328   3.165   0.959   4.959 -3.1634  0.2720  0.7221
19279TIP3    H279329   3.089   0.846   4.894  1.7656 -2.6558 -0.5278
19280TIP3   OH279330   5.344   1.944  14.966 -0.2291 -1.5323  0.2232
19280TIP3    H179331   5.365   1.990  15.048  0.3169  1.2555 -1.3569
19280TIP3    H279332   5.248   1.941  14.964 -0.3595  0.7970 -0.1728
19281TIP3   OH279333   1.414   1.771  12.525  0.4313 -0.5698 -0.0089
19281TIP3    H179334   1.368   1.694  12.490  1.7491 -1.5457  0.3014
19281TIP3    H279335   1.356   1.805  12.593 -0.4672 -0.8966 -0.6001
19282TIP3   OH279336   4.414   4.094   1.707 -0.3292  0.5430 -0.7904
19282TIP3    H179337   4.497   4.127   1.742  0.0091 -0.6857 -0.4069
19282TIP3    H279338   4.360   4.173   1.698 -0.2941  1.0156  2.0735
19283TIP3   OH279339   4.119   2.766  13.021  0.4762 -0.0301  0.3302
19283TIP3    H179340   4.137   2.686  12.971  1.1715  1.4675 -1.9665
19283TIP3    H279341   4.201   2.785  13.066  0.9252  0.3721 -0.6318
19284TIP3   OH279342   6.272   6.437  14.311  0.5779  0.1360  0.0413
19284TIP3    H179343   6.230   6.406  14.391  0.6245 -0.7354 -0.2590
19284TIP3    H279344   6.214   6.507  14.280 -0.7746 -1.1319 -0.4358
19285TIP3   OH279345   0.345   0.505   2.696  0.7378 -0.1301  0.0524
19285TIP3    H179346   0.370   0.490   2.605  1.1326  0.4879  0.0588
19285TIP3    H279347   0.322   0.417   2.729  3.8838 -0.9443  0.3574
19286TIP3   OH279348   3.191   0.833  14.781 -0.0176 -0.2889 -0.3058
19286TIP3    H179349   3.121   0.786  14.827  0.7978 -0.1517  1.1580
19286TIP3    H279350   3.151   0.916  14.755 -0.6075 -0.5222 -0.1631
19287TIP3   OH279351   1.510   4.994   0.941  0.3295 -0.6288  0.6685
19287TIP3    H179352   1.536   4.917   0.890  0.1582 -0.5864  0.5178
19287TIP3    H279353   1.559   5.066   0.901 -0.5693 -0.4203 -0.0934
19288TIP3   OH279354   4.158   6.484   3.042 -0.0362 -0.0580  0.1677
19288TIP3    H179355   4.180   6.431   2.966 -3.8418 -1.2099 -0.3266
19288TIP3    H279356   4.079   6.531   3.017  1.4219  3.6008  1.7064
19289TIP3   OH279357   0.600   1.912  13.156 -0.2877 -0.7189 -0.0216
19289TIP3    H179358   0.587   1.837  13.097 -1.1856 -0.7696  0.2321
19289TIP3    H279359   0.600   1.874  13.244  0.0805 -0.5188  0.0662
19290TIP3   OH279360   1.050   2.923   0.784 -0.0913 -0.4082  0.8077
19290TIP3    H179361   1.038   2.981   0.860  0.5507 -1.1023  1.4569
19290TIP3    H279362   0.981   2.858   0.793 -0.1789 -0.3346  0.6540
19291TIP3   OH279363   4.742   5.127   1.751 -0.3485  0.1516 -0.0033
19291TIP3    H179364   4.794   5.098   1.676 -0.2579  0.6110 -0.1217
19291TIP3    H279365   4.798   5.189   1.797 -0.2448 -0.4417  0.6870
19292TIP3   OH279366   4.514   2.399  12.779 -0.0193  0.4765 -0.0379
19292TIP3    H179367   4.497   2.366  12.691 -1.2880 -0.2061  0.4393
19292TIP3    H279368   4.564   2.479  12.766 -0.4890  0.5584 -1.3873
19293TIP3   OH279369   5.750   6.655  16.054 -0.0884  0.0068  0.2162
19293TIP3    H179370   5.706   6.740  16.048  0.4434  0.2512 -0.2455
19293TIP3    H279371   5.786   6.640  15.966 -0.6604 -0.9611  0.1236
19294TIP3   OH279372   2.345   4.985  12.448  1.1140 -0.7384  0.0668
19294TIP3    H179373   2.434   5.011  12.425  1.3095  0.5898  2.0920
19294TIP3    H279374   2.331   5.021  12.535 -1.0943 -1.7268  0.1906
19295TIP3   OH279375   6.463   4.174  13.720 -0.2126 -0.8515  0.0979
19295TIP3    H179376   6.556   4.163  13.698 -0.3392 -1.2638 -0.2476
19295TIP3    H279377   6.456   4.265  13.749 -0.1815 -0.0060 -2.3489
19296TIP3   OH279378   5.608   2.811  15.915 -0.0224 -0.1949  0.8384
19296TIP3    H179379   5.581   2.754  15.986  0.7303 -3.1426 -1.0715
19296TIP3    H279380   5.702   2.793  15.905  0.1277  1.0152 -0.1633
19297TIP3   OH279381   0.962   3.836  11.969  0.6733 -0.0006  0.4192
19297TIP3    H179382   1.014   3.756  11.968  0.6534 -0.0145  0.4828
19297TIP3    H279383   1.006   3.895  11.908  0.6907 -0.0581  0.3766
19298TIP3   OH279384   4.104   5.153   1.464 -0.1115  0.6720  0.0235
19298TIP3    H179385   4.092   5.242   1.498  3.9831  0.9635  1.1896
19298TIP3    H279386   4.168   5.162   1.394 -1.0359 -1.1892 -1.1303
19299TIP3   OH279387   4.794   5.914  14.470 -0.1035  0.1854 -0.3256
19299TIP3    H179388   4.749   5.923  14.386 -0.2086  0.6702 -0.2202
19299TIP3    H279389   4.842   5.996  14.481 -1.0327  0.6293  0.6297
19300TIP3   OH279390   6.731   4.152  15.725  0.1986 -0.0603 -0.5853
19300TIP3    H179391   6.775   4.102  15.655 -0.0528 -0.8083 -0.2239
19300TIP3    H279392   6.796   4.215  15.755  0.3676  0.1533 -1.3781
19301TIP3   OH279393   4.837   6.208   3.705  0.0660 -0.3448  0.2727
19301TIP3    H179394   4.818   6.268   3.777  0.6287 -0.8683  0.8788
19301TIP3    H279395   4.847   6.264   3.628  0.8296  0.3717  0.8725
19302TIP3   OH279396   5.093   6.085  14.405  0.1125  0.2462 -0.1149
19302TIP3    H179397   5.050   6.129  14.479 -1.3589  0.8019 -1.2463
19302TIP3    H279398   5.095   5.993  14.430 -1.8088  0.1995 -0.0314
19303TIP3   OH279399   0.298   0.451   4.896 -0.2606  0.2385  0.1638
19303TIP3    H179400   0.280   0.374   4.841  1.2186 -0.8920  1.1945
19303TIP3    H279401   0.294   0.525   4.835 -0.4549 -0.7701 -1.1023
19304TIP3   OH279402   4.891   3.380   4.563  0.3436  0.4751  0.2020
19304TIP3    H179403   4.957   3.313   4.544  0.2438  0.6877 -0.9561
19304TIP3    H279404   4.883   3.379   4.658  1.8066  0.2451  0.3471
19305TIP3   OH279405   6.292   5.377  16.659  0.5852  0.1012  0.7233
19305TIP3    H179406   6.291   5.459  16.708  0.6300  0.4906  0.0887
19305TIP3    H279407   6.213   5.331  16.687 -0.8101  1.4632 -0.7225
19306TIP3   OH279408   5.221   4.230  17.013  0.1854 -0.4120  0.3765
19306TIP3    H179409   5.280   4.157  16.994  0.2646 -0.2759  0.0908
19306TIP3    H279410   5.274   4.308  16.997 -0.4663 -0.2634 -1.2570
19307TIP3   OH279411   4.848   3.064   4.618 -0.2021  0.0696 -0.2513
19307TIP3    H179412   4.853   2.988   4.676 -1.3943  1.0510  1.2116
19307TIP3    H279413   4.793   3.126   4.665  0.4456  1.7076 -1.5652
19308TIP3   OH279414   2.692   1.287   5.661 -0.4513  0.1595  0.2485
19308TIP3    H179415   2.749   1.255   5.591  0.4967  1.7419  0.2592
19308TIP3    H279416   2.649   1.364   5.624  0.5915  1.4494  1.5859
19309TIP3   OH279417   3.538   4.588   5.995  0.5627 -0.0584 -0.6542
19309TIP3    H179418   3.458   4.542   5.969  1.7284 -0.9354 -2.9953
19309TIP3    H279419   3.591   4.521   6.038  0.8006  0.0068 -0.8435
19310TIP3   OH279420   0.212   6.755  15.475  0.4123  0.3587  0.5219
19310TIP3    H179421   0.229   6.802  15.556 -0.5544  1.9815 -0.1705
19310TIP3    H279422   0.241   6.666  15.493  1.1433  0.9005  2.3047
19311TIP3   OH279423   3.034   1.077  11.650 -0.0044  0.5151 -0.1560
19311TIP3    H179424   2.956   1.078  11.706 -0.0344  1.2408 -0.2050
19311TIP3    H279425   3.020   1.002  11.591 -0.4411  0.3572  0.1427
19312TIP3   OH279426   5.283   6.731  14.313 -0.0995  0.0663 -0.4029
19312TIP3    H179427   5.211   6.770  14.263  0.7106  1.5697 -0.4431
19312TIP3    H279428   5.360   6.743  14.258  0.5318  0.3275  0.5226
19313TIP3   OH279429   4.398   5.208  11.311 -0.3100 -0.3227  0.1423
19313TIP3    H179430   4.411   5.254  11.228  2.2822  0.0091  0.6617
19313TIP3    H279431   4.444   5.125  11.301 -1.3075 -0.9661  0.7174
19314TIP3   OH279432   2.558   3.421   4.209  0.4257  0.3956 -0.5059
19314TIP3    H179433   2.554   3.392   4.118 -0.5726 -1.6123  0.1064
19314TIP3    H279434   2.522   3.348   4.259 -1.8490  2.5277  1.2692
19315TIP3   OH279435   5.149   4.386  16.005 -1.0045 -0.4358  0.0457
19315TIP3    H179436   5.085   4.327  16.045 -1.3582 -0.0029  0.1206
19315TIP3    H279437   5.097   4.457  15.969 -0.8972 -1.6826 -2.8456
19316TIP3   OH279438   4.198   5.982  13.834  0.3777  0.4824  0.6995
19316TIP3    H179439   4.134   5.995  13.905  0.9735  0.0486  1.3233
19316TIP3    H279440   4.222   6.070  13.808 -0.3413  0.6542  0.5780
19317TIP3   OH279441   2.431   4.156  15.875  0.1635  0.5111 -0.0831
19317TIP3    H179442   2.502   4.093  15.886  0.8960  1.4359  0.5840
19317TIP3    H279443   2.407   4.149  15.782  0.1531 -0.8184  0.0084
19318TIP3   OH279444   0.881   2.513   4.436  0.2824 -0.5919 -0.1649
19318TIP3    H179445   0.862   2.567   4.359 -0.5726 -0.3665  0.1985
19318TIP3    H279446   0.841   2.559   4.509 -0.0489 -1.4782  0.2245
19319TIP3   OH279447   4.286   2.130  16.517  0.7058 -0.4089 -0.2574
19319TIP3    H179448   4.370   2.147  16.561  0.5545 -0.8191  0.1874
19319TIP3    H279449   4.310   2.089  16.434  1.0971  1.9549 -1.3938
19320TIP3   OH279450   4.554   0.460  13.723 -1.0841  0.0885  0.2790
19320TIP3    H179451   4.546   0.525  13.653  2.1365 -0.0672 -0.3976
19320TIP3    H279452   4.543   0.511  13.803  1.7640  1.7359 -0.2125
19321TIP3   OH279453   3.378   0.834   0.006  0.2019 -0.0921 -0.0840
19321TIP3    H179454   3.314   0.882  -0.046  0.3716 -0.5006 -0.6888
19321TIP3    H279455   3.462   0.871  -0.020  0.3150 -0.5404 -0.3796
19322TIP3   OH279456   1.072   5.790  14.642  0.1234  0.4895 -0.0303
19322TIP3    H179457   1.072   5.720  14.708  1.9757 -0.4931 -1.0192
19322TIP3    H279458   1.001   5.767  14.582 -1.3287  1.1878  1.3229
19323TIP3   OH279459   4.975   0.362   4.787 -0.9282  0.3978 -0.3958
19323TIP3    H179460   4.996   0.357   4.880  0.0813  1.0288 -0.5702
19323TIP3    H279461   4.949   0.453   4.773 -0.9589  0.3356 -0.7501
19324TIP3   OH279462   1.001   6.412  11.728  0.0945  0.1481 -0.7090
19324TIP3    H179463   1.014   6.317  11.721 -1.0074 -0.0189 -0.7305
19324TIP3    H279464   1.006   6.444  11.638 -0.1193  0.0234 -0.7652
19325TIP3   OH279465   1.884   6.541   3.618 -0.1389  0.0374 -0.1981
19325TIP3    H179466   1.924   6.621   3.583  1.5768 -0.1054  1.3031
19325TIP3    H279467   1.951   6.504   3.675 -2.0992 -0.7431  1.7245
19326TIP3   OH279468   2.523   4.981   4.815  0.6006 -0.8180  0.5363
19326TIP3    H179469   2.474   4.941   4.887 -1.5776 -0.0556 -0.4408
19326TIP3    H279470   2.547   4.908   4.758 -0.1723 -1.1235  0.5949
19327TIP3   OH279471   0.029   4.238   2.616  0.1679 -0.5149 -0.8748
19327TIP3    H179472   0.080   4.291   2.554 -0.6016  1.1195 -0.1698
19327TIP3    H279473  -0.055   4.223   2.573  0.1429 -0.5900 -0.8015
19328TIP3   OH279474   5.768   5.617   3.200  0.6231  0.4582 -0.0374
19328TIP3    H179475   5.855   5.581   3.179  0.1912  0.1811 -1.4832
19328TIP3    H279476   5.707   5.556   3.158 -0.2572  0.8590  0.6475
19329TIP3   OH279477   0.739   5.314   1.458 -0.1406  0.2242 -0.3927
19329TIP3    H179478   0.830   5.300   1.429 -0.4161 -0.5730 -0.9025
19329TIP3    H279479   0.690   5.243   1.417 -0.8325  0.0484  0.7033
19330TIP3   OH279480   0.681   1.639   2.507  0.8153 -0.0908  0.1812
19330TIP3    H179481   0.625   1.717   2.512  0.1104 -0.5176 -0.7168
19330TIP3    H279482   0.642   1.577   2.567  0.1726 -0.4712 -0.6166
19331TIP3   OH279483   3.682   1.500  11.309 -0.1023 -0.0425 -0.9306
19331TIP3    H179484   3.759   1.444  11.303 -0.9274 -1.0274 -3.2525
19331TIP3    H279485   3.702   1.575  11.253 -0.6443 -0.0917 -1.1976
19332TIP3   OH279486   6.665   2.047   5.288  0.0265  0.0158 -0.4820
19332TIP3    H179487   6.577   2.084   5.288  0.3525  1.0157  2.5568
19332TIP3    H279488   6.722   2.118   5.259  0.0243 -0.2163 -1.0921
19333TIP3   OH279489   0.223   2.463  14.004 -0.2982  0.6888 -0.9972
19333TIP3    H179490   0.265   2.539  14.044  0.7651 -0.0741 -0.5904
19333TIP3    H279491   0.248   2.467  13.911 -0.7237  1.1421 -1.0916
19334TIP3   OH279492   3.237   5.044   1.576  0.1072 -0.2512  0.0736
19334TIP3    H179493   3.265   5.062   1.666  0.4185  0.9181 -0.2331
19334TIP3    H279494   3.146   5.074   1.573  1.0344  2.8472 -0.8094
19335TIP3   OH279495   2.981   1.209  13.144 -0.0123 -0.0106 -0.0089
19335TIP3    H179496   3.040   1.157  13.090 -1.0937 -0.7046 -0.5828
19335TIP3    H279497   2.915   1.146  13.174 -1.0864  0.9334 -0.3153
19336TIP3   OH279498   1.634   3.884  14.537 -0.7153 -0.1956  0.2059
19336TIP3    H179499   1.600   3.851  14.620 -0.0064 -1.7376 -0.0718
19336TIP3    H279500   1.602   3.822  14.472 -1.1862  0.9487 -0.6817
19337TIP3   OH279501   6.099   2.667   5.839 -0.0799 -0.4977 -0.3143
19337TIP3    H179502   6.033   2.696   5.903 -1.0856 -0.8120 -1.1816
19337TIP3    H279503   6.072   2.708   5.757  0.4759 -1.1123 -0.8114
19338TIP3   OH279504   0.859   1.193   5.157  0.2376  0.2672  0.5892
19338TIP3    H179505   0.913   1.143   5.218  1.0340  0.4054  0.0164
19338TIP3    H279506   0.875   1.285   5.180  0.6092  0.3225  0.1288
19339TIP3   OH279507   6.085   2.503   5.098 -0.0534 -0.7413 -0.4420
19339TIP3    H179508   6.017   2.570   5.105  0.3951 -0.2530 -0.6604
19339TIP3    H279509   6.149   2.528   5.165 -0.2552 -1.3986  0.0009
19340TIP3   OH279510   2.963   1.816   2.785  0.7321  0.5654  0.1392
19340TIP3    H179511   3.049   1.855   2.773  1.5892 -0.4474  2.2711
19340TIP3    H279512   2.959   1.746   2.720  1.5032  0.6666 -0.0263
19341TIP3   OH279513   6.701   1.335  16.076  0.3684 -0.1854  0.1717
19341TIP3    H179514   6.719   1.295  15.991  3.3074  2.9812 -0.9173
19341TIP3    H279515   6.770   1.301  16.133  0.6196  0.4676  0.2613
19342TIP3   OH279516   4.781   2.664  11.800 -0.4985  0.2136 -0.4605
19342TIP3    H179517   4.875   2.658  11.821 -0.2796 -0.3813 -1.5187
19342TIP3    H279518   4.778   2.662  11.705 -1.6567 -0.9176 -0.4261
19343TIP3   OH279519   0.167   5.067   3.025  0.4023  0.2261  0.4973
19343TIP3    H179520   0.191   5.140   3.081 -0.9039  1.7178 -0.7918
19343TIP3    H279521   0.084   5.035   3.062 -0.2635  0.9691 -0.3010
19344TIP3   OH279522   4.601   4.975   0.730  0.0557  0.0030 -0.3416
19344TIP3    H179523   4.659   5.019   0.791 -1.6323  1.9347 -0.0009
19344TIP3    H279524   4.649   4.975   0.647  0.2376  2.3856 -0.3030
19345TIP3   OH279525   6.096   4.110   3.840  0.1850 -0.4047 -0.2725
19345TIP3    H179526   6.074   4.112   3.747  3.5058  0.8967 -1.2041
19345TIP3    H279527   6.021   4.151   3.884 -1.3352 -0.7715 -2.3854
19346TIP3   OH279528   4.659   1.112  11.527 -0.6331 -0.5552 -0.1524
19346TIP3    H179529   4.578   1.155  11.500  0.1109  0.2836 -1.1125
19346TIP3    H279530   4.665   1.035  11.471 -0.1531  0.0543 -0.9592
19347TIP3   OH279531   4.324   3.315  10.844  0.3399  0.3479  0.0608
19347TIP3    H179532   4.331   3.394  10.792 -0.0214 -0.4280 -1.2124
19347TIP3    H279533   4.397   3.320  10.906  0.3299  1.6498 -0.0110
19348TIP3   OH279534   2.401   0.354   5.609 -0.1344  0.0980  0.1329
19348TIP3    H179535   2.330   0.292   5.625 -0.6395  0.3932 -0.8275
19348TIP3    H279536   2.360   0.423   5.555  0.6823  0.6894  0.2563
19349TIP3   OH279537   4.025   0.887   1.427 -0.1706 -0.1586 -0.0643
19349TIP3    H179538   4.088   0.958   1.438  0.7967 -0.8821 -0.7389
19349TIP3    H279539   4.067   0.811   1.468 -0.4569 -0.7263 -0.7980
19350TIP3   OH279540   4.622   3.791   4.816  0.4260 -0.4963  0.0450
19350TIP3    H179541   4.674   3.742   4.752  0.8518 -0.8056  0.6217
19350TIP3    H279542   4.542   3.740   4.824  0.6387 -0.8021  0.2348
19351TIP3   OH279543   0.298   1.107  16.763  0.4357  0.0932 -0.4862
19351TIP3    H179544   0.357   1.068  16.699  1.2189 -0.4886  0.5645
19351TIP3    H279545   0.276   1.036  16.823 -0.3098  0.6076 -0.1238
19352TIP3   OH279546   6.035   6.570   3.980 -0.1230  0.6880  0.1487
19352TIP3    H179547   6.052   6.618   3.899  0.8436 -0.2225 -0.2260
19352TIP3    H279548   6.019   6.480   3.951 -0.0212  0.4047  0.9472
19353TIP3   OH279549   5.191   2.068  11.568 -0.6972  0.4768  0.3632
19353TIP3    H179550   5.133   2.112  11.506  0.0395 -1.6533 -2.0068
19353TIP3    H279551   5.135   2.042  11.640 -2.4616 -0.3654 -1.2338
19354TIP3   OH279552   4.300   2.085   0.099 -0.2630 -0.0808  0.3957
19354TIP3    H179553   4.244   2.015   0.065  0.8918  0.0388 -1.9025
19354TIP3    H279554   4.258   2.166   0.071 -0.0253  0.0774  0.4945
19355TIP3   OH279555   2.871   4.681  15.884  0.2279  0.6205 -0.2455
19355TIP3    H179556   2.814   4.604  15.880 -0.2043  1.0034 -1.8991
19355TIP3    H279557   2.824   4.748  15.835  0.3181  2.1631  1.6718
19356TIP3   OH279558   6.012   2.036   0.799 -0.1925 -0.1737  0.0710
19356TIP3    H179559   6.016   2.019   0.704 -0.3859  0.8810 -0.1418
19356TIP3    H279560   6.000   2.131   0.805 -1.7126 -0.3986  1.1150
19357TIP3   OH279561   6.292   3.728   5.571  0.2531 -0.0694  0.2543
19357TIP3    H179562   6.354   3.781   5.521  0.5116 -1.3709 -0.8725
19357TIP3    H279563   6.231   3.792   5.609  0.0877  1.0101 -1.6576
19358TIP3   OH279564   0.902   0.135   4.205 -0.0185 -0.5236 -0.1117
19358TIP3    H179565   0.976   0.143   4.145 -0.9059  1.9399 -1.0019
19358TIP3    H279566   0.836   0.088   4.154  0.1664 -0.8070 -0.0926
19359TIP3   OH279567   6.204   2.072  12.245  0.7995  0.1951  0.7039
19359TIP3    H179568   6.112   2.065  12.271  0.7711 -0.2949  0.4951
19359TIP3    H279569   6.250   2.010  12.302  0.8294 -0.4062  0.0545
19360TIP3   OH279570   4.073   0.741  15.148  0.3461  0.0906 -0.2904
19360TIP3    H179571   4.110   0.806  15.088 -0.3868  0.6760 -0.1256
19360TIP3    H279572   3.983   0.730  15.118  0.4277 -0.7512 -0.2267
19361TIP3   OH279573   2.734   0.736  16.786 -0.2312 -0.1218  0.4752
19361TIP3    H179574   2.798   0.760  16.720 -2.7069 -0.2232 -2.1265
19361TIP3    H279575   2.687   0.818  16.806 -0.1113 -0.2743  1.4273
19362TIP3   OH279576   5.307   3.789  12.612 -0.2915 -0.1061  0.3884
19362TIP3    H179577   5.250   3.771  12.538  0.4279 -0.4242 -0.1044
19362TIP3    H279578   5.385   3.735  12.595  0.9747  1.7565  0.0275
19363TIP3   OH279579   2.137   5.248   5.682  0.2687 -0.0636 -0.2308
19363TIP3    H179580   2.162   5.224   5.593 -0.3605 -0.6102 -0.2663
19363TIP3    H279581   2.206   5.306   5.711  1.0423 -0.7338 -0.6928
19364TIP3   OH279582   6.043   4.124  13.370 -0.0482 -0.4053 -0.2936
19364TIP3    H179583   6.016   4.081  13.451 -0.7599  0.8030  0.1292
19364TIP3    H279584   5.967   4.176  13.344  0.6998  0.3949 -0.9227
19365TIP3   OH279585   3.441   4.851  11.450  0.1689  0.7928 -0.5521
19365TIP3    H179586   3.500   4.781  11.421  0.2096  0.9452 -0.8350
19365TIP3    H279587   3.392   4.875  11.372 -1.9918 -0.9781  0.1490
19366TIP3   OH279588   1.307   1.562  16.518 -0.1347 -0.2914  0.0396
19366TIP3    H179589   1.309   1.495  16.586 -0.8801 -0.1187  0.2343
19366TIP3    H279590   1.358   1.523  16.446 -0.0295 -0.8075  0.3830
19367TIP3   OH279591   1.644   6.831  16.861  0.4776  0.4339 -0.4246
19367TIP3    H179592   1.695   6.896  16.910 -1.5349  1.3849  0.5587
19367TIP3    H279593   1.553   6.849  16.886 -0.2279 -2.4225 -0.5506
19368TIP3   OH279594   2.945   0.374   1.723 -0.6135  0.8881  0.3682
19368TIP3    H179595   2.911   0.295   1.681  2.1978  0.1013 -0.6443
19368TIP3    H279596   2.930   0.444   1.660  2.0987  0.0030 -1.4604
19369TIP3   OH279597   1.109   5.583  14.455  0.2323  0.1150  0.1853
19369TIP3    H179598   1.124   5.660  14.511  1.2853  0.0634 -0.0067
19369TIP3    H279599   1.132   5.508  14.510 -1.3491 -0.1331  0.5666
19370TIP3   OH279600   5.208   0.492   4.608  0.3322 -0.1308 -0.3268
19370TIP3    H179601   5.199   0.543   4.687 -0.6491 -0.7636 -0.0208
19370TIP3    H279602   5.262   0.417   4.634  0.7766  0.1216 -0.4936
19371TIP3   OH279603   5.595   4.536   5.449 -0.1819  0.3679  0.0987
19371TIP3    H179604   5.580   4.628   5.469 -2.2321  0.2865 -0.7588
19371TIP3    H279605   5.541   4.489   5.512 -0.2690 -0.1806 -0.3714
19372TIP3   OH279606   2.917   3.162   1.253 -0.1724  0.4249 -0.2432
19372TIP3    H179607   2.989   3.224   1.270 -1.0397  1.4154 -0.1120
19372TIP3    H279608   2.908   3.113   1.335  0.0744  0.5817 -0.1223
19373TIP3   OH279609   1.137   6.393  12.822  0.5468  0.4160  0.6789
19373TIP3    H179610   1.082   6.331  12.869  0.4960 -0.6875 -0.7963
19373TIP3    H279611   1.219   6.346  12.806  0.4134  0.6239 -0.6866
19374TIP3   OH279612   6.554   5.000   3.429 -0.3422 -0.0698 -0.8734
19374TIP3    H179613   6.498   4.954   3.366 -0.4598  0.0253 -0.8391
19374TIP3    H279614   6.503   5.076   3.455 -0.1895  0.0246 -0.8503
19375TIP3   OH279615   0.535   4.607   4.579 -0.5386  0.1440  0.0850
19375TIP3    H179616   0.532   4.653   4.495  0.4056 -0.4435 -0.2840
19375TIP3    H279617   0.508   4.518   4.559  3.4395 -1.1456 -0.4597
19376TIP3   OH279618   6.239   0.102   2.464  0.1062  0.0390  0.1140
19376TIP3    H179619   6.229   0.025   2.520 -1.3066 -0.6388 -1.0143
19376TIP3    H279620   6.334   0.115   2.457  0.3369 -0.2824  2.0329
19377TIP3   OH279621   4.766   2.251  11.149  0.5656  0.0507 -0.2049
19377TIP3    H179622   4.830   2.269  11.218 -1.6841 -0.0103  2.0730
19377TIP3    H279623   4.722   2.171  11.178 -1.4584  0.8443 -0.9130
19378TIP3   OH279624   6.775   2.280   5.074  0.4509 -0.0623  0.4954
19378TIP3    H179625   6.855   2.333   5.076  0.7357 -0.4970  0.8884
19378TIP3    H279626   6.779   2.234   4.990 -1.4707  3.0191 -1.5060
19379TIP3   OH279627   4.562   6.304   2.795  0.1636  0.5823 -0.3827
19379TIP3    H179628   4.516   6.281   2.876  1.4692 -0.9372 -0.0237
19379TIP3    H279629   4.604   6.388   2.814  0.0856  0.4574  0.3731
19380TIP3   OH279630   5.938   0.515  12.158 -0.2639 -0.5578  0.4227
19380TIP3    H179631   5.999   0.588  12.152  0.8788 -1.6000 -1.1363
19380TIP3    H279632   5.991   0.437  12.144 -1.6018 -1.6544  1.1770
19381TIP3   OH279633   3.260   1.051   3.884  0.5591 -0.1223  1.1955
19381TIP3    H179634   3.320   0.981   3.859  0.4848 -0.3065  1.5306
19381TIP3    H279635   3.311   1.131   3.871 -0.0096 -0.0739 -1.1222
19382TIP3   OH279636   6.691   0.977  11.951 -0.1052  0.0267 -0.5294
19382TIP3    H179637   6.705   1.057  12.001 -1.1669 -0.2328  0.2353
19382TIP3    H279638   6.628   0.927  12.004 -2.1717  0.2248 -2.6369
19383TIP3   OH279639   4.604   5.680   3.759 -0.0766  0.8004 -0.3031
19383TIP3    H179640   4.547   5.620   3.808 -0.0061  0.9622 -0.0202
19383TIP3    H279641   4.663   5.622   3.711  0.0600  0.6390  0.0522
19384TIP3   OH279642   0.322   6.171  14.401  0.0385 -0.3186 -0.3217
19384TIP3    H179643   0.400   6.222  14.423  0.2498  0.3594 -2.4961
19384TIP3    H279644   0.338   6.085  14.441  0.2402  0.8425  2.3185
19385TIP3   OH279645   4.590   3.195  13.936  0.3626 -0.0703 -0.0172
19385TIP3    H179646   4.656   3.251  13.976 -0.0216  0.1327  0.3388
19385TIP3    H279647   4.629   3.107  13.939  0.4375 -0.0225  0.6002
19386TIP3   OH279648   2.332   3.783   1.531  0.2098  0.3940 -0.0761
19386TIP3    H179649   2.393   3.774   1.604 -1.3061  1.7894  1.4588
19386TIP3    H279650   2.311   3.877   1.528  0.6135  0.4920 -2.7031
19387TIP3   OH279651   0.922   1.904  11.279  0.6056 -0.2543 -0.1861
19387TIP3    H179652   0.961   1.818  11.294  0.6978 -0.2676 -0.4883
19387TIP3    H279653   0.949   1.956  11.355  0.6133 -0.4680 -0.0408
19388TIP3   OH279654   1.409   2.912  15.941  0.2634  0.0324 -0.1356
19388TIP3    H179655   1.326   2.960  15.944 -0.7586 -1.4959 -1.8597
19388TIP3    H279656   1.398   2.842  16.005  0.5366  0.2622  0.1667
19389TIP3   OH279657   3.627   3.808  13.817 -0.2229  0.6846  0.0800
19389TIP3    H179658   3.702   3.752  13.796  0.2587  1.6342 -0.7879
19389TIP3    H279659   3.551   3.760  13.783  0.0769  0.1382  0.1675
19390TIP3   OH279660   2.516   0.484   5.171  0.3357 -0.1996  0.6188
19390TIP3    H179661   2.428   0.458   5.198 -0.1012  0.1514 -0.4175
19390TIP3    H279662   2.532   0.434   5.091  0.6612  0.5107  0.2320
19391TIP3   OH279663   2.549   1.441  12.368 -0.0302 -0.2690  0.1703
19391TIP3    H179664   2.483   1.452  12.300 -2.3779  1.4417  2.5584
19391TIP3    H279665   2.510   1.380  12.431  1.5965 -0.9035  0.6299
19392TIP3   OH279666   6.697   0.540  15.165 -0.0620 -0.5408  0.6183
19392TIP3    H179667   6.790   0.519  15.172  0.4920  0.6618 -1.9737
19392TIP3    H279668   6.659   0.465  15.118  0.3660  0.5038 -1.5141
19393TIP3   OH279669   3.632   0.496  11.993  0.4465 -0.5885  0.1774
19393TIP3    H179670   3.617   0.445  11.913 -1.5152  2.2453 -1.4330
19393TIP3    H279671   3.549   0.490  12.041  0.1322  1.0567 -0.0931
19394TIP3   OH279672   2.555   4.512  10.746 -0.3949  0.1680  0.5469
19394TIP3    H179673   2.589   4.511  10.835 -1.2127 -1.1976  0.8811
19394TIP3    H279674   2.631   4.492  10.691 -0.0994 -0.0944  1.0423
19395TIP3   OH279675   5.178   4.071   0.174  0.5382  0.2754 -0.1377
19395TIP3    H179676   5.104   4.015   0.151  0.7358 -0.7514  1.5790
19395TIP3    H279677   5.155   4.157   0.137 -0.3457 -0.6121 -1.7468
19396TIP3   OH279678   2.660   2.614  17.050 -0.2058 -0.2347 -0.0430
19396TIP3    H179679   2.636   2.702  17.080  0.1260 -0.1213 -0.1082
19396TIP3    H279680   2.658   2.619  16.955 -0.5104 -0.3882 -0.0450
19397TIP3   OH279681   0.293   4.563  15.275  0.1336 -0.4398  0.8023
19397TIP3    H179682   0.328   4.539  15.189 -1.0319 -1.6183  0.6408
19397TIP3    H279683   0.350   4.634  15.304  0.8238 -0.3173 -0.7434
19398TIP3   OH279684   6.647   5.079   4.198  0.0351  0.4610 -0.1366
19398TIP3    H179685   6.629   5.158   4.249 -0.4376  1.0141 -1.1262
19398TIP3    H279686   6.570   5.067   4.143  0.6450  0.0455 -0.9225
19399TIP3   OH279687   2.291   0.037  12.490 -0.0241  0.2287  0.1182
19399TIP3    H179688   2.258   0.126  12.499  1.2144  0.8076 -0.7577
19399TIP3    H279689   2.384   0.043  12.513 -0.6515 -1.5920  3.8474
19400TIP3   OH279690   0.696   1.496  14.281 -0.0137  0.0874  0.0671
19400TIP3    H179691   0.776   1.445  14.266 -0.0076  0.2177 -0.3333
19400TIP3    H279692   0.660   1.459  14.362 -0.7878 -1.5537 -0.9706
19401TIP3   OH279693   3.768   1.032   2.214  0.3884 -0.5180 -0.5200
19401TIP3    H179694   3.836   1.013   2.149 -1.4086 -0.0508 -2.6476
19401TIP3    H279695   3.724   0.948   2.228  0.6569 -0.5793 -0.0084
19402TIP3   OH279696   6.482   2.982   3.923  0.8916 -0.0190  0.4665
19402TIP3    H179697   6.541   2.971   3.849 -0.0097  1.8216 -0.6047
19402TIP3    H279698   6.394   2.970   3.886  0.4095  1.0841  1.1898
19403TIP3   OH279699   5.498   6.013   4.788 -0.2864 -0.2258  0.1515
19403TIP3    H179700   5.560   6.079   4.819  0.9524 -1.5477  0.5798
19403TIP3    H279701   5.495   6.026   4.693  0.4741  0.0183  0.1514
19404TIP3   OH279702   1.897   6.606   3.015 -0.1959 -0.2926  0.3474
19404TIP3    H179703   1.912   6.550   3.091 -3.8174 -0.1967  1.3459
19404TIP3    H279704   1.918   6.694   3.046 -1.0539 -0.3328  1.1112
19405TIP3   OH279705   6.572   0.641   2.008  0.2867 -0.3122 -0.2120
19405TIP3    H179706   6.650   0.618   2.060  0.2055 -1.4708 -0.5756
19405TIP3    H279707   6.530   0.711   2.058  2.4021  1.4951 -0.7972
19406TIP3   OH279708   1.869   2.930   1.890 -0.5890 -0.0012 -0.4708
19406TIP3    H179709   1.903   2.858   1.837 -0.3406 -0.6687  0.5661
19406TIP3    H279710   1.943   2.990   1.898 -0.7759  0.3437 -1.2824
19407TIP3   OH279711   2.694   4.362  15.610  0.3328 -0.1199  0.3242
19407TIP3    H179712   2.669   4.316  15.530  0.3901  0.0688  0.1962
19407TIP3    H279713   2.715   4.292  15.672 -1.0507 -0.3063  0.6183
19408TIP3   OH279714   5.928   1.962   0.555  0.4824  0.0868 -0.3229
19408TIP3    H179715   5.945   1.991   0.465 -0.8643 -1.1255 -1.0215
19408TIP3    H279716   5.843   2.000   0.576 -0.1882 -1.3295 -0.3667
19409TIP3   OH279717   1.316   1.491  15.924 -0.4754 -0.3363  0.2143
19409TIP3    H179718   1.408   1.497  15.898 -0.1343 -0.5778  1.3016
19409TIP3    H279719   1.317   1.511  16.018 -1.4340 -1.1229  0.3996
19410TIP3   OH279720   3.940   1.648  11.468 -0.0253 -0.1094 -0.2543
19410TIP3    H179721   3.948   1.560  11.431 -0.2746 -1.0340  1.7661
19410TIP3    H279722   3.848   1.671  11.454 -0.7239 -1.4357  1.7590
19411TIP3   OH279723   1.397   2.371   1.810 -0.0360 -0.0386  0.3371
19411TIP3    H179724   1.303   2.353   1.818 -0.9525  3.5450 -0.8400
19411TIP3    H279725   1.418   2.349   1.719  0.9250 -2.8749  1.1198
19412TIP3   OH279726   3.023   5.685  14.325 -0.4356  0.1700  0.6516
19412TIP3    H179727   3.077   5.605  14.330 -1.1854 -0.4410 -0.5559
19412TIP3    H279728   2.942   5.662  14.370 -0.7467  0.1583  0.0952
19413TIP3   OH279729   2.763   2.903   6.205 -0.6478 -0.5512 -0.7321
19413TIP3    H179730   2.730   2.953   6.280 -0.5046 -0.8291 -0.4817
19413TIP3    H279731   2.692   2.907   6.140 -0.6930 -0.1426 -0.6609
19414TIP3   OH279732   1.068   0.459  14.833  0.3846 -0.2480  0.0068
19414TIP3    H179733   1.083   0.504  14.916 -0.5411 -0.6675  0.4194
19414TIP3    H279734   1.155   0.445  14.797  0.7601  0.5407  0.5814
19415TIP3   OH279735   4.843   0.086  15.207  0.1699  0.9517  0.0788
19415TIP3    H179736   4.850   0.181  15.203  1.5398  0.9223  1.0363
19415TIP3    H279737   4.874   0.063  15.294  0.8063 -0.4449 -0.4797
19416TIP3   OH279738   0.465   1.545  10.388 -0.3895 -0.2001 -0.2944
19416TIP3    H179739   0.509   1.630  10.390  0.4581 -0.6315 -0.3759
19416TIP3    H279740   0.382   1.563  10.343  0.8981  0.0909 -2.6865
19417TIP3   OH279741   4.270   3.974   3.510  0.2122 -0.2279  0.1422
19417TIP3    H179742   4.228   3.890   3.529  0.2359 -0.2917 -0.0775
19417TIP3    H279743   4.285   4.014   3.595 -1.3762  0.3355  0.2025
19418TIP3   OH279744   2.207   3.241  16.790 -0.5184  0.4770 -0.4701
19418TIP3    H179745   2.268   3.227  16.862  0.0965  0.1431 -1.0488
19418TIP3    H279746   2.121   3.221  16.827 -0.1198 -0.5622 -0.0621
19419TIP3   OH279747   4.034   4.902   4.247 -0.4135 -0.8256 -0.0995
19419TIP3    H179748   4.009   4.858   4.328 -2.6916 -0.3733 -0.4957
19419TIP3    H279749   3.995   4.849   4.178 -2.6277  1.2834 -0.6268
19420TIP3   OH279750   3.839   3.811   0.057  0.1088 -0.3812 -0.3842
19420TIP3    H179751   3.811   3.735   0.108 -1.1485  0.2620 -0.0797
19420TIP3    H279752   3.764   3.870   0.058  1.6787  1.7552  1.0884
19421TIP3   OH279753   0.478   3.320   1.238 -0.2459  0.3139 -0.7514
19421TIP3    H179754   0.458   3.230   1.210  2.1785  0.1220 -2.1782
19421TIP3    H279755   0.400   3.349   1.285 -1.4271 -2.2361 -0.9880
19422TIP3   OH279756   3.204   6.436   1.840 -0.2645  0.0267 -0.1443
19422TIP3    H179757   3.202   6.486   1.922  1.0277  0.4943 -0.3764
19422TIP3    H279758   3.123   6.385   1.841 -0.8119  0.8847  0.8815
19423TIP3   OH279759   5.733   3.026   6.174  0.1490 -0.3827 -0.0443
19423TIP3    H179760   5.652   3.065   6.144 -0.7123 -2.8282 -1.1510
19423TIP3    H279761   5.728   3.030   6.270 -3.1288 -3.7235  0.1335
19424TIP3   OH279762   5.130   0.023   3.768  0.4355  0.5363 -0.5578
19424TIP3    H179763   5.122  -0.072   3.755  2.0510  0.3472 -0.3633
19424TIP3    H279764   5.039   0.055   3.766 -0.3183 -1.2584  1.4244
19425TIP3   OH279765   5.147   3.551   4.138 -0.2269 -0.0823  0.0350
19425TIP3    H179766   5.213   3.548   4.207  0.3251  2.0827 -0.3451
19425TIP3    H279767   5.185   3.607   4.071 -1.2479 -1.1836 -1.5329
19426TIP3   OH279768   5.423   4.413   4.007  0.3789  0.1271 -0.2234
19426TIP3    H179769   5.405   4.361   4.085  0.7288 -0.9422 -0.8306
19426TIP3    H279770   5.444   4.349   3.940  1.1626  1.0787 -0.9172
19427TIP3   OH279771   6.307   3.769  13.678  0.1402  0.0747  0.2842
19427TIP3    H179772   6.397   3.791  13.653 -0.1173  0.3351 -0.4295
19427TIP3    H279773   6.264   3.750  13.595 -0.1386 -1.2871  0.7133
19428TIP3   OH279774   3.138   4.702   6.668 -0.1499 -0.0122  0.3631
19428TIP3    H179775   3.084   4.624   6.656  1.1966 -0.9353  0.0915
19428TIP3    H279776   3.089   4.756   6.730 -1.0967 -1.0702  0.5693
19429TIP3   OH279777   2.386   3.111  16.155 -0.4450 -0.1347 -0.5699
19429TIP3    H179778   2.333   3.058  16.215  1.0303 -0.6855  0.3248
19429TIP3    H279779   2.427   3.047  16.097 -2.6839  0.4638 -2.9721
19430TIP3   OH279780   2.647   0.820  13.536  0.1159  0.3379 -0.4525
19430TIP3    H179781   2.664   0.735  13.496  0.2179  0.7729 -1.3541
19430TIP3    H279782   2.731   0.867  13.529 -0.3010  0.9914 -1.1781
19431TIP3   OH279783   3.204   1.380  12.998  0.5325 -0.2075  0.0470
19431TIP3    H179784   3.259   1.455  12.975 -0.9747  1.4423  1.5174
19431TIP3    H279785   3.247   1.343  13.075  1.4270 -1.0699 -0.8380
19432TIP3   OH279786   3.555   4.609   0.784  0.1270  0.1616  0.1653
19432TIP3    H179787   3.627   4.663   0.752 -1.6752  2.1396 -0.8220
19432TIP3    H279788   3.547   4.539   0.719  0.1267  0.8813 -0.6256
19433TIP3   OH279789   5.531   4.590   3.050  0.1385 -0.3713  0.1429
19433TIP3    H179790   5.522   4.673   3.004 -0.3427  0.1620  1.1640
19433TIP3    H279791   5.553   4.527   2.982 -2.6289 -0.0238 -1.2113
19434TIP3   OH279792   1.068   2.448  15.338 -0.0932 -0.1520  0.1671
19434TIP3    H179793   1.079   2.542  15.328 -0.1728 -0.1492  0.1080
19434TIP3    H279794   1.130   2.410  15.275  0.0036 -0.1406  0.2552
19435TIP3   OH279795   6.159   3.757   4.320  0.3701  0.0193  0.2115
19435TIP3    H179796   6.085   3.719   4.274  0.0136  0.9843 -0.0334
19435TIP3    H279797   6.230   3.693   4.309 -0.3670 -0.8355  0.3156
19436TIP3   OH279798   0.311   0.329   4.602 -0.6906 -0.0398 -0.2189
19436TIP3    H179799   0.229   0.297   4.566 -0.8069  0.3503 -0.3037
19436TIP3    H279800   0.334   0.266   4.671  0.0926 -1.4277 -1.6652
19437TIP3   OH279801   1.270   2.313  13.602  0.2251 -0.2927 -0.0433
19437TIP3    H179802   1.258   2.322  13.507  0.3094 -0.3639 -0.0613
19437TIP3    H279803   1.345   2.368  13.623 -0.1460  0.1777  0.0740
19438TIP3   OH279804   0.145   2.047   2.217 -0.0692  0.1570 -0.3019
19438TIP3    H179805   0.089   1.981   2.178  1.8581 -1.1022 -1.1039
19438TIP3    H279806   0.227   2.042   2.167  1.3064  0.8370  1.7267
19439TIP3   OH279807   5.425   0.439  14.760 -0.5070 -0.6866 -0.3768
19439TIP3    H179808   5.341   0.484  14.760 -0.5178 -0.6854  0.7039
19439TIP3    H279809   5.479   0.490  14.820  0.0731 -1.0497 -0.5790
19440TIP3   OH279810   2.142   1.779   0.376  0.3153 -0.2835  0.0104
19440TIP3    H179811   2.168   1.852   0.319 -1.6058 -0.1840 -0.8215
19440TIP3    H279812   2.185   1.703   0.339  0.4001  0.0535 -0.5959
19441TIP3   OH279813   5.631   0.497   6.006  0.2606 -0.2882 -0.0771
19441TIP3    H179814   5.567   0.433   6.036  0.2434 -0.9096 -1.3554
19441TIP3    H279815   5.711   0.476   6.055  0.2532 -1.3102 -0.4663
19442TIP3   OH279816   3.874   1.706   2.272  0.1591  0.0170 -0.0959
19442TIP3    H179817   3.792   1.714   2.223 -1.2348 -1.3376  1.8574
19442TIP3    H279818   3.861   1.761   2.349  0.8051 -0.7640  0.5845
19443TIP3   OH279819   2.008   0.658   1.888  0.1909 -0.4752 -0.4608
19443TIP3    H179820   2.029   0.566   1.902 -0.1599 -0.4598  0.1990
19443TIP3    H279821   2.049   0.680   1.804  1.9287 -0.7168  0.2901
19444TIP3   OH279822   1.586   0.655   3.522  0.2412  0.6647  0.2135
19444TIP3    H179823   1.493   0.672   3.537  0.3853  0.4755  1.4489
19444TIP3    H279824   1.628   0.678   3.605  1.3590  1.1417 -0.4682
19445TIP3   OH279825   0.576   4.758   4.919 -0.1759  0.4691  0.0466
19445TIP3    H179826   0.532   4.678   4.891  1.4649  0.5282 -3.1336
19445TIP3    H279827   0.669   4.737   4.918  0.1461  1.2197  3.5732
19446TIP3   OH279828   3.017   6.775  14.146  0.3050  0.4771  0.4803
19446TIP3    H179829   3.052   6.785  14.234  0.6890  0.8306  0.2913
19446TIP3    H279830   2.987   6.863  14.122  1.4677  0.6882 -0.2693
19447TIP3   OH279831   1.406   1.412   1.914 -0.4165  0.5211 -0.6887
19447TIP3    H179832   1.340   1.347   1.941 -1.7369  2.3831  0.8693
19447TIP3    H279833   1.479   1.398   1.974 -0.4628  0.1156 -0.7232
19448TIP3   OH279834   5.388   3.091  11.193 -0.8592 -0.5354  0.8520
19448TIP3    H179835   5.434   3.156  11.246 -2.1900  1.8239 -0.7044
19448TIP3    H279836   5.302   3.084  11.233 -0.7204 -1.3961  1.0158
19449TIP3   OH279837   2.570   4.077  12.488  0.2069  0.3575  0.5494
19449TIP3    H179838   2.560   4.136  12.413  0.3968  1.7492  1.5708
19449TIP3    H279839   2.654   4.102  12.527  0.4825 -0.8789  0.7997
19450TIP3   OH279840   5.107   2.649  13.961  0.0645  0.2135  0.4659
19450TIP3    H179841   5.200   2.641  13.983 -0.4399  0.6438  3.0369
19450TIP3    H279842   5.064   2.581  14.014 -1.3421  1.8625  1.5750
19451TIP3   OH279843   3.667   0.576   0.927 -0.9072  0.4319  0.0879
19451TIP3    H179844   3.711   0.641   0.873 -0.6675  1.0781  1.0310
19451TIP3    H279845   3.737   0.534   0.976 -1.1718  0.2783  0.3389
19452TIP3   OH279846   2.673   3.983  15.948 -0.3163 -0.1849  0.6078
19452TIP3    H179847   2.751   4.035  15.962  0.1642 -1.1306  1.6017
19452TIP3    H279848   2.705   3.893  15.938 -1.1128 -0.3393 -1.0305
19453TIP3   OH279849   3.267   4.086   1.977  0.0862  0.2971  0.1115
19453TIP3    H179850   3.232   4.132   1.900 -0.5138  0.5443  0.5255
19453TIP3    H279851   3.199   4.096   2.044  0.5254 -0.0717  0.6197
19454TIP3   OH279852   3.525   0.757   1.118  0.1578  0.5847  0.0584
19454TIP3    H179853   3.540   0.663   1.121  0.3046  0.6444  2.0297
19454TIP3    H279854   3.432   0.766   1.098 -0.1387 -0.0193  1.0808
19455TIP3   OH279855   4.817   2.261  14.138  0.1251 -0.6941  0.6721
19455TIP3    H179856   4.910   2.245  14.157  0.3340  0.8205  1.0926
19455TIP3    H279857   4.805   2.227  14.049  1.6748  1.0119 -0.2737
19456TIP3   OH279858   0.374   3.102  14.284 -0.1632  0.2907 -0.0647
19456TIP3    H179859   0.465   3.087  14.311  0.3543  1.8910 -0.7917
19456TIP3    H279860   0.343   3.168  14.346 -0.4650  0.5809 -0.5286
19457TIP3   OH279861   2.119   2.656  15.560  0.1420  0.8881 -0.5185
19457TIP3    H179862   2.133   2.624  15.649 -1.6900  1.0629 -0.1440
19457TIP3    H279863   2.075   2.740  15.571 -1.2204  0.3542 -1.5740
19458TIP3   OH279864   0.734   2.815  12.951  0.5677  0.3606 -0.6476
19458TIP3    H179865   0.732   2.822  12.855  1.1382  0.8526 -0.6259
19458TIP3    H279866   0.659   2.867  12.980  0.5560  0.4364 -0.8135
19459TIP3   OH279867   3.026   0.444  13.712 -0.1703  0.2464  0.2323
19459TIP3    H179868   2.990   0.491  13.637 -0.6463 -0.0188  0.2941
19459TIP3    H279869   3.062   0.363  13.675  1.3121  0.9641  0.0141
19460TIP3   OH279870   1.954   1.544   2.990 -0.3362 -0.1208 -0.1802
19460TIP3    H179871   2.005   1.624   3.004  0.7949 -0.6951 -0.8841
19460TIP3    H279872   1.952   1.533   2.895  0.5636 -1.5718 -0.0567
19461TIP3   OH279873   2.683   2.425   5.718  0.0646 -0.5866  0.1325
19461TIP3    H179874   2.689   2.493   5.651 -0.8172 -0.2703  0.3613
19461TIP3    H279875   2.638   2.467   5.792 -0.2819 -1.3459  0.3695
19462TIP3   OH279876   4.510   5.308   5.089  0.5425 -0.3115  0.1510
19462TIP3    H179877   4.556   5.225   5.093 -1.0643 -1.3000 -0.7348
19462TIP3    H279878   4.468   5.317   5.175 -1.1290 -1.5874 -0.4782
19463TIP3   OH279879   5.678   1.256  14.109  0.2407  0.3402 -0.3342
19463TIP3    H179880   5.596   1.212  14.085  0.3758 -0.5708  0.8240
19463TIP3    H279881   5.712   1.289  14.026 -1.2206  0.6153 -0.8614
19464TIP3   OH279882   5.138   2.212  17.120 -0.0859  0.2142  0.0632
19464TIP3    H179883   5.153   2.257  17.037  1.3960  0.6465  0.5342
19464TIP3    H279884   5.067   2.262  17.161  0.2936  1.0095 -0.2234
19465TIP3   OH279885   2.060   5.697  15.070 -0.5389 -0.1426  0.3060
19465TIP3    H179886   2.134   5.686  15.130  0.3685  0.3797 -0.6797
19465TIP3    H279887   1.993   5.639  15.105 -0.6959  1.3637  2.8127
19466TIP3   OH279888   4.800   6.082  15.107 -0.2174 -0.1071 -0.2270
19466TIP3    H179889   4.818   6.129  15.188 -0.6105 -0.9602  0.3670
19466TIP3    H279890   4.704   6.072  15.106 -0.1235 -1.0477 -0.2572
19467TIP3   OH279891   6.760   2.533  11.816 -0.1285 -0.1082  0.2937
19467TIP3    H179892   6.833   2.543  11.756 -0.4226 -0.8352 -0.1950
19467TIP3    H279893   6.714   2.617  11.812 -0.1752 -0.1710 -0.5307
19468TIP3   OH279894   4.326   0.862   1.139  0.4958  0.3107  0.2109
19468TIP3    H179895   4.334   0.799   1.067  1.0074  0.3572  0.2193
19468TIP3    H279896   4.232   0.868   1.156  0.4669 -0.8210  0.5291
19469TIP3   OH279897   0.759   3.999  15.397  0.1506  0.4724 -0.3382
19469TIP3    H179898   0.757   4.015  15.491  0.0542 -0.2480 -0.2132
19469TIP3    H279899   0.841   4.038  15.368  1.0235 -0.8394  0.3337
19470TIP3   OH279900   2.750   4.234  16.278 -0.2668 -0.2189 -0.4072
19470TIP3    H179901   2.783   4.323  16.284 -0.9387  0.0128 -0.1104
19470TIP3    H279902   2.788   4.200  16.197  0.4095  0.1575 -0.2519
19471TIP3   OH279903   0.581   3.938   2.748 -0.0065 -0.2406 -0.1292
19471TIP3    H179904   0.490   3.957   2.769  0.1549  0.8890 -0.3956
19471TIP3    H279905   0.587   3.952   2.653  0.0841 -1.9021 -0.4085
19472TIP3   OH279906   2.561   1.758  12.214  0.2227 -0.0033  0.3894
19472TIP3    H179907   2.609   1.731  12.292  1.5373  1.5818  0.2066
19472TIP3    H279908   2.484   1.702  12.212  0.4478 -0.4777  2.4953
19473TIP3   OH279909   0.873   0.970   5.356 -0.0089  0.3024  0.3847
19473TIP3    H179910   0.841   1.059   5.368 -0.6711  0.9833 -4.4315
19473TIP3    H279911   0.967   0.979   5.343 -0.0320  0.2671  0.1899
19474TIP3   OH279912   6.409   0.393   0.813 -0.3651 -0.3829 -0.1523
19474TIP3    H179913   6.395   0.433   0.727 -1.0549  0.0212  0.1431
19474TIP3    H279914   6.502   0.407   0.831 -0.5118  0.8125 -0.2046
19475TIP3   OH279915   3.122   3.128  15.508  0.3013  0.4444 -0.1122
19475TIP3    H179916   3.045   3.131  15.451 -1.1627  0.1219  1.7429
19475TIP3    H279917   3.100   3.061  15.573  1.3594  1.6303  1.5408
19476TIP3   OH279918   1.218   6.600  15.622 -0.2184  0.3693  0.2094
19476TIP3    H179919   1.200   6.653  15.544  0.3586  0.9087  0.4335
19476TIP3    H279920   1.136   6.555  15.641  0.1135 -1.2331 -1.8107
19477TIP3   OH279921   6.309   2.095   1.494  0.1435 -0.0893  0.1852
19477TIP3    H179922   6.225   2.139   1.480  0.0493 -0.4690 -0.4717
19477TIP3    H279923   6.351   2.147   1.563 -1.1944 -0.6752  1.5133
19478TIP3   OH279924   6.737   5.735   4.389  0.1869  0.7361 -0.1904
19478TIP3    H179925   6.678   5.810   4.387 -0.9476 -0.1380 -0.2714
19478TIP3    H279926   6.735   5.705   4.480 -1.0481 -0.4647 -0.5759
19479TIP3   OH279927   4.051   1.918   5.517 -0.0544 -0.0406  0.2787
19479TIP3    H179928   4.095   1.967   5.448 -1.5111  0.4077 -0.3922
19479TIP3    H279929   3.965   1.960   5.524 -2.0352 -3.3934 -1.4284
19480TIP3   OH279930   0.815   6.808   3.381  0.1679 -0.2535  0.3766
19480TIP3    H179931   0.827   6.865   3.457 -1.3802 -0.9010  1.1460
19480TIP3    H279932   0.781   6.726   3.417  0.0851 -0.8358 -0.9557
19481TIP3   OH279933   2.695   5.483  11.231  0.3722  0.0152  0.5482
19481TIP3    H179934   2.704   5.431  11.310 -1.3801  0.1977  0.9098
19481TIP3    H279935   2.668   5.420  11.163 -1.1736  0.3103  0.8514
19482TIP3   OH279936   0.121   2.521  12.239 -0.1338  0.1034  0.1652
19482TIP3    H179937   0.210   2.553  12.225  0.5258 -0.5966  2.3083
19482TIP3    H279938   0.114   2.512  12.334 -2.2609 -0.5640 -0.0013
19483TIP3   OH279939   0.242   1.428  14.367  0.1051  0.1807  0.3755
19483TIP3    H179940   0.253   1.405  14.275  0.7921 -0.2481  0.5524
19483TIP3    H279941   0.293   1.362  14.414 -0.0271  0.5476  1.0511
19484TIP3   OH279942   2.804   0.189  15.220 -0.0325 -0.0224  0.1726
19484TIP3    H179943   2.786   0.269  15.270  1.5140  0.7387 -0.4344
19484TIP3    H279944   2.783   0.119  15.281 -4.2066  0.6385 -0.1632
19485TIP3   OH279945   1.465   4.514  12.926 -0.0096 -0.3049 -0.2309
19485TIP3    H179946   1.488   4.558  13.008 -0.1770 -1.4036  0.4328
19485TIP3    H279947   1.421   4.434  12.954 -2.5162  0.5730 -1.4179
19486TIP3   OH279948   0.332   4.244  14.475 -0.8822 -0.3371 -0.3577
19486TIP3    H179949   0.246   4.285  14.482 -0.9526 -0.5405  0.0127
19486TIP3    H279950   0.340   4.190  14.554 -0.5039 -0.4884 -0.4929
19487TIP3   OH279951   2.955   3.268   5.094  0.0053  0.0843  0.0854
19487TIP3    H179952   3.046   3.239   5.085 -0.3386 -1.1591  0.3918
19487TIP3    H279953   2.909   3.192   5.129 -1.0270  0.9210  0.6096
19488TIP3   OH279954   6.509   5.515   0.399  0.6930 -0.4165  0.2065
19488TIP3    H179955   6.541   5.602   0.373  0.9431 -0.7298 -0.5481
19488TIP3    H279956   6.451   5.533   0.473 -1.3424  0.7120 -1.5292
19489TIP3   OH279957   5.334   0.296  11.439 -0.2952  0.3353  0.0489
19489TIP3    H179958   5.356   0.384  11.406 -2.3612  0.6489 -0.6535
19489TIP3    H279959   5.245   0.281  11.407 -1.0343 -0.8988  2.4765
19490TIP3   OH279960   0.358   5.779   1.667  0.2207 -0.3665  0.0541
19490TIP3    H179961   0.322   5.751   1.582 -1.8008 -0.5040  0.8883
19490TIP3    H279962   0.341   5.873   1.670  1.4339 -0.1263 -0.1911
19491TIP3   OH279963   0.973   1.592  15.604  0.0393 -0.3947 -0.0550
19491TIP3    H179964   0.909   1.590  15.675 -0.5316  1.1929 -0.4948
19491TIP3    H279965   1.003   1.501  15.597  0.1163 -0.6004  2.1975
19492TIP3   OH279966   3.007   4.115  10.929  0.3113  0.1105 -0.0542
19492TIP3    H179967   3.006   4.200  10.885  1.9327 -0.3417 -1.0316
19492TIP3    H279968   2.923   4.112  10.976 -0.9062  1.2009 -2.0068
19493TIP3   OH279969   5.814   3.285   0.728  0.2839  0.0765 -0.7490
19493TIP3    H179970   5.811   3.190   0.719  0.4030 -0.1968  1.5183
19493TIP3    H279971   5.727   3.308   0.759  0.4909  0.6166 -0.5658
19494TIP3   OH279972   3.879   3.101   1.124 -0.4641  0.2932 -0.4938
19494TIP3    H179973   3.828   3.029   1.163  2.4351 -0.9487  1.3172
19494TIP3    H279974   3.884   3.167   1.193 -0.6542  0.9776 -1.1207
19495TIP3   OH279975   4.776   6.372   5.591  0.2525 -0.3473 -0.1343
19495TIP3    H179976   4.686   6.338   5.593  0.1067  0.0472  0.4889
19495TIP3    H279977   4.808   6.361   5.681  0.3051  0.8597  0.0210
19496TIP3   OH279978   0.047   4.952  10.784 -0.0291  0.1159  0.1630
19496TIP3    H179979   0.123   4.992  10.741  2.6854 -1.9792  2.5459
19496TIP3    H279980   0.037   4.868  10.741  0.0580 -0.2765  0.8936
19497TIP3   OH279981   0.589   4.128  14.120  0.0611 -0.2286  0.3065
19497TIP3    H179982   0.628   4.055  14.071  1.1254 -0.2417  1.1219
19497TIP3    H279983   0.522   4.087  14.174 -1.0658 -0.2248 -1.0391
19498TIP3   OH279984   5.401   5.907  13.363 -0.3589  0.6059  0.1792
19498TIP3    H179985   5.459   5.932  13.434  0.1786 -1.0534  0.3526
19498TIP3    H279986   5.314   5.933  13.393 -0.0641  0.4749  1.1805
19499TIP3   OH279987   0.387   0.251  14.929 -0.2737  0.0004  0.0914
19499TIP3    H179988   0.379   0.269  15.022 -0.5922  0.7857 -0.0780
19499TIP3    H279989   0.466   0.198  14.921  0.1853  0.5734  0.7242
19500TIP3   OH279990   4.663   3.062  11.526 -0.2063 -0.4103  0.8143
19500TIP3    H179991   4.711   3.125  11.579  0.5240 -1.0163  0.9001
19500TIP3    H279992   4.578   3.053  11.569 -1.3945  2.4971 -0.6836
19501TIP3   OH279993   6.397   5.556   3.775  0.8745  0.3408  0.0254
19501TIP3    H179994   6.306   5.553   3.805  0.3952 -1.3767 -1.4585
19501TIP3    H279995   6.448   5.560   3.856 -0.4624  0.2397  0.9214
19502TIP3   OH279996   6.611   2.009  11.494 -0.2955  0.1117 -0.1243
19502TIP3    H179997   6.657   2.089  11.521  0.0010 -0.5683  1.5062
19502TIP3    H279998   6.602   1.958  11.574 -0.8769 -1.3092 -1.0477
19503TIP3   OH279999   5.062   0.042  14.567  0.0507  0.6413  0.2921
19503TIP3    H180000   5.137   0.018  14.622  0.3786 -0.6900 -0.7063
19503TIP3    H280001   5.100   0.093  14.496 -0.0013  0.0501 -0.1609
19504TIP3   OH280002   0.646   3.662   3.812 -0.2044  0.0761 -0.3617
19504TIP3    H180003   0.652   3.659   3.716  1.7924  1.4926 -0.3509
19504TIP3    H280004   0.715   3.723   3.838  0.1413 -1.2322  2.0817
19505TIP3   OH280005   4.790   0.686  15.867 -0.1384 -0.1170 -0.6267
19505TIP3    H180006   4.859   0.651  15.924  0.5085  1.0475 -0.6661
19505TIP3    H280007   4.721   0.619  15.869 -1.0139  0.7070  3.1079
19506TIP3   OH280008   1.735   4.753   3.585  0.0504 -0.0733  0.1926
19506TIP3    H180009   1.662   4.800   3.623  1.2627  2.6928 -0.6681
19506TIP3    H280010   1.784   4.718   3.660 -1.4102 -0.8952  0.8042
19507TIP3   OH280011   6.266   6.523   5.445 -0.0542  0.2426 -0.4571
19507TIP3    H180012   6.181   6.548   5.480  0.3402  0.8130  0.1153
19507TIP3    H280013   6.326   6.590   5.477  0.5281  0.1271 -1.2656
19508TIP3   OH280014   1.110   2.410  11.553 -0.2825 -0.5471  0.2395
19508TIP3    H180015   1.203   2.401  11.531 -0.1600  0.8159  0.1276
19508TIP3    H280016   1.106   2.397  11.647  0.1354  0.1278  0.3537
19509TIP3   OH280017   6.478   6.443  13.553  0.2078 -0.0395 -0.4144
19509TIP3    H180018   6.561   6.491  13.552  0.9113 -1.2266 -1.9864
19509TIP3    H280019   6.467   6.418  13.645  1.6882 -0.0344 -0.2122
19510TIP3   OH280020   3.054   3.262   4.771 -0.2529  0.1418 -0.1899
19510TIP3    H180021   3.103   3.342   4.793 -1.6281  1.1585 -0.6758
19510TIP3    H280022   2.967   3.277   4.808 -0.7051 -0.8874 -0.8181
19511TIP3   OH280023   1.753   1.582  15.570  0.3224  0.1655  0.0429
19511TIP3    H180024   1.739   1.646  15.639  0.4395 -0.2418  0.4435
19511TIP3    H280025   1.781   1.502  15.615 -3.1575 -1.3109 -0.0967
19512TIP3   OH280026   1.376   2.894  12.613 -0.1912 -0.2843  0.5160
19512TIP3    H180027   1.360   2.803  12.589  1.7262 -0.5569  0.1152
19512TIP3    H280028   1.431   2.890  12.691  1.8190  0.4375 -0.7861
19513TIP3   OH280029   1.584   5.666  14.503  0.6539  0.1161  0.1043
19513TIP3    H180030   1.607   5.610  14.577 -4.8304 -1.2493  1.2058
19513TIP3    H280031   1.556   5.748  14.543  0.5556  0.5050 -0.7495
19514TIP3   OH280032   1.337   6.534  14.435 -0.4401 -0.1695 -0.4773
19514TIP3    H180033   1.381   6.565  14.355 -1.1245 -0.8842 -1.1474
19514TIP3    H280034   1.407   6.495  14.487 -0.3564 -2.2132 -1.9779
19515TIP3   OH280035   1.956   4.897   0.008 -0.3876  0.4104  0.1106
19515TIP3    H180036   1.885   4.929   0.063 -1.0826  0.6146 -0.8701
19515TIP3    H280037   1.967   4.964  -0.059  0.9883  0.5552  0.4485
19516TIP3   OH280038   2.389   1.926   2.140  0.0979  0.3326  0.1780
19516TIP3    H180039   2.411   1.893   2.053  0.8191 -1.3687  0.9667
19516TIP3    H280040   2.295   1.909   2.149 -0.3312  1.9407 -0.8196
19517TIP3   OH280041   4.386   4.079  11.155 -0.6023 -0.2699 -0.3998
19517TIP3    H180042   4.315   4.026  11.120  1.1727 -1.8834 -1.7813
19517TIP3    H280043   4.350   4.119  11.235 -3.1826 -0.5490 -1.3319
19518TIP3   OH280044   5.941   6.716  11.122  0.1422  0.7743  0.2184
19518TIP3    H180045   5.893   6.676  11.195 -1.2196  2.5869  0.3779
19518TIP3    H280046   6.022   6.665  11.117 -0.4357 -0.4358  1.9312
19519TIP3   OH280047   5.038   4.501   1.479 -0.0289  0.1780  0.1923
19519TIP3    H180048   5.042   4.444   1.556  0.4690 -0.0759 -0.0175
19519TIP3    H280049   5.043   4.440   1.405  1.4495  0.5535 -0.0370
19520TIP3   OH280050   3.633   1.793  15.790  0.4701 -0.1723  0.3269
19520TIP3    H180051   3.667   1.720  15.840  0.8309 -0.2383 -0.0072
19520TIP3    H280052   3.568   1.754  15.730  0.7943 -0.2473  0.0227
19521TIP3   OH280053   0.101   2.089   3.595 -0.2120  0.2647  0.1937
19521TIP3    H180054   0.099   2.036   3.674  0.9117 -0.4826 -0.2522
19521TIP3    H280055   0.185   2.068   3.553 -0.6747  0.8069 -1.0861
19522TIP3   OH280056   1.354   6.488   1.590  0.4412  0.1481 -0.0373
19522TIP3    H180057   1.332   6.487   1.497  0.9285 -0.0208 -0.1536
19522TIP3    H280058   1.318   6.407   1.624  0.8021 -0.0826 -0.2056
19523TIP3   OH280059   3.361   1.609  10.752  0.3254 -0.1143  0.4288
19523TIP3    H180060   3.339   1.701  10.735 -2.8231 -0.7096  0.6526
19523TIP3    H280061   3.342   1.564  10.670  1.9913 -0.5983  0.2702
19524TIP3   OH280062   5.705   5.046   1.174 -0.9283 -0.8440  0.2571
19524TIP3    H180063   5.647   5.121   1.187  2.5768  2.4230 -1.2921
19524TIP3    H280064   5.671   5.003   1.096 -0.9790  1.4100 -1.0455
19525TIP3   OH280065   2.421   5.565   5.871  0.5785  0.5526  0.1922
19525TIP3    H180066   2.488   5.498   5.854 -0.5194 -0.6606  0.4291
19525TIP3    H280067   2.346   5.537   5.818 -0.3170  0.9217  1.2299
19526TIP3   OH280068   2.140   5.180   4.167  0.3717 -0.0801  0.0227
19526TIP3    H180069   2.087   5.254   4.196 -0.1320 -1.0797  1.7578
19526TIP3    H280070   2.103   5.156   4.082 -0.9804  0.2159  0.4980
19527TIP3   OH280071   5.837   5.090   1.819  0.8640  0.2018  0.2448
19527TIP3    H180072   5.812   5.172   1.860  0.5998  0.4027 -0.3117
19527TIP3    H280073   5.889   5.044   1.885  2.6660  1.6514 -0.0931
19528TIP3   OH280074   1.701   0.363   2.603  0.3000  0.5981  0.2915
19528TIP3    H180075   1.692   0.281   2.651  1.7545  0.9261  1.1740
19528TIP3    H280076   1.686   0.340   2.511 -0.8147 -0.3552  0.6942
19529TIP3   OH280077   5.828   4.723   2.289  0.0162 -0.4594  0.3398
19529TIP3    H180078   5.835   4.727   2.194  1.3787 -1.1734  0.3952
19529TIP3    H280079   5.828   4.630   2.310  0.7541 -0.3008  1.1002
19530TIP3   OH280080   5.258   2.313   1.082 -0.0509 -0.0668  0.1447
19530TIP3    H180081   5.236   2.351   1.166 -2.2631  0.1413 -0.4603
19530TIP3    H280082   5.311   2.236   1.103 -1.5043 -0.6810  1.8241
19531TIP3   OH280083   4.766   3.032  11.818 -0.0893 -0.0122 -0.8604
19531TIP3    H180084   4.795   2.942  11.833  0.5014  0.3858  0.5404
19531TIP3    H280085   4.839   3.086  11.850 -0.8948  0.9775 -0.6511
19532TIP3   OH280086   3.627   2.601   1.369 -0.5010 -0.7410  0.0494
19532TIP3    H180087   3.565   2.673   1.356  0.6650  0.3927  0.5851
19532TIP3    H280088   3.612   2.543   1.294 -0.8949  0.4655 -0.8413
19533TIP3   OH280089   5.969   1.331  15.579  0.3308  0.2622 -0.0742
19533TIP3    H180090   5.926   1.345  15.495  0.1892  1.0801  0.1281
19533TIP3    H280091   5.910   1.274  15.627  0.5182 -0.3910 -0.6048
19534TIP3   OH280092   0.070   3.134   0.251  0.1969  0.3049 -0.0783
19534TIP3    H180093   0.071   3.038   0.251  1.1118  0.2753  1.3601
19534TIP3    H280094   0.142   3.158   0.310 -0.1981  1.8780 -0.2003
19535TIP3   OH280095   4.933   5.608  13.858  0.2908 -0.1880 -0.0662
19535TIP3    H180096   4.878   5.677  13.895 -0.5114 -1.7734  1.8836
19535TIP3    H280097   4.971   5.648  13.780  1.2725  3.0732  1.8698
19536TIP3   OH280098   6.197   2.090  16.686 -0.3903  0.1509 -0.0217
19536TIP3    H180099   6.290   2.103  16.665 -0.2730 -0.9609 -0.2321
19536TIP3    H280100   6.151   2.151  16.629  0.2175  0.9340  0.3027
19537TIP3   OH280101   4.719   3.114  12.706 -0.3182 -0.3209  0.2586
19537TIP3    H180102   4.767   3.196  12.694 -0.7706  0.0004  0.6089
19537TIP3    H280103   4.666   3.129  12.784  1.8442 -1.9872  2.2199
19538TIP3   OH280104   6.779   5.297   3.073 -0.2093  0.5930  0.3415
19538TIP3    H180105   6.821   5.252   3.000 -1.5426 -0.4459  0.1667
19538TIP3    H280106   6.764   5.386   3.042  0.4390  0.5292 -0.1602
19539TIP3   OH280107   1.962   6.437   3.205  0.0233  0.5838 -0.1293
19539TIP3    H180108   2.012   6.399   3.276 -1.6157  0.5952  1.1025
19539TIP3    H280109   1.884   6.382   3.198 -0.0318  0.8212 -1.6528
19540TIP3   OH280110   2.155   0.968   4.644 -0.1436 -0.0060  0.0424
19540TIP3    H180111   2.190   1.046   4.688  0.7206 -0.4518  0.1686
19540TIP3    H280112   2.087   1.002   4.586  0.6952  0.9294 -0.4335
19541TIP3   OH280113   6.440   0.796   4.111 -0.0410  0.0497 -0.4254
19541TIP3    H180114   6.364   0.767   4.161 -0.2370  1.7155  0.2977
19541TIP3    H280115   6.494   0.844   4.173 -0.0555  1.7571 -1.6606
19542TIP3   OH280116   4.987   1.733   6.030 -0.5090  0.6767 -0.0808
19542TIP3    H180117   5.002   1.826   6.015  2.2459  0.1349 -1.2903
19542TIP3    H280118   4.999   1.692   5.944  0.8157 -1.0106  0.8348
19543TIP3   OH280119   0.155   2.409   1.995 -0.2382 -0.2293  0.1878
19543TIP3    H180120   0.122   2.499   1.990 -1.2381 -0.4828  1.5183
19543TIP3    H280121   0.192   2.403   2.083  2.3989 -0.3278 -0.8287
19544TIP3   OH280122   5.042   2.989  15.853 -0.2327  0.2196  0.6092
19544TIP3    H180123   5.015   3.034  15.933  2.5097  1.1774  1.0997
19544TIP3    H280124   5.115   2.933  15.880 -0.8928 -1.4387 -0.7861
19545TIP3   OH280125   3.554   1.481  16.255 -0.4718 -0.0195 -0.5041
19545TIP3    H180126   3.533   1.550  16.192  0.8591  1.7313  0.8244
19545TIP3    H280127   3.488   1.490  16.323  0.2649  0.6645  0.1522
19546TIP3   OH280128   6.108   5.101   5.981  0.2360  0.1069 -0.0590
19546TIP3    H180129   6.043   5.135   6.042 -0.4756 -0.1280 -0.6587
19546TIP3    H280130   6.189   5.096   6.031  0.0411  1.3925  0.4098
19547TIP3   OH280131   1.427   5.122   1.802 -0.6516  0.0453  0.3891
19547TIP3    H180132   1.374   5.085   1.872  0.5071 -1.8835  0.3083
19547TIP3    H280133   1.518   5.112   1.832 -0.1873  0.2480 -0.8791
19548TIP3   OH280134   6.817   0.211  16.503 -0.2190 -0.1473 -0.1100
19548TIP3    H180135   6.891   0.150  16.499 -0.1912 -0.1074 -0.2163
19548TIP3    H280136   6.751   0.173  16.445  0.2145  0.4742 -1.0337
19549TIP3   OH280137   2.713   6.075   4.803 -0.4487  0.0914 -0.3262
19549TIP3    H180138   2.736   6.128   4.880 -0.6254 -1.3941  0.7963
19549TIP3    H280139   2.722   6.135   4.729 -1.1718  1.8445  0.9324
19550TIP3   OH280140   4.883   2.102   4.455  0.0315 -0.9519  0.4050
19550TIP3    H180141   4.822   2.121   4.384 -0.9170  0.8891  1.6445
19550TIP3    H280142   4.951   2.047   4.414 -2.9831 -4.2032 -0.7869
19551TIP3   OH280143   3.011   0.420   1.169 -0.0095 -0.0948 -0.0277
19551TIP3    H180144   2.966   0.355   1.114 -0.4065  0.3729 -0.2640
19551TIP3    H280145   2.947   0.443   1.237  0.2773 -0.2523  0.3015
19552TIP3   OH280146   2.304   4.165  14.218 -0.0109 -0.1790 -0.4458
19552TIP3    H180147   2.312   4.073  14.191  1.9295 -0.6580  1.4779
19552TIP3    H280148   2.382   4.180  14.272 -1.3106  2.0316  0.9336
19553TIP3   OH280149   5.379   1.273  15.555 -0.6493 -0.3824 -0.1406
19553TIP3    H180150   5.318   1.205  15.584 -3.1335  2.0041  0.6522
19553TIP3    H280151   5.354   1.351  15.606  1.4326  1.3764 -1.6382
19554TIP3   OH280152   0.603   2.233  14.874 -0.3426  0.4572 -0.2365
19554TIP3    H180153   0.599   2.138  14.861 -0.4003  0.3599  0.4327
19554TIP3    H280154   0.534   2.268  14.818 -1.4002 -0.0441  0.7089
19555TIP3   OH280155   1.225   0.203   5.429 -0.0486  0.0484 -0.7062
19555TIP3    H180156   1.226   0.299   5.433 -0.4403  0.0414 -0.3845
19555TIP3    H280157   1.136   0.179   5.456  0.5153 -0.4627  0.8291
19556TIP3   OH280158   1.546   4.509   3.920 -0.4532 -0.2683  0.3020
19556TIP3    H180159   1.554   4.599   3.953  1.7888 -0.2252 -0.1508
19556TIP3    H280160   1.571   4.454   3.995  1.2917 -0.3178 -0.2618
19557TIP3   OH280161   1.346   2.018   1.883 -0.0469  0.1351 -0.2218
19557TIP3    H180162   1.355   1.954   1.953 -3.2937 -0.3955 -0.1278
19557TIP3    H280163   1.294   2.089   1.921 -0.7244  0.4812 -1.7006
19558TIP3   OH280164   2.334   5.436   1.767  0.1411  0.5261 -0.0169
19558TIP3    H180165   2.293   5.487   1.698 -1.0779  0.6642  0.7826
19558TIP3    H280166   2.378   5.364   1.721  0.7816  1.5373 -1.0473
19559TIP3   OH280167   6.700   1.180  12.252  0.1907  0.2083  0.2581
19559TIP3    H180168   6.692   1.230  12.333 -2.5316 -2.2714  1.7272
19559TIP3    H280169   6.643   1.226  12.190  1.2879  1.3958  0.0864
19560TIP3   OH280170   0.673   5.797  11.373  0.2362 -0.1298 -0.5638
19560TIP3    H180171   0.609   5.790  11.445 -0.4260  2.6121 -0.7822
19560TIP3    H280172   0.620   5.791  11.293  0.5629 -0.0517 -0.7896
19561TIP3   OH280173   1.554   4.366   2.153  0.7352  0.0242  0.6564
19561TIP3    H180174   1.618   4.342   2.086  0.4497 -0.5572  0.5834
19561TIP3    H280175   1.598   4.432   2.206  0.2434  2.0876 -1.3278
19562TIP3   OH280176   6.777   0.921  17.079 -0.1718  0.0713  0.2907
19562TIP3    H180177   6.699   0.976  17.094 -0.6994 -0.5695 -0.0325
19562TIP3    H280178   6.850   0.974  17.110 -0.5944  1.2187 -0.5954
19563TIP3   OH280179   1.556   5.366  12.496  0.4945 -0.5873 -0.0360
19563TIP3    H180180   1.608   5.383  12.418 -1.4753 -0.5915 -1.4202
19563TIP3    H280181   1.579   5.437  12.556  2.1576 -0.6803 -0.5277
19564TIP3   OH280182   6.737   2.660  12.240 -0.4245  0.3445 -0.1645
19564TIP3    H180183   6.653   2.633  12.276  0.2109  0.0050  1.1405
19564TIP3    H280184   6.797   2.590  12.265  0.0172 -0.0402 -2.1733
19565TIP3   OH280185   2.971   6.711   2.590  0.4635  0.2798 -0.0039
19565TIP3    H180186   2.963   6.640   2.654 -0.8925  1.1864  0.8913
19565TIP3    H280187   3.065   6.729   2.586  0.6766 -0.5626  0.8797
19566TIP3   OH280188   5.099   3.220   6.578 -0.1839  0.3075 -0.4848
19566TIP3    H180189   5.103   3.196   6.670 -0.9807 -0.0603 -0.5370
19566TIP3    H280190   5.186   3.256   6.559 -0.1760  0.8736  0.5327
19567TIP3   OH280191   0.472   2.510  17.037 -0.5319 -0.0287  0.0896
19567TIP3    H180192   0.564   2.535  17.039 -0.5245 -0.0393  1.9401
19567TIP3    H280193   0.437   2.542  17.120 -2.1653 -0.1605 -0.5086
19568TIP3   OH280194   3.386   1.274   1.523 -0.0334  0.0780  0.6341
19568TIP3    H180195   3.367   1.341   1.457 -2.9607 -0.3222  0.9229
19568TIP3    H280196   3.377   1.321   1.606 -3.5566 -0.7553  0.9100
19569TIP3   OH280197   2.809   3.545   2.175 -0.2811  0.2926  0.0408
19569TIP3    H180198   2.772   3.458   2.164 -0.3060  0.3807 -0.6500
19569TIP3    H280199   2.806   3.584   2.087  0.9249  0.5080  0.0733
19570TIP3   OH280200   3.614   6.669  12.779 -0.1168  0.0796  0.4640
19570TIP3    H180201   3.709   6.663  12.769  0.2240 -0.4795  3.2114
19570TIP3    H280202   3.596   6.763  12.783  0.3176  0.1881 -0.0579
19571TIP3   OH280203   1.186   0.494   1.061  0.2632  0.6173 -0.0708
19571TIP3    H180204   1.229   0.473   1.144  0.3425  2.3877  0.3895
19571TIP3    H280205   1.231   0.441   0.996 -0.9405 -2.1391  1.1985
19572TIP3   OH280206   2.020   2.668   1.453  0.4298  0.5347 -0.1544
19572TIP3    H180207   2.025   2.687   1.360  3.5763 -1.9954 -0.6603
19572TIP3    H280208   1.950   2.602   1.460 -0.6288  1.5880 -0.4830
19573TIP3   OH280209   0.132   0.304   1.065  0.0482 -0.5570  0.7510
19573TIP3    H180210   0.148   0.259   0.982 -0.3046  0.3655  0.1691
19573TIP3    H280211   0.103   0.235   1.125  2.2105 -1.6144  0.7110
19574TIP3   OH280212   3.030   4.793  15.699 -0.6389  0.1334  0.2208
19574TIP3    H180213   3.007   4.884  15.716  0.6907  0.4848  0.2941
19574TIP3    H280214   3.008   4.747  15.780 -3.4065 -0.0923 -0.5548
19575TIP3   OH280215   0.282   3.991   2.666  0.7710 -0.1251  0.4149
19575TIP3    H180216   0.264   4.075   2.708  1.4432  0.1681  0.1410
19575TIP3    H280217   0.281   4.010   2.573 -1.6063 -0.9510  0.2011
19576TIP3   OH280218   5.154   0.795  11.410 -0.1310 -0.4444 -0.1956
19576TIP3    H180219   5.217   0.824  11.344  0.3122 -1.4535 -0.2432
19576TIP3    H280220   5.138   0.873  11.463 -0.3206  0.3267 -1.3431
19577TIP3   OH280221   0.164   0.283  10.963  0.4659  0.4853  0.2916
19577TIP3    H180222   0.113   0.365  10.964  3.3388  2.4022  2.1988
19577TIP3    H280223   0.211   0.286  10.879  1.9590  1.8297  1.1155
19578TIP3   OH280224   1.249   5.781   5.611 -0.0061  0.4377  0.7251
19578TIP3    H180225   1.273   5.863   5.654  0.9302  0.4374  0.2178
19578TIP3    H280226   1.326   5.756   5.561  0.4014 -1.6787  2.2618
19579TIP3   OH280227   4.234   0.562   1.449  0.2092  0.7493 -0.6564
19579TIP3    H180228   4.189   0.589   1.369  0.4444  1.6598 -0.4859
19579TIP3    H280229   4.171   0.580   1.519  1.0463  2.6803 -0.3402
19580TIP3   OH280230   2.497   3.867   4.978  0.1539  0.4797 -0.4022
19580TIP3    H180231   2.522   3.822   5.058  0.6645  0.2355 -0.6958
19580TIP3    H280232   2.407   3.837   4.961 -0.3331  1.3055  0.6104
19581TIP3   OH280233   3.962   2.503  11.869 -0.2183  0.7180 -0.3782
19581TIP3    H180234   3.990   2.412  11.877  0.9140  0.9204 -1.5933
19581TIP3    H280235   3.970   2.539  11.957 -2.2310 -0.7408  0.4726
19582TIP3   OH280236   5.776   2.119  14.652 -0.2268  0.1801  0.5526
19582TIP3    H180237   5.698   2.157  14.612 -1.6907 -0.6038  2.5174
19582TIP3    H280238   5.806   2.054  14.588 -0.7558  0.9655 -0.5281
19583TIP3   OH280239   4.401   1.358   5.781 -0.3618  1.0029  0.4109
19583TIP3    H180240   4.450   1.275   5.780 -1.3748  0.2865  2.7599
19583TIP3    H280241   4.418   1.394   5.868 -0.3792  3.0515 -0.3870
19584TIP3   OH280242   4.324   0.472   2.425 -0.5642 -0.5904 -0.3281
19584TIP3    H180243   4.324   0.550   2.370 -0.4108 -0.5896 -0.3278
19584TIP3    H280244   4.416   0.445   2.429 -0.4340 -0.0114  0.7446
19585TIP3   OH280245   5.059   5.474   3.336  0.3585  0.2315 -0.3402
19585TIP3    H180246   4.987   5.537   3.325 -0.4562 -0.8280 -1.4812
19585TIP3    H280247   5.032   5.399   3.282  1.4423 -0.9564  0.7207
19586TIP3   OH280248   5.794   3.948   2.887 -0.1975 -0.5394 -0.4640
19586TIP3    H180249   5.818   3.856   2.888 -2.7007 -1.3005  2.1817
19586TIP3    H280250   5.711   3.951   2.839 -0.7486  0.0921  0.4842
19587TIP3   OH280251   0.157   5.211  13.491 -0.3480  0.2661 -0.2495
19587TIP3    H180252   0.193   5.196  13.578  0.3452 -0.5577 -0.6630
19587TIP3    H280253   0.087   5.146  13.483 -0.2668  0.1961 -0.3883
19588TIP3   OH280254   4.524   5.541  16.350 -0.1120  0.2425  0.1140
19588TIP3    H180255   4.485   5.594  16.281  1.5683  1.4390  0.0303
19588TIP3    H280256   4.504   5.588  16.431  0.4298  0.4246  0.1465
19589TIP3   OH280257   1.397   1.913   3.335  0.1982  0.0073 -0.0735
19589TIP3    H180258   1.423   1.975   3.403 -1.5946  0.5071  0.2240
19589TIP3    H280259   1.406   1.827   3.376  1.4369  0.1381 -0.0413
19590TIP3   OH280260   3.723   0.265  16.202 -0.1857  1.0631 -0.0680
19590TIP3    H180261   3.647   0.294  16.152 -0.8527  0.7478  0.7412
19590TIP3    H280262   3.689   0.247  16.289  0.7211  0.4269  0.1709
19591TIP3   OH280263   3.474   4.904  14.749  0.0519 -0.5465  0.0519
19591TIP3    H180264   3.518   4.945  14.824 -0.7408 -0.1573  0.3143
19591TIP3    H280265   3.428   4.830  14.787 -3.1089  1.5192  0.6238
19592TIP3   OH280266   5.750   3.073   3.962 -0.2561  0.2082  0.0897
19592TIP3    H180267   5.661   3.086   3.929 -0.4417  0.0621  0.5200
19592TIP3    H280268   5.740   3.070   4.057  0.1173 -0.4662  0.1186
19593TIP3   OH280269   6.084   2.929   0.676 -0.1738  0.1602  0.4548
19593TIP3    H180270   6.099   2.973   0.592  1.1185 -1.9883 -0.5128
19593TIP3    H280271   6.171   2.918   0.713 -0.7557  1.4564  2.3380
19594TIP3   OH280272   4.759   5.556   2.931  0.3178 -0.4320  0.0861
19594TIP3    H180273   4.850   5.570   2.956  0.3785  0.4386 -0.5613
19594TIP3    H280274   4.723   5.644   2.920 -0.6978 -0.7579  0.6468
19595TIP3   OH280275   6.724   0.773   0.864 -0.6138  0.2257  0.3245
19595TIP3    H180276   6.717   0.691   0.814 -0.8153  1.3726 -1.6558
19595TIP3    H280277   6.644   0.776   0.917 -0.4771 -0.9755  0.6225
19596TIP3   OH280278   6.066   5.079  12.023 -0.5155 -0.4184  0.4574
19596TIP3    H180279   6.113   5.124  12.092  2.4408 -0.0585 -1.6034
19596TIP3    H280280   6.043   4.994  12.061 -1.4993  0.7565  2.6831
19597TIP3   OH280281   1.758   1.601   0.354  0.0065 -0.1871  0.3963
19597TIP3    H180282   1.724   1.520   0.317  1.5237  0.4248 -2.6943
19597TIP3    H280283   1.699   1.669   0.322  1.3671  0.3632 -1.0619
19598TIP3   OH280284   5.046   5.877   3.666  0.3962  0.9321 -0.3432
19598TIP3    H180285   5.136   5.900   3.642  1.2683 -1.1713  0.7263
19598TIP3    H280286   5.025   5.937   3.738  1.9351 -0.2555  1.1604
19599TIP3   OH280287   0.298   0.733  13.835 -0.3393 -0.4760 -0.3899
19599TIP3    H180288   0.306   0.653  13.782  0.6472 -0.0110 -0.9732
19599TIP3    H280289   0.281   0.803  13.771  0.6617  0.0614 -0.0840
19600TIP3   OH280290   0.507   0.745  15.884  0.4996 -0.1496  0.3015
19600TIP3    H180291   0.456   0.818  15.918 -0.3170 -0.0969 -0.9856
19600TIP3    H280292   0.586   0.744  15.938  0.8689  2.1160 -0.0754
19601TIP3   OH280293   5.412   4.345   5.020  0.4627  0.5871  0.1338
19601TIP3    H180294   5.364   4.271   4.984  2.1125  0.3791 -1.7813
19601TIP3    H280295   5.347   4.391   5.074 -1.6264 -0.1727 -1.5713
19602TIP3   OH280296   0.166   3.056  15.359 -0.0507 -0.2745 -0.7428
19602TIP3    H180297   0.242   3.023  15.311 -0.8927 -1.2271 -1.4560
19602TIP3    H280298   0.180   3.150  15.365 -0.2547 -0.0096 -3.4988
19603TIP3   OH280299   0.903   4.705  15.776  0.0447  0.1779  0.2664
19603TIP3    H180300   0.848   4.687  15.700  1.4206 -0.9123 -0.5292
19603TIP3    H280301   0.846   4.686  15.851 -1.3449  1.3027 -0.4508
19604TIP3   OH280302   5.615   3.254  13.205 -0.2164  0.2170  0.1151
19604TIP3    H180303   5.621   3.229  13.297  0.7735  1.7311  0.5052
19604TIP3    H280304   5.588   3.346  13.206  2.3152  1.0815 -0.9376
19605TIP3   OH280305   6.568   4.720  15.732  0.3216 -0.1445  0.2971
19605TIP3    H180306   6.486   4.741  15.688  1.4779  0.0587 -1.8644
19605TIP3    H280307   6.559   4.628  15.757  0.1671 -0.6976 -1.6777
19606TIP3   OH280308   2.137   1.300   5.213  0.3082 -0.0482  0.1803
19606TIP3    H180309   2.103   1.220   5.174 -0.5750 -0.1729  1.1734
19606TIP3    H280310   2.113   1.369   5.151  0.4346 -0.4445 -0.3223
19607TIP3   OH280311   3.066   4.605   1.424 -0.1302 -0.1906  0.6974
19607TIP3    H180312   3.158   4.585   1.445  0.5018  0.0027 -1.5808
19607TIP3    H280313   3.071   4.689   1.377 -1.5161 -0.0080  0.8566
19608TIP3   OH280314   3.722   3.493   2.951  0.0691 -0.3735 -0.5446
19608TIP3    H180315   3.703   3.559   2.886  0.8569  0.2015 -0.2112
19608TIP3    H280316   3.727   3.411   2.902 -1.4760 -0.2948 -0.8771
19609TIP3   OH280317   0.495   4.590  17.048  0.1888  0.3104  0.3808
19609TIP3    H180318   0.574   4.569  17.098 -0.5856 -0.2836  1.3969
19609TIP3    H280319   0.431   4.614  17.114 -0.8499 -0.4391 -0.3195
19610TIP3   OH280320   1.350   3.107   2.760  0.3861  0.4527  0.0941
19610TIP3    H180321   1.425   3.164   2.777 -0.6570  1.3699  1.9090
19610TIP3    H280322   1.308   3.095   2.845 -0.1569 -2.0589 -0.4442
19611TIP3   OH280323   3.736   3.815   5.546 -0.2506 -0.2013 -0.1774
19611TIP3    H180324   3.760   3.768   5.466 -2.2515 -0.7341 -0.5027
19611TIP3    H280325   3.723   3.746   5.611  0.3543  0.1679  0.3460
19612TIP3   OH280326   1.482   4.124  11.119  0.4000 -0.2375  0.0411
19612TIP3    H180327   1.556   4.180  11.095  1.1192 -0.4088  1.7445
19612TIP3    H280328   1.485   4.052  11.056 -0.2173  1.3051 -1.8579
19613TIP3   OH280329   3.471   6.637   4.508 -0.7679  0.5825 -0.2307
19613TIP3    H180330   3.420   6.719   4.508 -0.1822  1.0266  2.3694
19613TIP3    H280331   3.454   6.598   4.594  1.5420 -0.3613 -0.1372
19614TIP3   OH280332   2.785   1.634   3.868 -0.2244 -0.5026  0.1763
19614TIP3    H180333   2.876   1.610   3.885  0.5160  1.8895 -0.1216
19614TIP3    H280334   2.787   1.677   3.783 -1.6016 -0.2087  0.2738
19615TIP3   OH280335   2.823   5.470  11.686 -0.4015  0.0343 -0.1226
19615TIP3    H180336   2.736   5.474  11.726 -0.5421 -0.3306 -0.3857
19615TIP3    H280337   2.872   5.541  11.728 -0.4588 -0.5032  0.8898
19616TIP3   OH280338   5.960   3.604  16.049 -0.3103 -0.2927  0.2068
19616TIP3    H180339   5.910   3.569  15.975 -0.3684  0.1738  0.0190
19616TIP3    H280340   5.965   3.698  16.031 -0.1839 -0.2015  0.7155
19617TIP3   OH280341   4.464   5.834  10.553 -0.0242 -0.5947 -0.1561
19617TIP3    H180342   4.386   5.846  10.499 -1.0364  3.3809  1.8181
19617TIP3    H280343   4.458   5.745  10.586 -3.9431 -0.3578  0.1380
19618TIP3   OH280344   5.289   2.522  15.923  0.1843  0.3016 -0.1142
19618TIP3    H180345   5.257   2.446  15.971 -0.7152  0.3561 -0.5999
19618TIP3    H280346   5.380   2.531  15.950  0.0465 -0.4056  0.6308
19619TIP3   OH280347   2.067   3.623  11.852  0.1501  0.0733 -0.4018
19619TIP3    H180348   1.998   3.633  11.787 -1.0169 -0.5213  0.7006
19619TIP3    H280349   2.114   3.707  11.851  0.0777  0.1114 -1.8912
19620TIP3   OH280350   5.422   4.418  10.940  0.5510 -0.4385 -0.0742
19620TIP3    H180351   5.434   4.327  10.910 -0.8590 -0.2162 -1.4456
19620TIP3    H280352   5.503   4.462  10.913 -0.0066 -0.6253 -2.2253
19621TIP3   OH280353   2.192   0.000   2.655  0.0283  0.1033  0.3248
19621TIP3    H180354   2.243   0.020   2.734  1.0379 -1.9674  0.2625
19621TIP3    H280355   2.222   0.064   2.590  2.3650 -0.8080  0.3978
19622TIP3   OH280356   2.500   3.033   4.595 -0.0832 -0.1107  0.5263
19622TIP3    H180357   2.456   3.066   4.673 -0.7901  0.3618 -0.0493
19622TIP3    H280358   2.468   2.943   4.585 -1.4208  0.4151 -0.2108
19623TIP3   OH280359   1.296   4.408  11.812  0.6291 -0.0346  0.2842
19623TIP3    H180360   1.318   4.470  11.882  0.0784  1.4743 -0.8235
19623TIP3    H280361   1.350   4.436  11.738 -0.1650 -0.4403 -0.4591
19624TIP3   OH280362   3.748   4.472  15.253 -0.0723  0.1521  0.1999
19624TIP3    H180363   3.705   4.512  15.328 -0.6131  0.4227 -0.2514
19624TIP3    H280364   3.685   4.479  15.182  0.8182  0.8347 -0.5566
19625TIP3   OH280365   0.616   6.150   0.998  0.3140 -0.1610 -0.1197
19625TIP3    H180366   0.683   6.089   0.967  0.8345  0.5072 -0.3237
19625TIP3    H280367   0.627   6.228   0.944 -0.4133  0.0883  0.0731
19626TIP3   OH280368   4.177   5.160   0.221  0.1362 -0.4239 -0.5765
19626TIP3    H180369   4.139   5.238   0.261 -0.1913 -0.6200 -0.5030
19626TIP3    H280370   4.108   5.127   0.163  0.0235 -1.0406 -0.0972
19627TIP3   OH280371   1.703   2.184   0.886 -0.4926 -0.6329 -0.3703
19627TIP3    H180372   1.741   2.147   0.806  2.0195  2.4393 -0.7838
19627TIP3    H280373   1.759   2.152   0.956  0.1554  0.2713 -0.4484
19628TIP3   OH280374   4.010   0.569   3.375  0.1298 -0.5296  0.2126
19628TIP3    H180375   3.954   0.643   3.352  1.6143  0.5007 -0.2634
19628TIP3    H280376   3.998   0.558   3.470 -1.9534 -1.3148 -0.0875
19629TIP3   OH280377   3.992   4.871   2.833 -0.1711  0.0207 -0.4810
19629TIP3    H180378   4.003   4.964   2.855  1.6041 -0.1188 -0.6451
19629TIP3    H280379   4.059   4.854   2.767 -0.6761 -1.3164 -0.6754
19630TIP3   OH280380   1.043   5.538   2.207  0.4412 -0.4845 -0.6002
19630TIP3    H180381   1.010   5.485   2.280 -2.6290  1.0641 -0.7020
19630TIP3    H280382   1.108   5.596   2.247  0.3226 -1.0453  0.4642
19631TIP3   OH280383   0.897   0.386  17.013  0.7163  0.2293 -0.1667
19631TIP3    H180384   0.813   0.391  16.968  1.0681  0.1675 -0.8443
19631TIP3    H280385   0.952   0.450  16.968  1.3292 -0.4257 -0.3742
19632TIP3   OH280386   2.880   3.224  17.100 -0.4135 -0.4256  0.2181
19632TIP3    H180387   2.846   3.301  17.054 -1.0379  0.3218  1.8529
19632TIP3    H280388   2.880   3.154  17.035  1.0524  1.1531 -1.5888
19633TIP3   OH280389   2.743   3.537   6.405  0.4444  0.0490 -0.4442
19633TIP3    H180390   2.787   3.453   6.391  2.6151  1.3233 -1.6478
19633TIP3    H280391   2.662   3.530   6.355 -1.0051 -2.4021  1.9503
19634TIP3   OH280392   2.241   3.616  14.309 -0.0745 -0.1663  0.0829
19634TIP3    H180393   2.219   3.633  14.401  1.0059  0.3612  0.2619
19634TIP3    H280394   2.324   3.568  14.314  1.1242  1.7405 -0.6625
19635TIP3   OH280395   1.575   3.939   5.343  0.3377 -0.2296  0.5783
19635TIP3    H180396   1.511   3.868   5.346 -0.2634  0.2871  0.2655
19635TIP3    H280397   1.561   3.987   5.425 -2.3187  2.1005 -1.0478
19636TIP3   OH280398   4.957   4.701  15.216 -0.6590  0.0093  0.0975
19636TIP3    H180399   5.023   4.709  15.285 -1.8633 -0.2041  1.3146
19636TIP3    H280400   4.895   4.772  15.234 -1.2765 -0.3862 -0.4297
19637TIP3   OH280401   2.533   1.497   5.536 -0.1641  0.3596 -0.9060
19637TIP3    H180402   2.507   1.587   5.553  1.4542  0.8903 -1.0103
19637TIP3    H280403   2.454   1.455   5.503 -0.8940  1.8002 -1.0889
19638TIP3   OH280404   2.676   2.564  16.768 -0.3365  0.0799 -0.0929
19638TIP3    H180405   2.658   2.478  16.732 -1.1986 -0.0931  0.7039
19638TIP3    H280406   2.604   2.620  16.738  0.7825  0.8232 -1.5087
19639TIP3   OH280407   2.516   6.209  14.670  0.1994  0.9763  0.1633
19639TIP3    H180408   2.481   6.278  14.727  0.5238  1.0637  0.2640
19639TIP3    H280409   2.547   6.141  14.731  1.7468  1.6402  0.1705
19640TIP3   OH280410   1.186   2.192   0.073 -0.3010  0.0207 -0.2878
19640TIP3    H180411   1.260   2.148   0.114  0.7157  1.1059 -0.8758
19640TIP3    H280412   1.226   2.246   0.005 -1.6139  0.8131 -0.4577
19641TIP3   OH280413   1.979   0.022   5.213 -0.3476  0.0303 -0.0010
19641TIP3    H180414   2.073   0.006   5.226 -0.4103  0.6072  1.2902
19641TIP3    H280415   1.967   0.018   5.118  0.4794 -2.8376 -0.0921
19642TIP3   OH280416   0.892   2.118   1.230  0.4608  0.4528 -0.9683
19642TIP3    H180417   0.937   2.048   1.278 -0.5084  1.2833  1.3121
19642TIP3    H280418   0.832   2.156   1.295  0.4395  2.9185 -2.3229
19643TIP3   OH280419   5.905   2.685   0.959  0.3918 -0.2671  0.1647
19643TIP3    H180420   5.877   2.602   0.997  1.3596 -0.6579  0.0474
19643TIP3    H280421   5.824   2.724   0.924 -0.2860 -0.5296  1.3736
19644TIP3   OH280422   2.238   4.304   0.104 -0.2463 -0.4721 -0.0766
19644TIP3    H180423   2.210   4.377   0.049 -2.0002 -1.7108 -0.9134
19644TIP3    H280424   2.208   4.328   0.192  1.2300  0.8124  0.1331
19645TIP3   OH280425   5.733   1.875  11.848 -0.7833 -0.2953  0.1723
19645TIP3    H180426   5.650   1.843  11.813 -1.5419  0.5725  1.0963
19645TIP3    H280427   5.719   1.969  11.859  0.5794 -0.0128 -0.3152
19646TIP3   OH280428   4.923   4.115   4.931 -0.0829 -0.5151  0.1706
19646TIP3    H180429   4.943   4.191   4.985  1.1668 -2.4460  2.6526
19646TIP3    H280430   4.997   4.108   4.871 -0.4557  0.4722 -0.4239
19647TIP3   OH280431   3.480   4.170  10.463 -0.1754 -0.4503  0.1238
19647TIP3    H180432   3.475   4.076  10.481  1.2549 -0.2993  1.4506
19647TIP3    H280433   3.394   4.192  10.426 -0.7404 -2.1490  0.3652
19648TIP3   OH280434   5.988   5.870  16.185  0.6148  0.1560 -0.0034
19648TIP3    H180435   5.959   5.958  16.165  1.2927  0.3927  0.0194
19648TIP3    H280436   5.957   5.817  16.111 -1.0532  0.1314  0.6852
19649TIP3   OH280437   3.218   0.200  16.853  0.0165 -0.5239 -0.0068
19649TIP3    H180438   3.188   0.270  16.795  1.8209  0.2982 -0.0001
19649TIP3    H280439   3.163   0.125  16.831 -1.8286  0.8102 -0.1596
19650TIP3   OH280440   3.044   3.465   2.283  0.3405  0.1318  0.4566
19650TIP3    H180441   3.064   3.513   2.364  0.7133  0.3029  0.2604
19650TIP3    H280442   2.986   3.525   2.234  1.7661  0.9063 -0.3357
19651TIP3   OH280443   5.287   3.354  11.597 -0.5886  0.7031  0.5638
19651TIP3    H180444   5.313   3.432  11.646 -0.4883  0.6231  0.6388
19651TIP3    H280445   5.269   3.386  11.508 -0.8295  0.8582  0.6664
19652TIP3   OH280446   0.542   3.668   1.719 -0.2060  0.1303  0.4483
19652TIP3    H180447   0.553   3.653   1.813 -0.6932 -0.2951  0.4423
19652TIP3    H280448   0.630   3.687   1.688 -0.1789  1.2362  1.1513
19653TIP3   OH280449   6.618   5.578  13.357 -0.2699  0.2891 -0.3476
19653TIP3    H180450   6.699   5.533  13.332 -0.7281  0.6391 -2.8090
19653TIP3    H280451   6.563   5.573  13.278 -1.1288  3.3907 -0.0865
19654TIP3   OH280452   1.637   6.847  11.238 -0.1944 -0.5336  0.0150
19654TIP3    H180453   1.678   6.873  11.320  0.5888 -1.7420  0.0288
19654TIP3    H280454   1.627   6.928  11.189  0.8960 -0.0310  0.6091
19655TIP3   OH280455   2.101   2.387  14.837 -0.3549 -0.6206  0.2476
19655TIP3    H180456   2.105   2.438  14.755  0.2848  0.3460  0.8540
19655TIP3    H280457   2.052   2.308  14.814 -0.1745 -0.3728 -1.0757
19656TIP3   OH280458   4.932   1.974   2.931 -0.0901  0.2086  0.3746
19656TIP3    H180459   4.837   1.980   2.926  0.0511  2.3487 -3.1955
19656TIP3    H280460   4.959   1.941   2.845  2.4169  0.5525  0.9387
19657TIP3   OH280461   6.274   5.276   5.831  0.3673  0.2306  0.2797
19657TIP3    H180462   6.207   5.209   5.844 -0.7141  0.6681 -2.5134
19657TIP3    H280463   6.326   5.244   5.757  0.8645  1.6794 -0.0355
19658TIP3   OH280464   6.207   0.575  17.047  0.0679  0.6402  0.1038
19658TIP3    H180465   6.216   0.626  17.127  0.5405  1.3290 -0.3861
19658TIP3    H280466   6.292   0.582  17.004  0.1146 -0.4978 -0.0127
19659TIP3   OH280467   4.258   4.301   2.634  0.0678  0.1846 -0.0372
19659TIP3    H180468   4.353   4.309   2.640 -0.0917  2.3319  0.8381
19659TIP3    H280469   4.242   4.236   2.566  2.1550 -0.8890  0.4495
19660TIP3   OH280470   0.188   1.836  15.927  0.2193  0.0303  0.5832
19660TIP3    H180471   0.154   1.896  15.993  1.5336  3.0982 -1.2996
19660TIP3    H280472   0.275   1.811  15.960  0.2099  0.2411  0.7680
19661TIP3   OH280473   0.718   0.141  10.178 -0.0728 -0.0622  0.1121
19661TIP3    H180474   0.632   0.123  10.142 -0.0213  0.1243 -0.1019
19661TIP3    H280475   0.710   0.227  10.218 -0.1040 -0.2274  0.4699
19662TIP3   OH280476   0.824   2.505  11.697 -0.0124 -0.1589  0.7220
19662TIP3    H180477   0.903   2.556  11.710 -1.1085  1.4235  1.5466
19662TIP3    H280478   0.832   2.431  11.757  0.8137 -0.0046  0.8099
19663TIP3   OH280479   1.857   4.589   2.547  0.3194 -0.0898  0.1209
19663TIP3    H180480   1.837   4.657   2.612 -1.0007  0.8863 -1.2372
19663TIP3    H280481   1.928   4.538   2.587  0.8238  1.5994  1.5182
19664TIP3   OH280482   3.494   4.980  16.073 -0.2326 -0.8617  0.1404
19664TIP3    H180483   3.531   5.055  16.025 -1.6586  0.0480  0.3855
19664TIP3    H280484   3.408   5.011  16.102 -0.0025 -1.8909  2.0698
19665TIP3   OH280485   0.687   5.691   2.220 -0.1250  0.3253  0.0178
19665TIP3    H180486   0.764   5.747   2.231 -0.4511  0.6717  0.5881
19665TIP3    H280487   0.680   5.644   2.303  0.0092 -0.4039 -0.3726
19666TIP3   OH280488   5.817   2.366  15.881  0.0598  0.4336 -0.6621
19666TIP3    H180489   5.825   2.444  15.825  0.7835 -0.0291 -1.2255
19666TIP3    H280490   5.851   2.294  15.827 -1.0969 -0.3785 -0.3513
19667TIP3   OH280491   6.831   1.764  16.158 -0.2228 -0.0862  0.7158
19667TIP3    H180492   6.803   1.838  16.105  1.5380  0.3391  0.3007
19667TIP3    H280493   6.837   1.798  16.247 -1.4367 -0.3129  0.8956
19668TIP3   OH280494   1.554   5.003   1.222  0.1294  0.6214 -0.1211
19668TIP3    H180495   1.521   5.005   1.132  0.6593  1.6783 -0.3118
19668TIP3    H280496   1.643   4.968   1.213 -0.2761 -0.5358  0.1729
19669TIP3   OH280497   4.526   3.784  14.793  0.0981 -0.0940 -0.9232
19669TIP3    H180498   4.438   3.751  14.812 -0.5942  1.2889 -1.5697
19669TIP3    H280499   4.583   3.733  14.850 -1.3321  0.3196  0.9712
19670TIP3   OH280500   4.503   3.593   0.909 -0.0950  0.1093  0.2197
19670TIP3    H180501   4.508   3.594   0.813  0.9272  1.0755  0.2703
19670TIP3    H280502   4.543   3.509   0.934  1.0806  0.5361 -0.1506
19671TIP3   OH280503   2.227   2.078  15.051 -0.5582  0.0098 -0.1885
19671TIP3    H180504   2.168   2.081  15.127 -0.8280  0.7711 -0.4110
19671TIP3    H280505   2.257   2.169  15.042  0.2275 -0.2717 -0.4063
19672TIP3   OH280506   1.508   5.840  16.362  0.1532  0.0108 -0.0332
19672TIP3    H180507   1.515   5.745  16.362  0.3196  0.0051 -1.5245
19672TIP3    H280508   1.555   5.868  16.441  0.3029 -1.1163  0.2894
19673TIP3   OH280509   5.543   4.901  13.625  0.6005 -0.7809  0.0511
19673TIP3    H180510   5.486   4.968  13.587  0.3792 -1.5630 -1.0730
19673TIP3    H280511   5.610   4.949  13.673  1.3333  0.3164 -1.9637
19674TIP3   OH280512   0.239   1.672  14.505 -0.1535 -0.1126  0.4969
19674TIP3    H180513   0.252   1.587  14.463 -2.5463 -0.3735  0.1428
19674TIP3    H280514   0.236   1.652  14.598  1.6816 -0.0334  0.6016
19675TIP3   OH280515   3.888   1.409  12.571  0.4298  0.2047  0.0575
19675TIP3    H180516   3.797   1.382  12.556  0.3518 -0.8538  2.1245
19675TIP3    H280517   3.900   1.400  12.665  2.1124  2.2380  0.0956
19676TIP3   OH280518   0.301   4.257   1.925  0.0987  0.1685  0.2221
19676TIP3    H180519   0.296   4.212   1.841 -0.9072  0.4289  0.1255
19676TIP3    H280520   0.212   4.252   1.960  0.6352 -0.4919  1.5723
19677TIP3   OH280521   4.167   5.393   2.712  0.1827  0.2530 -0.0831
19677TIP3    H180522   4.185   5.472   2.763  0.3709  1.3505 -1.7503
19677TIP3    H280523   4.246   5.381   2.659 -0.9215  0.6873 -1.9566
19678TIP3   OH280524   0.836   5.969   2.003 -0.3959  0.5570  0.0428
19678TIP3    H180525   0.836   5.978   1.907 -2.2710  0.6632  0.0123
19678TIP3    H280526   0.858   5.877   2.019 -1.4402  0.1878 -0.5647
19679TIP3   OH280527   1.911   4.431   0.610 -0.1792  0.7485 -0.0042
19679TIP3    H180528   1.993   4.473   0.636 -0.1186  0.3656  0.4578
19679TIP3    H280529   1.907   4.352   0.665 -0.5860  0.4778 -0.4173
19680TIP3   OH280530   0.463   5.897  10.585 -0.0106  0.0405  0.2764
19680TIP3    H180531   0.385   5.859  10.626  0.0371 -0.8138 -0.4155
19680TIP3    H280532   0.428   5.950  10.513  0.1193 -2.5452 -1.8318
19681TIP3   OH280533   0.384   2.971  16.490 -0.4735  0.2200 -0.3843
19681TIP3    H180534   0.360   3.058  16.522 -1.6532 -0.6324  1.1971
19681TIP3    H280535   0.458   2.945  16.544 -0.8143 -0.1823 -0.1029
19682TIP3   OH280536   1.806   4.504  16.484 -0.0610  0.1112  0.2712
19682TIP3    H180537   1.841   4.528  16.569 -1.3063 -2.1891  1.5466
19682TIP3    H280538   1.879   4.462  16.438 -0.2330 -1.9232  1.7110
19683TIP3   OH280539   1.301   0.420  15.525 -0.4043  0.4088 -0.3872
19683TIP3    H180540   1.324   0.476  15.599 -0.2823  0.1456 -0.2246
19683TIP3    H280541   1.377   0.361  15.515 -0.1554  0.8378 -1.1011
19684TIP3   OH280542   4.660   6.248  11.537 -0.6932  0.1929  0.0533
19684TIP3    H180543   4.660   6.275  11.629 -1.8324 -0.9719  0.4164
19684TIP3    H280544   4.636   6.327  11.489 -0.5355  0.6937  0.7860
19685TIP3   OH280545   0.998   6.272  13.125 -0.0549 -0.3267  0.4870
19685TIP3    H180546   1.028   6.341  13.184  0.5434 -0.5402  0.4474
19685TIP3    H280547   1.022   6.190  13.169 -0.4424 -0.5014  0.3763
19686TIP3   OH280548   3.544   3.306   5.844  0.4806 -0.2908  0.2323
19686TIP3    H180549   3.456   3.343   5.836  0.6279 -0.3331 -2.2600
19686TIP3    H280550   3.534   3.214   5.818  1.0264 -0.7078  1.4101
19687TIP3   OH280551   2.602   1.254   4.977  0.6441  0.1352 -0.1833
19687TIP3    H180552   2.563   1.308   5.045 -0.7114 -1.3611  0.2867
19687TIP3    H280553   2.528   1.204   4.941  1.7124 -0.8204 -1.1234
19688TIP3   OH280554   4.131   0.134   5.021 -0.0637 -0.1773  0.1176
19688TIP3    H180555   4.047   0.112   4.981  0.4533 -0.6508 -0.7288
19688TIP3    H280556   4.112   0.137   5.115 -1.2921  0.9657 -0.1279
19689TIP3   OH280557   2.546   6.280  14.013 -0.2637  0.1766  0.2746
19689TIP3    H180558   2.457   6.257  14.042 -1.0758  0.7498 -1.5978
19689TIP3    H280559   2.591   6.196  14.005 -0.4512 -0.0844  1.7441
19690TIP3   OH280560   5.668   2.018  11.238 -0.4130  0.2176  0.0079
19690TIP3    H180561   5.760   2.044  11.231 -0.1165 -0.2676  1.6156
19690TIP3    H280562   5.663   1.972  11.322 -2.0418 -0.1420 -0.2592
19691TIP3   OH280563   5.283   6.776  16.569  0.1351  0.9970 -0.0083
19691TIP3    H180564   5.279   6.732  16.485  1.5813  2.7604 -1.0743
19691TIP3    H280565   5.192   6.795  16.592 -0.2437  0.9554 -1.4298
19692TIP3   OH280566   2.590   5.879  16.705 -0.0305  0.4460  0.1141
19692TIP3    H180567   2.572   5.805  16.764  0.0356  0.9157  0.7289
19692TIP3    H280568   2.684   5.894  16.714 -0.2621  1.4716  1.0334
19693TIP3   OH280569   0.541   1.667   0.374  0.0097  0.1660  0.0314
19693TIP3    H180570   0.448   1.685   0.361 -0.1376 -0.5594  0.0863
19693TIP3    H280571   0.583   1.752   0.358 -0.7693  0.8079  1.2590
19694TIP3   OH280572   5.210   3.018   5.580  0.1348  0.0700 -0.1604
19694TIP3    H180573   5.306   3.013   5.575  0.0948 -1.1924  0.0839
19694TIP3    H280574   5.179   2.973   5.501 -0.2677 -0.7702  0.4697
19695TIP3   OH280575   3.292   5.735   3.140 -0.1627 -0.6489  0.1232
19695TIP3    H180576   3.257   5.653   3.103  1.1501 -0.9803 -0.4265
19695TIP3    H280577   3.362   5.706   3.198  0.3345  0.0878 -0.1015
19696TIP3   OH280578   1.581   4.909  16.651 -0.1283  0.4885  0.1262
19696TIP3    H180579   1.536   4.938  16.572 -0.1369 -0.5783 -0.2708
19696TIP3    H280580   1.516   4.855  16.697  0.1853  0.3425  0.3980
19697TIP3   OH280581   5.578   5.284  12.072 -0.3167  0.1996 -0.2538
19697TIP3    H180582   5.621   5.198  12.080 -0.3074 -0.2276 -3.3785
19697TIP3    H280583   5.648   5.342  12.043 -0.6186  0.9680  0.5294
19698TIP3   OH280584   0.467   3.426   3.546  0.4852  0.2801 -0.0581
19698TIP3    H180585   0.422   3.471   3.618 -0.7835  0.8125 -1.1670
19698TIP3    H280586   0.420   3.343   3.536  1.6907 -0.5494  0.7710
19699TIP3   OH280587   0.161   5.101   3.656  0.5263 -0.3265  0.2533
19699TIP3    H180588   0.243   5.051   3.657  0.7896  0.0975  0.7390
19699TIP3    H280589   0.183   5.183   3.701 -0.2889 -0.4103  0.8364
19700TIP3   OH280590   0.432   1.192  14.081 -0.2942  0.3888  0.2489
19700TIP3    H180591   0.498   1.156  14.140  0.0642  1.9352  0.8343
19700TIP3    H280592   0.407   1.276  14.120 -1.8485  0.3335 -0.5179
19701TIP3   OH280593   5.501   1.673   5.608 -0.1371  0.1048 -0.3940
19701TIP3    H180594   5.473   1.610   5.542  1.6496  0.9465 -2.0676
19701TIP3    H280595   5.569   1.725   5.564  0.9318  0.9043  2.0337
19702TIP3   OH280596   4.791   4.307   2.797  0.1525 -0.2019  1.2382
19702TIP3    H180597   4.843   4.388   2.795 -3.4023  2.3791  1.8465
19702TIP3    H280598   4.744   4.312   2.880 -1.6789 -1.8719  0.3800
19703TIP3   OH280599   3.484   3.684  10.357  0.4127 -0.0530  0.6500
19703TIP3    H180600   3.521   3.681  10.269 -0.0989  2.1270  0.2890
19703TIP3    H280601   3.483   3.593  10.386  0.1020 -0.9103 -1.7962
19704TIP3   OH280602   5.378   6.443  10.265  0.1007 -0.6663 -0.1670
19704TIP3    H180603   5.420   6.473  10.345  1.1999 -2.8280  0.1570
19704TIP3    H280604   5.287   6.428  10.289 -0.4238  1.9039 -0.2740
19705TIP3   OH280605   3.831   0.601   0.095  0.6437 -0.0604  0.1815
19705TIP3    H180606   3.822   0.604  -0.001  0.0979 -1.2789  0.1722
19705TIP3    H280607   3.921   0.574   0.109  0.9365  0.8141  0.0322
19706TIP3   OH280608   2.676   0.845   3.936 -0.0590  0.3217 -0.5688
19706TIP3    H180609   2.708   0.933   3.957 -0.4166  0.1412  0.8740
19706TIP3    H280610   2.719   0.788   4.000 -0.6764 -0.3891 -0.7726
19707TIP3   OH280611   4.437   5.907   3.936  0.3524  0.1225 -0.3727
19707TIP3    H180612   4.381   5.943   3.868  2.1737 -0.1236 -2.0893
19707TIP3    H280613   4.396   5.823   3.958 -0.3575  0.2913 -1.0081
19708TIP3   OH280614   3.317   1.091  11.296  0.6310  0.0168 -0.4704
19708TIP3    H180615   3.327   0.999  11.320  0.0716 -0.1135 -0.7183
19708TIP3    H280616   3.301   1.136  11.379  2.1477  0.0868 -0.1865
19709TIP3   OH280617   6.167   2.483  14.986  0.2193  0.2751 -0.3267
19709TIP3    H180618   6.172   2.388  14.999 -1.9123  0.0844 -0.4897
19709TIP3    H280619   6.094   2.495  14.925  0.4037  2.0341 -0.2519
19710TIP3   OH280620   1.918   2.181  15.796  0.4777  0.3105 -0.7682
19710TIP3    H180621   1.867   2.224  15.865 -0.0704 -1.1247 -0.2425
19710TIP3    H280622   1.854   2.127  15.750  1.3410 -0.7477 -0.7423
19711TIP3   OH280623   0.200   4.716   0.197  0.2951 -0.7866  0.0411
19711TIP3    H180624   0.295   4.709   0.187  0.3082 -0.6723  0.0860
19711TIP3    H280625   0.168   4.741   0.111  0.1073 -2.7385 -0.5063
19712TIP3   OH280626   1.367   0.858  10.627  0.2592  0.3305  0.0048
19712TIP3    H180627   1.299   0.812  10.675  1.2107 -0.9672  0.1535
19712TIP3    H280628   1.361   0.949  10.658 -0.6134 -0.0110  0.8828
19713TIP3   OH280629   1.182   4.261  11.502  0.4746 -0.7237 -0.0744
19713TIP3    H180630   1.266   4.219  11.481 -0.2114 -1.0664 -2.4205
19713TIP3    H280631   1.159   4.309  11.423 -2.7683 -2.7657 -0.5647
19714TIP3   OH280632   5.606   4.705   1.871 -0.6249  0.4120 -0.7591
19714TIP3    H180633   5.545   4.728   1.800 -1.5943 -1.9009 -0.7614
19714TIP3    H280634   5.550   4.682   1.945  0.3642  1.7172  0.4609
19715TIP3   OH280635   1.001   5.744  12.163  0.2607  0.7749 -0.3628
19715TIP3    H180636   0.973   5.679  12.229  1.0212  2.7122  2.0099
19715TIP3    H280637   1.077   5.787  12.203  0.1034  2.7760 -2.0661
19716TIP3   OH280638   4.171   3.405   4.854 -0.3106  0.6740 -0.0664
19716TIP3    H180639   4.167   3.374   4.944 -0.9749  0.0731 -0.2980
19716TIP3    H280640   4.265   3.408   4.834 -0.1455  1.0401  0.7137
19717TIP3   OH280641   3.797   0.156   3.568  0.8347 -0.0548  0.1698
19717TIP3    H180642   3.810   0.064   3.545 -0.5544 -0.1176 -0.4945
19717TIP3    H280643   3.794   0.156   3.664 -0.1717 -0.8760  0.1566
19718TIP3   OH280644   2.911   3.709   4.316  0.4975  0.0347 -0.7458
19718TIP3    H180645   2.844   3.658   4.271  0.2690  1.5375 -2.2069
19718TIP3    H280646   2.871   3.731   4.400 -0.5640  0.2692 -1.2945
19719TIP3   OH280647   5.069   4.920  15.002 -0.1445  0.0886  0.2575
19719TIP3    H180648   5.050   5.013  15.007  0.0476  0.0610  3.8889
19719TIP3    H280649   4.987   4.879  14.976 -0.7082  1.1341  0.3718
19720TIP3   OH280650   6.434   5.159  16.394 -0.8180  0.1630 -0.1701
19720TIP3    H180651   6.417   5.244  16.354  1.7049  1.3311  1.0310
19720TIP3    H280652   6.497   5.178  16.464  0.9555 -2.8938 -0.7953
19721TIP3   OH280653   2.125   4.078   0.779 -0.5942 -0.0578 -0.1801
19721TIP3    H180654   2.188   4.139   0.739 -0.8587  2.7058  3.1818
19721TIP3    H280655   2.062   4.059   0.709  1.5175  0.5522 -2.3946
19722TIP3   OH280656   1.168   5.895   1.872 -0.0265  0.0012  0.0642
19722TIP3    H180657   1.080   5.879   1.906 -0.2312 -1.1196 -0.9467
19722TIP3    H280658   1.180   5.829   1.804  2.4179 -1.2903  1.6084
19723TIP3   OH280659   1.862   5.729  15.342  0.1272  0.2036 -0.1895
19723TIP3    H180660   1.789   5.782  15.374 -1.5994 -2.4430  0.6163
19723TIP3    H280661   1.935   5.751  15.400 -0.6237  1.4148  0.3335
19724TIP3   OH280662   5.573   1.909  10.973 -0.0572 -0.6635  0.0161
19724TIP3    H180663   5.495   1.959  10.995  0.0846 -0.9975  1.3553
19724TIP3    H280664   5.621   1.902  11.056  2.3593  1.1645 -1.0875
19725TIP3   OH280665   6.850   5.879   4.639 -0.0378  0.0091 -0.2225
19725TIP3    H180666   6.803   5.957   4.669  0.8803  0.5600 -0.1703
19725TIP3    H280667   6.825   5.810   4.701 -0.8402  0.2627 -0.2581
19726TIP3   OH280668   5.238   2.912  11.946 -0.3277 -0.1650  0.4371
19726TIP3    H180669   5.278   2.840  11.996  1.8212  0.1154 -0.7447
19726TIP3    H280670   5.223   2.875  11.859  0.7724  0.7684 -0.1723
19727TIP3   OH280671   6.512   5.372  11.329  0.2241  0.6977  0.6882
19727TIP3    H180672   6.509   5.359  11.234  1.8017  0.6360  0.6268
19727TIP3    H280673   6.495   5.465  11.342 -0.0539  0.6944  0.3668
19728TIP3   OH280674   4.660   2.642  12.740 -0.0573  0.5332  0.2784
19728TIP3    H180675   4.726   2.583  12.704  0.3072 -0.1468  1.9590
19728TIP3    H280676   4.652   2.712  12.675  0.8631 -0.3932 -0.8799
19729TIP3   OH280677   2.486   1.719  12.470  0.0253 -0.4274 -0.4951
19729TIP3    H180678   2.424   1.647  12.469 -0.6708  0.1632 -0.3461
19729TIP3    H280679   2.480   1.756  12.558  1.3427 -1.0036 -0.1428
19730TIP3   OH280680   0.737   5.853  12.556 -0.3525 -0.1779 -0.0806
19730TIP3    H180681   0.690   5.823  12.478  1.0678  1.0433 -1.4598
19730TIP3    H280682   0.805   5.786  12.570 -1.0192 -0.7460  0.5493
19731TIP3   OH280683   0.758   3.858   5.289 -0.6130  0.2519 -0.1775
19731TIP3    H180684   0.721   3.947   5.287  0.1789  0.5904  0.0143
19731TIP3    H280685   0.723   3.820   5.370  0.8907  1.2220  0.9883
19732TIP3   OH280686   3.955   1.545  13.988 -0.3382 -0.2103  0.3977
19732TIP3    H180687   3.895   1.564  14.060  0.8152  1.1504  1.0553
19732TIP3    H280688   4.036   1.518  14.032  0.3716  0.6257 -0.3683
19733TIP3   OH280689   3.778   3.122  15.229 -0.4826 -0.1070  0.4873
19733TIP3    H180690   3.818   3.205  15.254  0.4767 -0.5101  0.3364
19733TIP3    H280691   3.705   3.146  15.173  0.0219  0.6301  0.1313
19734TIP3   OH280692   1.084   0.993   1.472  0.1404 -0.1630  0.1928
19734TIP3    H180693   1.045   1.029   1.551 -1.1373 -1.4000  0.1784
19734TIP3    H280694   1.170   0.963   1.498 -0.2422 -0.4909  1.1089
19735TIP3   OH280695   3.351   1.245   0.817  0.2561 -0.1070 -0.5980
19735TIP3    H180696   3.443   1.266   0.802  0.0356 -0.5822 -2.9646
19735TIP3    H280697   3.337   1.162   0.773 -0.9257 -0.9898  1.2705
19736TIP3   OH280698   3.485   5.249   3.787  0.0888  0.0281 -0.5879
19736TIP3    H180699   3.399   5.249   3.828  0.0875  1.4482 -0.5383
19736TIP3    H280700   3.542   5.294   3.850  0.8499 -0.7653 -0.6793
19737TIP3   OH280701   1.544   6.846  13.177  0.5164 -0.7350  0.3619
19737TIP3    H180702   1.526   6.896  13.257 -0.7568 -0.8370  0.1525
19737TIP3    H280703   1.590   6.907  13.120 -1.5951  0.4640 -0.1602
19738TIP3   OH280704   1.555   1.682  17.116  0.1135 -0.3599 -0.0836
19738TIP3    H180705   1.618   1.640  17.058 -0.5047 -0.2387 -0.8624
19738TIP3    H280706   1.574   1.775  17.108 -0.1494 -0.3237 -0.3126
19739TIP3   OH280707   5.287   2.029   3.122 -0.3443 -0.3547 -0.1150
19739TIP3    H180708   5.230   1.956   3.099  1.0221 -1.2558 -0.7929
19739TIP3    H280709   5.244   2.106   3.085 -0.6834 -1.1239 -1.3633
19740TIP3   OH280710   4.393   0.578  16.920  0.1160  0.0229 -0.3099
19740TIP3    H180711   4.305   0.548  16.896  0.1053 -0.1144 -0.1003
19740TIP3    H280712   4.451   0.508  16.888  0.1655  0.2060 -0.6227
19741TIP3   OH280713   4.413   3.766   2.052 -0.3984  0.4481  0.1884
19741TIP3    H180714   4.416   3.670   2.052  1.4251  0.4701  0.8402
19741TIP3    H280715   4.391   3.790   1.962  1.1513 -0.5707 -0.5051
19742TIP3   OH280716   0.093   3.277  15.127 -0.3109 -0.0035  0.1266
19742TIP3    H180717   0.031   3.349  15.110  0.2187  0.8310  1.5486
19742TIP3    H280718   0.117   3.288  15.219  2.5869  0.2389 -0.5605
19743TIP3   OH280719   2.790   5.584   4.514 -0.4002 -0.6460  0.5726
19743TIP3    H180720   2.864   5.559   4.569  0.3448  1.5242  0.6540
19743TIP3    H280721   2.792   5.521   4.442  1.7497 -0.4909  0.4084
19744TIP3   OH280722   0.391   4.876   1.974  0.6291 -0.2068 -0.2554
19744TIP3    H180723   0.454   4.946   1.991 -0.7732  1.2497 -0.7630
19744TIP3    H280724   0.444   4.797   1.969  2.9162  1.2880 -3.6339
19745TIP3   OH280725   0.545   4.681  12.405 -0.4712  0.1827 -0.9555
19745TIP3    H180726   0.631   4.651  12.433 -1.5876 -0.8427  1.7275
19745TIP3    H280727   0.500   4.601  12.377 -1.2995  0.3172 -0.0583
19746TIP3   OH280728   0.130   2.332  12.543 -0.7713  0.0436  0.1835
19746TIP3    H180729   0.067   2.383  12.492  0.1505 -0.0413 -1.0753
19746TIP3    H280730   0.138   2.249  12.496  0.1949  0.0121  0.3910
19747TIP3   OH280731   0.608   2.104   5.347 -0.6096  0.4985  0.0052
19747TIP3    H180732   0.593   2.165   5.275  0.6586  0.7134 -0.1044
19747TIP3    H280733   0.564   2.143   5.422  2.1610  2.8778  0.5694
19748TIP3   OH280734   1.697   1.427   5.355 -0.9320  0.7032  0.6501
19748TIP3    H180735   1.712   1.468   5.440 -0.2599 -0.9015  1.3540
19748TIP3    H280736   1.602   1.432   5.343 -1.1457  0.1940  1.9320
19749TIP3   OH280737   3.073   4.036   2.644 -0.5441  0.3338 -0.2056
19749TIP3    H180738   3.014   4.034   2.569 -0.2453 -4.3863 -0.6188
19749TIP3    H280739   3.022   4.000   2.716  1.1637 -2.0718 -0.0970
19750TIP3   OH280740   1.737   0.759   5.704 -0.0558  0.6157 -0.5982
19750TIP3    H180741   1.764   0.847   5.679  1.9397 -0.3931 -2.3220
19750TIP3    H280742   1.697   0.723   5.624  0.0535 -0.3643 -0.2216
19751TIP3   OH280743   3.173   1.386  12.481  0.6875 -0.6079  0.0906
19751TIP3    H180744   3.148   1.340  12.401  0.5323 -0.6517  0.1653
19751TIP3    H280745   3.205   1.316  12.539 -1.5856 -0.9455  1.0334
19752TIP3   OH280746   1.922   2.894  16.594 -0.0578  0.0011 -0.0804
19752TIP3    H180747   1.898   2.984  16.616 -1.1300 -0.4328  0.6561
19752TIP3    H280748   1.866   2.841  16.651  1.3705 -1.1166  0.3190
19753TIP3   OH280749   6.769   2.387  14.794  0.0016 -0.4548 -0.0437
19753TIP3    H180750   6.741   2.305  14.835 -3.7218  0.3752 -0.5108
19753TIP3    H280751   6.773   2.450  14.866  1.1526 -0.6260  0.0629
19754TIP3   OH280752   4.881   0.288   2.069  0.2901  0.1822 -0.0987
19754TIP3    H180753   4.900   0.355   2.003 -0.9962  0.6356 -0.0372
19754TIP3    H280754   4.949   0.222   2.057 -0.1290  0.0591 -2.1493
19755TIP3   OH280755   6.483   0.348   2.112 -0.1896  0.5247  0.1865
19755TIP3    H180756   6.569   0.386   2.095 -0.5340  0.7842 -1.0851
19755TIP3    H280757   6.457   0.385   2.196  0.3961  1.4618 -0.0258
19756TIP3   OH280758   2.322   4.960   3.943 -1.0381 -0.4386  0.0561
19756TIP3    H180759   2.348   5.048   3.969 -2.5920  0.6832 -1.8781
19756TIP3    H280760   2.303   4.967   3.850  2.0833 -3.6650 -1.0704
19757TIP3   OH280761   5.301   0.109  15.627 -0.0958 -0.1486 -0.8588
19757TIP3    H180762   5.390   0.138  15.645 -0.7192  2.4185 -1.4579
19757TIP3    H280763   5.270   0.073  15.710  0.8041  0.9294 -0.0123
19758TIP3   OH280764   1.390   5.571  16.287 -0.3286 -0.9136 -0.3759
19758TIP3    H180765   1.381   5.501  16.222 -0.0530 -0.4552 -0.9277
19758TIP3    H280766   1.418   5.527  16.367 -2.0763 -1.6712 -0.1510
19759TIP3   OH280767   3.002   1.048   6.759  0.0776  0.1936  0.4624
19759TIP3    H180768   2.944   1.032   6.833 -1.2143  1.5667 -0.2115
19759TIP3    H280769   2.992   0.971   6.702  0.4775 -0.4953  1.2984
19760TIP3   OH280770   6.265   4.011   1.239 -0.1572 -0.2564  0.0651
19760TIP3    H180771   6.202   4.033   1.171  0.2912 -0.6561 -0.4800
19760TIP3    H280772   6.236   4.062   1.315 -1.8371 -1.3321  0.1981
19761TIP3   OH280773   2.581   6.017   0.089  0.2667 -0.0206 -0.3645
19761TIP3    H180774   2.634   6.031   0.011  1.2308 -1.0845  0.0690
19761TIP3    H280775   2.643   6.025   0.162 -0.6516  1.1643  0.3277
19762TIP3   OH280776   4.658   3.232  14.317  0.4813  0.3034 -0.1798
19762TIP3    H180777   4.609   3.310  14.342  1.1022  0.5182  0.3990
19762TIP3    H280778   4.747   3.249  14.348  0.7509 -0.3989 -0.5503
19763TIP3   OH280779   0.790   2.099   4.181  0.2962  0.1890  0.6352
19763TIP3    H180780   0.792   2.159   4.255 -1.1361 -0.8118  1.5378
19763TIP3    H280781   0.747   2.021   4.215  0.8988 -0.8391 -0.8781
19764TIP3   OH280782   4.628   0.492  15.179  0.1045 -0.5295  0.4079
19764TIP3    H180783   4.620   0.467  15.087 -1.8203 -1.2009  0.7131
19764TIP3    H280784   4.715   0.463  15.204  2.2226  2.8773 -2.0826
19765TIP3   OH280785   4.588   6.327  14.150 -0.1166 -0.5299 -0.6188
19765TIP3    H180786   4.546   6.371  14.224  0.9070  0.9760 -0.8833
19765TIP3    H280787   4.682   6.330  14.169  0.3527  1.4909 -2.7302
19766TIP3   OH280788   0.475   3.574   6.661 -0.0510  0.3509 -0.3870
19766TIP3    H180789   0.427   3.503   6.618 -1.1184  0.9809 -0.2701
19766TIP3    H280790   0.418   3.650   6.652  1.0714  1.1982 -0.4920
19767TIP3   OH280791   5.030   0.796  12.697  0.2156 -0.0594 -0.4059
19767TIP3    H180792   5.113   0.779  12.741  0.0217  0.1397  0.0443
19767TIP3    H280793   5.006   0.885  12.724  0.4830  0.3787 -1.5413
19768TIP3   OH280794   5.927   1.016   5.518  0.3594 -0.3051 -0.5240
19768TIP3    H180795   5.977   0.946   5.558  0.0064 -0.1335  0.2256
19768TIP3    H280796   5.983   1.047   5.447  1.3603 -0.0660  0.3452
19769TIP3   OH280797   3.562   1.240  12.725  0.1683  0.0035 -0.2163
19769TIP3    H180798   3.607   1.297  12.787  0.1832  1.3000 -1.3908
19769TIP3    H280799   3.586   1.151  12.753  1.3297  0.5968  0.7455
19770TIP3   OH280800   5.703   1.366   3.261  0.3706  0.5859  0.3710
19770TIP3    H180801   5.741   1.284   3.230 -1.2065 -0.2292  0.4806
19770TIP3    H280802   5.684   1.415   3.181 -1.1688 -0.3462  0.1196
19771TIP3   OH280803   1.288   1.601  13.338 -0.2102  0.5703 -0.2630
19771TIP3    H180804   1.301   1.564  13.425 -2.1101 -0.3843 -0.3257
19771TIP3    H280805   1.257   1.690  13.354 -5.4567 -1.0316  0.4376
19772TIP3   OH280806   2.444   5.825   5.761  0.3712 -0.3826  0.3664
19772TIP3    H180807   2.434   5.745   5.813 -0.1883 -0.1817  0.5744
19772TIP3    H280808   2.380   5.885   5.798  0.7860  0.1617  0.2057
19773TIP3   OH280809   0.126   6.647  13.321  0.1051 -0.5609 -0.0972
19773TIP3    H180810   0.099   6.739  13.326 -1.7018 -1.1094  0.8120
19773TIP3    H280811   0.203   6.649  13.264 -0.4173  1.3999 -0.8355
19774TIP3   OH280812   4.853   2.257   2.521  0.2642  0.1315  0.6766
19774TIP3    H180813   4.812   2.304   2.594  0.9207  2.2395 -0.2253
19774TIP3    H280814   4.812   2.295   2.443 -0.0668 -1.7248 -0.0917
19775TIP3   OH280815   2.525   1.049  12.979  0.5693 -0.1358  0.2407
19775TIP3    H180816   2.435   1.016  12.981 -0.4088  2.2587 -0.0126
19775TIP3    H280817   2.562   1.015  12.898 -0.3862 -0.5485 -0.0317
19776TIP3   OH280818   4.811   6.851   2.533 -0.1337 -0.2248 -0.3331
19776TIP3    H180819   4.723   6.879   2.556 -0.7126 -0.1781 -2.3836
19776TIP3    H280820   4.831   6.898   2.452  2.3134  0.7638  0.7304
19777TIP3   OH280821   5.340   2.457  15.118  0.0295 -0.5755 -0.1521
19777TIP3    H180822   5.292   2.486  15.040 -1.4978 -0.8144  0.6460
19777TIP3    H280823   5.346   2.535  15.173  3.5306  0.3316 -1.5569
19778TIP3   OH280824   4.189   4.254  16.400  0.0327 -0.8124  0.1665
19778TIP3    H180825   4.136   4.208  16.466  0.0130  0.6666  1.2361
19778TIP3    H280826   4.198   4.343  16.435 -1.7277  0.6658 -2.7758
19779TIP3   OH280827   0.272   0.407   5.306 -0.3340  0.1211  0.2406
19779TIP3    H180828   0.338   0.384   5.241 -1.0078  1.5918 -1.0314
19779TIP3    H280829   0.320   0.410   5.389  1.0681  0.4745 -0.5419
19780TIP3   OH280830   4.649   6.414  11.996  0.3951  0.1688 -0.6691
19780TIP3    H180831   4.623   6.397  12.087  0.3175 -0.4971 -0.8040
19780TIP3    H280832   4.732   6.461  12.003  0.4946 -0.0550 -0.2523
19781TIP3   OH280833   4.452   4.403   4.872  0.1596  0.8457  0.5278
19781TIP3    H180834   4.444   4.375   4.781 -1.8769  1.2474  0.5316
19781TIP3    H280835   4.417   4.330   4.923  1.1921  0.6625  0.9967
19782TIP3   OH280836   0.774   6.621  14.477 -0.5692  0.1185 -0.0819
19782TIP3    H180837   0.791   6.624  14.571 -1.4284 -0.2647  0.0992
19782TIP3    H280838   0.697   6.678  14.466 -1.4853 -1.1269 -0.3012
19783TIP3   OH280839   3.578   1.905  12.989  0.1501  0.1197 -0.2582
19783TIP3    H180840   3.622   1.871  12.911  1.2138  1.1540 -0.1283
19783TIP3    H280841   3.617   1.858  13.062  1.2574  1.1905 -0.1231
19784TIP3   OH280842   6.828   3.264   5.487  0.0875  0.1217 -0.4070
19784TIP3    H180843   6.839   3.334   5.551 -0.0130  1.6369 -1.9836
19784TIP3    H280844   6.880   3.292   5.411  0.1972 -1.6018 -1.0176
19785TIP3   OH280845   5.599   0.908   3.456  0.3675  0.2226  0.3590
19785TIP3    H180846   5.621   0.982   3.512  0.5499  1.0179 -0.7580
19785TIP3    H280847   5.682   0.881   3.416  0.1151  0.1310 -0.1086
19786TIP3   OH280848   0.218   4.752  14.700 -0.0236  0.0621 -0.6405
19786TIP3    H180849   0.148   4.728  14.761  0.2146  1.4285  0.2248
19786TIP3    H280850   0.186   4.831  14.657  0.6929  0.3025 -0.7485
19787TIP3   OH280851   0.955   5.050  11.984 -0.3044 -0.3132  0.1334
19787TIP3    H180852   1.003   5.112  12.039  0.4415  0.2924 -1.1467
19787TIP3    H280853   0.881   5.101  11.949 -0.2667 -0.4318 -0.1231
19788TIP3   OH280854   1.486   4.454   5.490  0.2796 -0.1226  0.1542
19788TIP3    H180855   1.422   4.524   5.504  0.2275  0.0788 -0.9843
19788TIP3    H280856   1.434   4.379   5.462  0.3322 -0.6555  1.4156
19789TIP3   OH280857   2.499   1.730   3.818  0.3461  0.0739 -0.2016
19789TIP3    H180858   2.487   1.659   3.880 -0.6077 -0.3752 -0.8850
19789TIP3    H280859   2.542   1.690   3.742 -0.3248  0.1744 -0.6495
19790TIP3   OH280860   5.203   0.885  15.500 -0.2899 -0.0659 -0.0568
19790TIP3    H180861   5.148   0.959  15.476  0.5940  0.1539 -1.5825
19790TIP3    H280862   5.247   0.912  15.580 -0.5429  0.7606 -0.1879
19791TIP3   OH280863   2.266   0.998  12.235  0.1083 -0.1502  0.6303
19791TIP3    H180864   2.338   0.935  12.240  0.1653 -0.2719 -1.0324
19791TIP3    H280865   2.284   1.048  12.155 -1.5679 -0.0846  0.2572
19792TIP3   OH280866   4.309   2.779  10.664 -0.1175 -0.0648  0.0756
19792TIP3    H180867   4.274   2.866  10.684 -1.4543 -0.3687 -0.8230
19792TIP3    H280868   4.293   2.767  10.571  2.9716 -0.0164 -0.5698
19793TIP3   OH280869   2.052   2.870  11.735 -0.2112  0.3128 -0.1706
19793TIP3    H180870   1.978   2.916  11.696 -0.6071  0.4577  0.7249
19793TIP3    H280871   2.015   2.792  11.774 -0.2401  1.2727  1.8732
19794TIP3   OH280872   6.765   1.572   2.248  0.0630 -0.1295 -0.2893
19794TIP3    H180873   6.798   1.572   2.337  0.7854  0.2097 -0.5499
19794TIP3    H280874   6.694   1.508   2.248 -1.5795  1.5813  1.1257
19795TIP3   OH280875   4.133   6.265   3.341 -0.0341  0.1006 -0.4257
19795TIP3    H180876   4.067   6.199   3.361  0.7823 -0.2961  1.0833
19795TIP3    H280877   4.210   6.215   3.313 -0.7412  0.5941 -3.6764
19796TIP3   OH280878   6.800   5.732  14.164 -0.2305 -0.2721  0.5578
19796TIP3    H180879   6.842   5.646  14.159 -1.5685 -0.9148 -0.1623
19796TIP3    H280880   6.871   5.792  14.189  1.1629 -1.2535 -0.8509
19797TIP3   OH280881   5.333   1.066   4.945  0.0621 -0.1660  0.4792
19797TIP3    H180882   5.311   1.020   4.864  2.2591  0.8511 -0.7755
19797TIP3    H280883   5.275   1.027   5.011 -0.5607 -2.2705 -1.1939
19798TIP3   OH280884   5.442   5.036  16.736 -0.2814 -0.0596  0.3722
19798TIP3    H180885   5.360   5.009  16.695 -0.0441 -0.4787  0.1672
19798TIP3    H280886   5.474   4.957  16.778  0.4569 -0.1180 -0.2829
19799TIP3   OH280887   0.795   6.742   4.796 -0.4100  0.2230  0.5060
19799TIP3    H180888   0.889   6.737   4.814  0.5308  0.6841 -3.4659
19799TIP3    H280889   0.775   6.663   4.747 -1.3456  1.5857 -1.4377
19800TIP3   OH280890   5.901   3.976  14.467  0.2129 -0.1859  0.1945
19800TIP3    H180891   5.896   4.042  14.398  1.0841 -0.8543 -0.5325
19800TIP3    H280892   5.990   3.984  14.501 -0.1001 -0.0991  1.0053
19801TIP3   OH280893   6.360   3.865  11.684 -0.6846 -0.0309  0.0782
19801TIP3    H180894   6.434   3.807  11.670 -0.7827  0.0217 -0.7273
19801TIP3    H280895   6.378   3.941  11.628 -2.7722 -1.3345 -2.6059
19802TIP3   OH280896   5.525   4.587  11.285  0.6322 -0.2447 -0.2196
19802TIP3    H180897   5.484   4.669  11.258 -0.2104 -0.7513 -0.5108
19802TIP3    H280898   5.527   4.592  11.381 -1.4737 -0.8238 -0.1091
19803TIP3   OH280899   2.221   6.112  15.997  0.1635  0.0175  0.6299
19803TIP3    H180900   2.314   6.128  16.014  0.3295  0.7543 -0.7781
19803TIP3    H280901   2.179   6.196  16.018  0.1385  0.3768 -0.7694
19804TIP3   OH280902   6.118   5.293   4.061  0.0807  0.5366  0.1503
19804TIP3    H180903   6.167   5.328   4.136  0.5325  0.8790 -0.2936
19804TIP3    H280904   6.031   5.333   4.069  0.3455  1.1364  0.1024
19805TIP3   OH280905   4.373   4.449  10.539  0.2677 -0.2643 -0.0467
19805TIP3    H180906   4.394   4.537  10.571 -1.1174  0.2431 -0.4579
19805TIP3    H280907   4.409   4.448  10.450 -3.7439  1.7192 -1.9532
19806TIP3   OH280908   4.695   1.347   1.687 -0.3514  0.4704 -0.3307
19806TIP3    H180909   4.638   1.332   1.611 -0.0744  1.0258 -0.6526
19806TIP3    H280910   4.736   1.262   1.703  0.2199  0.5400 -1.3212
19807TIP3   OH280911   1.139   6.205   4.962 -0.3313 -0.4837  0.0167
19807TIP3    H180912   1.186   6.146   5.022 -0.0581  1.0893  1.4182
19807TIP3    H280913   1.208   6.250   4.913 -0.5304 -1.0143 -0.7794
19808TIP3   OH280914   3.488   2.103   1.670  0.2136  0.5704  0.0281
19808TIP3    H180915   3.514   2.112   1.578  0.0276  2.0291  0.0959
19808TIP3    H280916   3.569   2.087   1.717  0.5117  1.3915 -0.2060
19809TIP3   OH280917   4.095   1.783   2.159  0.2386 -0.0576 -0.3460
19809TIP3    H180918   4.155   1.784   2.234 -0.3911 -0.4132  0.1727
19809TIP3    H280919   4.017   1.738   2.192 -0.8114  1.4910 -0.6274
19810TIP3   OH280920   4.314   0.881  11.634 -0.3838  0.4035 -0.5152
19810TIP3    H180921   4.364   0.921  11.705 -0.4437 -2.7771  1.4849
19810TIP3    H280922   4.248   0.947  11.611  0.0508  1.8083  1.9314
19811TIP3   OH280923   4.047   4.182   3.559 -0.2207 -0.0684 -0.2487
19811TIP3    H180924   4.107   4.118   3.595 -0.1032  0.2414  0.1144
19811TIP3    H280925   4.045   4.253   3.624 -0.7471  0.0569 -0.3957
19812TIP3   OH280926   4.372   5.157  14.377 -0.1979 -0.4680  0.2583
19812TIP3    H180927   4.368   5.224  14.445  0.0956 -0.0885 -0.0948
19812TIP3    H280928   4.325   5.195  14.303 -0.2816 -0.7705  0.1538
19813TIP3   OH280929   6.352   2.147  15.568  0.5046  0.1649  1.4277
19813TIP3    H180930   6.356   2.188  15.482  1.2845  2.7911  2.6022
19813TIP3    H280931   6.385   2.058  15.554  0.9838  0.6471 -0.8906
19814TIP3   OH280932   3.204   4.762   4.406 -0.0529 -0.0174  0.0265
19814TIP3    H180933   3.145   4.828   4.369 -0.7257 -0.6117  0.0213
19814TIP3    H280934   3.213   4.696   4.337  2.6268  1.2359 -0.9702
19815TIP3   OH280935   0.892   6.428   0.830  0.2429 -0.0915 -0.6891
19815TIP3    H180936   0.925   6.502   0.780  0.0836  0.3110 -0.2144
19815TIP3    H280937   0.827   6.466   0.889  1.4994 -0.2875  0.8894
19816TIP3   OH280938   4.658   0.813   3.350 -0.9570 -0.1700 -0.3572
19816TIP3    H180939   4.591   0.867   3.393 -0.6016 -0.1353  0.1571
19816TIP3    H280940   4.700   0.873   3.288 -0.7909  0.0539 -0.0306
19817TIP3   OH280941   4.746   3.670  14.911 -0.4352  0.4857  0.5458
19817TIP3    H180942   4.770   3.700  14.999 -0.3777  3.1477 -0.2857
19817TIP3    H280943   4.825   3.629  14.876  0.4348  1.9270  0.7547
19818TIP3   OH280944   6.721   0.269   3.312 -0.0212  0.5392  0.2745
19818TIP3    H180945   6.812   0.284   3.338  0.9101  2.0609 -3.2728
19818TIP3    H280946   6.725   0.193   3.254 -1.4097 -0.5405  1.4982
19819TIP3   OH280947   2.512   5.592   2.390  0.1175 -0.4712  0.2897
19819TIP3    H180948   2.466   5.657   2.443  0.2478  1.0249 -1.3451
19819TIP3    H280949   2.466   5.509   2.409 -0.0528  0.0441  2.4073
19820TIP3   OH280950   3.024   0.670   4.741  0.1810  0.4686 -0.0116
19820TIP3    H180951   2.961   0.647   4.672  1.0085 -0.4788 -0.4776
19820TIP3    H280952   3.036   0.589   4.790  0.5817  0.7995  0.4478
19821TIP3   OH280953   3.157   5.836   1.838  0.0299 -0.7567  0.2780
19821TIP3    H180954   3.247   5.821   1.868  0.0286 -0.7071  0.3068
19821TIP3    H280955   3.163   5.914   1.782  0.1275 -1.1690 -0.3009
19822TIP3   OH280956   2.622   4.508   1.608 -0.0506 -0.0399  0.4964
19822TIP3    H180957   2.566   4.534   1.681 -0.9648 -1.3707  0.2857
19822TIP3    H280958   2.676   4.437   1.642 -1.0689 -1.2542 -0.3150
19823TIP3   OH280959   4.579   2.416   0.756 -0.3634  0.0558  0.4114
19823TIP3    H180960   4.590   2.326   0.726  1.8255 -0.5146  2.5688
19823TIP3    H280961   4.495   2.417   0.802 -0.1989 -1.0114  0.7462
19824TIP3   OH280962   6.465   6.585   3.620 -0.4872  0.4553  0.1780
19824TIP3    H180963   6.421   6.524   3.678 -0.7360 -0.8538 -1.3231
19824TIP3    H280964   6.394   6.634   3.578 -0.3477  0.8031  0.3445
19825TIP3   OH280965   3.900   4.584   6.617  0.1017  0.4511  0.2293
19825TIP3    H180966   3.848   4.503   6.610  1.0485 -0.5322  2.9927
19825TIP3    H280967   3.837   4.649   6.648  0.2250 -0.6108  3.0718
19826TIP3   OH280968   6.725   3.743  12.749 -0.0473 -0.2329 -0.2596
19826TIP3    H180969   6.806   3.714  12.708  0.1383  0.5322 -0.4530
19826TIP3    H280970   6.663   3.751  12.676  0.3997  1.5341 -0.4986
19827TIP3   OH280971   1.561   3.357   0.510 -0.5538 -0.2846  0.5251
19827TIP3    H180972   1.598   3.386   0.593  5.6816  0.2046 -1.8906
19827TIP3    H280973   1.516   3.433   0.476  0.9979  1.1368  1.4795
19828TIP3   OH280974   1.726   5.601  15.995 -0.2467 -0.4135 -0.0854
19828TIP3    H180975   1.805   5.587  16.048 -1.5956  1.6081  2.7116
19828TIP3    H280976   1.749   5.568  15.908  3.3959 -0.6239  0.8042
19829TIP3   OH280977   2.493   4.471  11.093 -0.2682  0.3399  0.4698
19829TIP3    H180978   2.488   4.393  11.150 -1.2416 -0.7541 -1.0291
19829TIP3    H280979   2.578   4.465  11.052 -0.4973 -0.1693  0.0600
19830TIP3   OH280980   3.502   3.940   3.743  0.3613 -0.1564 -0.0598
19830TIP3    H180981   3.497   3.852   3.778  0.8659  0.1156  0.7207
19830TIP3    H280982   3.531   3.994   3.817 -1.1731  0.8770 -0.1715
19831TIP3   OH280983   2.916   1.322  11.546  0.1963  0.3005  0.5102
19831TIP3    H180984   2.902   1.229  11.561  0.2990  0.0801 -0.6561
19831TIP3    H280985   2.918   1.331  11.451  2.4196  1.1561  0.5746
19832TIP3   OH280986   3.515   2.313   2.687 -0.7781  0.4353  0.5101
19832TIP3    H180987   3.608   2.297   2.678 -1.0779 -0.1516 -2.2457
19832TIP3    H280988   3.509   2.397   2.734  1.1069  0.3829  0.8924
19833TIP3   OH280989   2.145   6.785  15.156 -0.9457  0.1720  0.7647
19833TIP3    H180990   2.118   6.712  15.100  0.5706 -1.3230  1.8728
19833TIP3    H280991   2.237   6.767  15.176 -0.8764  1.7520  2.0414
19834TIP3   OH280992   2.810   5.446   1.180  0.5310 -0.6316 -0.1027
19834TIP3    H180993   2.744   5.512   1.158  0.2748  0.1445  2.6436
19834TIP3    H280994   2.869   5.446   1.105  0.3157  2.4610 -0.4097
19835TIP3   OH280995   0.766   0.893   5.748 -0.5416 -0.3371 -0.0818
19835TIP3    H180996   0.711   0.968   5.722  1.1123  0.3348 -1.9419
19835TIP3    H280997   0.705   0.819   5.750 -1.9798  0.7914  0.4800
19836TIP3   OH280998   1.320   5.463   4.064  0.4329 -0.1113  0.0448
19836TIP3    H180999   1.311   5.491   4.155  1.6680 -1.9367  0.7973
19836TIP3    H281000   1.373   5.383   4.069  1.8228  0.5423 -2.4055
19837TIP3   OH281001   3.085   6.156  15.083 -0.5172 -0.0435  0.1420
19837TIP3    H181002   3.032   6.181  15.159  1.0772 -0.6488  1.5376
19837TIP3    H281003   3.100   6.238  15.036 -1.0561  0.4553  0.8115
19838TIP3   OH281004   5.419   6.704  15.428 -0.2059 -0.2831  0.1137
19838TIP3    H181005   5.350   6.764  15.397  0.5951  1.4100  1.4380
19838TIP3    H281006   5.499   6.738  15.390  0.3426 -0.1066  1.3592
19839TIP3   OH281007   6.216   4.751  16.116 -0.3399  0.1839 -0.1181
19839TIP3    H181008   6.275   4.791  16.180 -1.4198  0.3683  0.8141
19839TIP3    H281009   6.242   4.659  16.113 -0.8317 -0.0310  1.3013
19840TIP3   OH281010   2.493   6.375   1.290 -0.2926 -0.3728 -0.0568
19840TIP3    H181011   2.542   6.456   1.307  0.4735 -0.3951 -1.8929
19840TIP3    H281012   2.550   6.324   1.234 -1.2349 -1.7305  0.1704
19841TIP3   OH281013   4.860   6.216   6.223 -0.4113  0.0103  0.3224
19841TIP3    H181014   4.873   6.162   6.145  1.5995 -0.1599  0.7187
19841TIP3    H281015   4.846   6.153   6.294 -1.7620  0.1537  0.2122
19842TIP3   OH281016   5.977   2.005  11.909 -0.3753 -0.4160  0.4783
19842TIP3    H181017   5.912   1.937  11.927 -0.4768 -0.4019  0.1730
19842TIP3    H281018   6.030   1.969  11.838 -0.8832  0.1221 -0.1790
19843TIP3   OH281019   3.271   2.622   4.003 -0.6031  0.1065  0.3818
19843TIP3    H181020   3.337   2.657   4.063  0.2687 -0.4686 -0.2241
19843TIP3    H281021   3.321   2.574   3.937 -1.6735 -1.2391  0.5034
19844TIP3   OH281022   1.497   2.896  16.548 -0.7780  0.3144 -0.2000
19844TIP3    H181023   1.567   2.959  16.567  0.3209 -0.6831 -0.7662
19844TIP3    H281024   1.435   2.906  16.620  0.4746  0.5141  0.8982
19845TIP3   OH281025   4.277   1.927   4.398 -0.2381 -0.2464  0.1338
19845TIP3    H181026   4.290   1.906   4.306  1.1662 -1.6144  0.5981
19845TIP3    H281027   4.201   1.985   4.399 -1.7267 -2.0344 -1.6704
19846TIP3   OH281028   4.746   2.093   3.685  0.1837  0.1577 -0.0438
19846TIP3    H181029   4.670   2.151   3.679  1.8677  2.6613  1.0652
19846TIP3    H281030   4.761   2.064   3.595 -1.0404  0.9911 -0.5432
19847TIP3   OH281031   2.000   4.388  12.229  0.2439  0.2991 -0.2831
19847TIP3    H181032   2.051   4.347  12.298 -0.4832 -1.4687 -0.7441
19847TIP3    H281033   1.909   4.374  12.255 -0.0338  0.1403 -1.2853
19848TIP3   OH281034   1.998   0.634   3.797 -0.2135  0.1767 -0.6617
19848TIP3    H181035   1.938   0.560   3.804  0.1937 -0.1486 -0.5885
19848TIP3    H281036   2.059   0.623   3.870 -0.0696  0.5096 -0.7273
19849TIP3   OH281037   0.010   4.371  15.837 -0.2055  0.8033  0.2164
19849TIP3    H181038  -0.022   4.397  15.751 -0.6782 -1.2452 -0.2807
19849TIP3    H281039   0.051   4.450  15.872 -1.0030  2.0005 -1.3954
19850TIP3   OH281040   6.326   6.064   3.467 -0.1618  0.2962 -0.5479
19850TIP3    H181041   6.251   6.114   3.499 -0.7711  0.2218 -1.7760
19850TIP3    H281042   6.373   6.037   3.546 -2.7694 -1.7515  0.4865
19851TIP3   OH281043   3.577   5.723  12.307  0.5405  0.3123 -0.3043
19851TIP3    H181044   3.550   5.678  12.387 -0.6755  0.2402 -0.7401
19851TIP3    H281045   3.495   5.743  12.262  1.2194 -0.2811 -1.8749
19852TIP3   OH281046   6.116   6.028  14.523 -0.5165 -0.1521 -0.2038
19852TIP3    H181047   6.046   6.046  14.585 -1.4337 -1.7146 -0.7240
19852TIP3    H281048   6.087   5.951  14.475  0.7815  0.2022 -1.6587
19853TIP3   OH281049   3.796   4.852   1.182 -0.7590  0.1673 -0.1244
19853TIP3    H181050   3.719   4.867   1.236  0.2650  0.0487  1.4305
19853TIP3    H281051   3.865   4.827   1.244  0.4911  0.0876 -1.4787
19854TIP3   OH281052   0.201   2.769   6.444  0.1193 -0.2624  0.1446
19854TIP3    H181053   0.112   2.751   6.476 -0.4339  0.3120 -1.0095
19854TIP3    H281054   0.196   2.753   6.350  0.9766  0.7994 -0.0905
19855TIP3   OH281055   2.048   3.706   3.154  0.2993 -0.1478 -0.2786
19855TIP3    H181056   2.028   3.632   3.096  1.1098 -0.8771  0.3549
19855TIP3    H281057   1.976   3.706   3.217  0.0311 -0.0731 -0.5791
19856TIP3   OH281058   5.771   5.923   5.707  0.2987 -0.0716  0.4248
19856TIP3    H181059   5.750   5.834   5.680 -0.4204  0.4992 -0.9452
19856TIP3    H281060   5.695   5.952   5.758 -0.4608  0.5172 -1.0003
19857TIP3   OH281061   4.339   1.444  11.640 -0.1200  0.2182 -0.5146
19857TIP3    H181062   4.362   1.498  11.716 -0.9294  1.3210 -1.0381
19857TIP3    H281063   4.423   1.430  11.594  0.0486  1.2959 -0.5447
19858TIP3   OH281064   3.856   2.231  13.436 -0.2927  0.6840  0.4101
19858TIP3    H181065   3.786   2.294  13.451 -0.0017  0.5516  2.8052
19858TIP3    H281066   3.812   2.152  13.403 -1.1702  0.8794  1.0900
19859TIP3   OH281067   4.284   2.461  13.383 -0.2782 -0.1300  0.0247
19859TIP3    H181068   4.270   2.485  13.292  2.3886  1.4526 -0.0864
19859TIP3    H281069   4.286   2.544  13.430  0.7278 -0.7306  1.1021
19860TIP3   OH281070   3.923   3.997   6.486 -0.2596 -0.1493  0.0845
19860TIP3    H181071   3.837   3.961   6.467 -0.0235  0.6634 -3.1552
19860TIP3    H281072   3.968   3.999   6.401  2.6119  0.3596  1.4746
19861TIP3   OH281073   4.913   3.819   3.017 -0.2622  0.3419  0.2690
19861TIP3    H181074   4.980   3.798   2.952 -1.9184 -1.7678 -0.8905
19861TIP3    H281075   4.948   3.785   3.099  0.1802 -0.5490 -0.2779
19862TIP3   OH281076   6.102   0.684  16.529  0.0250 -0.8266  0.1417
19862TIP3    H181077   6.067   0.621  16.467  1.2650 -2.3913  0.9562
19862TIP3    H281078   6.189   0.650  16.552  1.2310  1.7604 -0.2139
19863TIP3   OH281079   4.768   3.289   2.686  0.0044 -0.0411 -0.1145
19863TIP3    H181080   4.829   3.342   2.636 -0.4908  0.2229 -0.4528
19863TIP3    H281081   4.684   3.335   2.678 -0.6810 -1.4035 -1.3306
19864TIP3   OH281082   5.312   6.505  14.531  0.6383  0.0878  0.9397
19864TIP3    H181083   5.296   6.585  14.481  1.9045  1.9879  3.3478
19864TIP3    H281084   5.370   6.453  14.475 -0.4661  0.6312 -0.8115
19865TIP3   OH281085   1.376   3.064  16.824 -0.0787 -0.1088  0.0209
19865TIP3    H181086   1.297   3.088  16.777  0.3286 -0.9335 -1.1298
19865TIP3    H281087   1.346   3.003  16.892 -0.1755 -2.7778 -2.2378
19866TIP3   OH281088   3.278   6.092  12.213 -0.7237 -0.4424  0.1200
19866TIP3    H181089   3.314   6.178  12.191 -2.2817  0.4735  0.9351
19866TIP3    H281090   3.297   6.081  12.306 -0.2428 -1.1386 -0.0569
19867TIP3   OH281091   4.093   2.551  12.556 -0.2929 -0.6151  0.3729
19867TIP3    H181092   4.028   2.563  12.625  0.6268  0.2361  1.1276
19867TIP3    H281093   4.148   2.480  12.588 -2.1491 -2.9975 -1.3288
19868TIP3   OH281094   2.074   2.495   3.834  0.5140 -0.4427 -1.0080
19868TIP3    H181095   2.027   2.427   3.784  1.4942 -0.9080 -1.3411
19868TIP3    H281096   2.106   2.555   3.767  0.1994  0.0057 -0.7625
19869TIP3   OH281097   0.650   3.161  15.589  0.3550  0.1110  0.3663
19869TIP3    H181098   0.643   3.068  15.607  0.4194  0.2549  1.1879
19869TIP3    H281099   0.693   3.198  15.667  0.0236  0.8660  0.2068
19870TIP3   OH281100   1.257   6.230   1.671  0.4148 -0.6125  0.4693
19870TIP3    H181101   1.271   6.142   1.635  0.6631 -0.4452  0.1566
19870TIP3    H281102   1.162   6.243   1.666  0.3832 -0.8415  0.4687
19871TIP3   OH281103   6.149   5.720  12.930 -0.0762 -0.3431  0.7924
19871TIP3    H181104   6.170   5.782  12.999 -1.7264  1.4869 -0.2474
19871TIP3    H281105   6.137   5.775  12.852 -1.5731 -1.9621 -0.1785
19872TIP3   OH281106   5.171   3.417  12.556 -0.2591 -0.3812  0.1514
19872TIP3    H181107   5.227   3.341  12.572 -1.3291 -0.9103  1.7386
19872TIP3    H281108   5.086   3.378  12.531 -0.7542  0.2803  0.7587
19873TIP3   OH281109   5.407   0.408  13.506 -0.3133  0.1099 -0.1324
19873TIP3    H181110   5.425   0.486  13.454 -0.4005 -0.9811 -1.8885
19873TIP3    H281111   5.413   0.438  13.597  1.7973  1.6739 -0.6945
19874TIP3   OH281112   4.399   1.803   1.749 -0.3414 -0.7149  0.3495
19874TIP3    H181113   4.402   1.889   1.790  0.3992  0.8451 -2.6710
19874TIP3    H281114   4.310   1.797   1.714  0.4204  0.2074 -1.9371
19875TIP3   OH281115   0.628   4.800  13.043  0.3337  0.5632 -0.1420
19875TIP3    H181116   0.591   4.717  13.011  0.7226  0.9670 -1.7124
19875TIP3    H281117   0.700   4.819  12.983  1.7419  0.8864  1.5794
19876TIP3   OH281118   6.345   1.228   4.566 -0.0164  0.7043  0.0088
19876TIP3    H181119   6.427   1.266   4.533  0.3760 -1.6876 -1.9724
19876TIP3    H281120   6.279   1.255   4.503  0.1200 -1.1165 -0.9568
19877TIP3   OH281121   6.190   2.028   4.565  0.2059 -0.5269 -0.0519
19877TIP3    H181122   6.182   2.109   4.516  2.5010 -0.6219 -0.6851
19877TIP3    H281123   6.115   1.975   4.537  0.1323  0.3639 -1.6331
19878TIP3   OH281124   5.523   2.944   1.874 -0.0658 -0.3834  0.8280
19878TIP3    H181125   5.595   2.933   1.935  1.1950  0.2685 -0.4918
19878TIP3    H281126   5.558   2.998   1.804 -1.3018 -1.5094 -0.7392
19879TIP3   OH281127   4.098   0.312  16.975 -0.0606  0.0749 -0.4362
19879TIP3    H181128   4.002   0.315  16.977 -0.1764 -1.6355 -1.6401
19879TIP3    H281129   4.123   0.380  16.912 -0.5385 -0.1403 -0.8672
19880TIP3   OH281130   6.003   4.272  16.567  0.2645  0.5825  0.0202
19880TIP3    H181131   6.015   4.183  16.534  0.8826  0.7581 -0.2426
19880TIP3    H281132   6.012   4.328  16.489 -1.5325  0.7998 -0.0789
19881TIP3   OH281133   1.769   0.579  15.290  0.1486  0.8159  0.3321
19881TIP3    H181134   1.695   0.592  15.231  0.8665  0.6680 -0.6062
19881TIP3    H281135   1.752   0.639  15.363 -2.0696 -0.7991  1.2712
19882TIP3   OH281136   3.369   4.715  14.943  0.2240  0.6256  0.3317
19882TIP3    H181137   3.454   4.680  14.971  0.6836  0.7250 -0.8708
19882TIP3    H281138   3.316   4.637  14.925  0.8484  0.5237 -1.1762
19883TIP3   OH281139   5.230   3.846  13.788 -0.2994  0.2071  0.6400
19883TIP3    H181140   5.168   3.817  13.722 -0.4320  0.5501  0.6099
19883TIP3    H281141   5.286   3.770  13.804 -0.5124  0.0022  0.4204
19884TIP3   OH281142   1.304   3.933  11.981  0.3919  0.2449 -0.1956
19884TIP3    H181143   1.249   3.997  11.936  1.3932  1.2122 -0.1119
19884TIP3    H281144   1.308   3.963  12.072 -0.6808 -1.0471  0.3072
19885TIP3   OH281145   3.360   1.468  12.069 -0.6312  0.2093 -0.2328
19885TIP3    H181146   3.302   1.545  12.076 -0.8582  0.2774 -2.1938
19885TIP3    H281147   3.448   1.504  12.076 -0.7601  0.3230  1.1110
19886TIP3   OH281148   3.099   1.877  13.538  0.3165 -0.6106  0.4276
19886TIP3    H181149   3.128   1.814  13.471 -0.0810 -0.2113 -0.1257
19886TIP3    H281150   3.010   1.851  13.559 -0.4645  0.7454 -1.0228
19887TIP3   OH281151   0.318   6.550   3.643 -0.3425  0.3535  0.5567
19887TIP3    H181152   0.231   6.545   3.681 -0.7769  0.2232 -0.4313
19887TIP3    H281153   0.372   6.591   3.711 -0.9818 -0.3161  1.4888
19888TIP3   OH281154   5.246   4.830   3.070  0.3719  0.5167  0.0355
19888TIP3    H181155   5.186   4.902   3.087  0.3599  0.6658 -0.6302
19888TIP3    H281156   5.235   4.810   2.977 -1.8254 -2.3151  0.7490
19889TIP3   OH281157   3.789   6.077   2.319 -0.3659 -0.1983  0.2314
19889TIP3    H181158   3.740   6.133   2.379  0.0749  0.0928  0.3203
19889TIP3    H281159   3.880   6.083   2.348 -0.3562 -1.2675  0.4918
19890TIP3   OH281160   2.309   1.829  14.342  0.2970  0.1772 -0.4490
19890TIP3    H181161   2.391   1.807  14.297  1.5751  1.0614  1.3181
19890TIP3    H281162   2.248   1.849  14.272  1.5001 -0.7526 -1.8423
19891TIP3   OH281163   6.419   4.538  12.930 -0.2830 -0.0970 -0.1035
19891TIP3    H181164   6.340   4.560  12.882 -0.1577  0.4063 -0.0893
19891TIP3    H281165   6.467   4.479  12.872  0.1204  0.9263 -0.8421
19892TIP3   OH281166   1.047   5.331  15.347  0.2623 -0.0906 -0.7293
19892TIP3    H181167   1.077   5.332  15.256  0.6506 -1.5320 -0.6429
19892TIP3    H281168   0.987   5.256  15.352  1.4703 -1.0284  0.5546
19893TIP3   OH281169   5.189   1.243  16.949 -0.1513  0.1477 -0.3463
19893TIP3    H181170   5.176   1.251  17.044  0.2335  0.7252 -0.3377
19893TIP3    H281171   5.100   1.239  16.913 -0.2953 -0.3161  0.0537
19894TIP3   OH281172   4.587   2.286  13.606  0.0524 -0.1113 -0.3238
19894TIP3    H181173   4.539   2.219  13.655  0.5634  0.2938  0.7676
19894TIP3    H281174   4.587   2.255  13.516 -2.7121  0.1118 -0.4997
19895TIP3   OH281175   2.598   3.131  12.701 -0.2185  0.0645  0.3418
19895TIP3    H181176   2.541   3.206  12.684 -1.5138 -0.5774  1.6319
19895TIP3    H281177   2.653   3.161  12.774  0.7303  0.4801 -0.5253
19896TIP3   OH281178   6.177   2.012   6.167 -0.2768  0.3818  0.3686
19896TIP3    H181179   6.104   1.971   6.120 -0.2832  0.3713  0.3879
19896TIP3    H281180   6.142   2.097   6.194  0.0557  0.8227 -0.5297
19897TIP3   OH281181   1.481   6.681  15.659  0.0259 -0.4154 -0.2656
19897TIP3    H181182   1.486   6.759  15.715  0.4223  0.4165 -1.4072
19897TIP3    H281183   1.390   6.653  15.664 -0.5649  1.1928 -1.1827
19898TIP3   OH281184   1.779   6.554  12.507 -0.6430 -0.3078 -0.0723
19898TIP3    H181185   1.710   6.592  12.563 -0.4191  0.5241 -0.3502
19898TIP3    H281186   1.772   6.460  12.522 -0.9158 -0.1381  0.9855
19899TIP3   OH281187   6.085   6.712   2.135  0.0871 -0.1115  0.1539
19899TIP3    H181188   6.094   6.629   2.088  1.7736  0.1706 -0.0923
19899TIP3    H281189   6.042   6.689   2.217  2.2856 -1.6014  0.9763
19900TIP3   OH281190   3.746   0.530  11.597 -0.1026 -0.6588 -0.2166
19900TIP3    H181191   3.670   0.547  11.540 -1.3729  0.6127  1.7610
19900TIP3    H281192   3.724   0.449  11.642 -1.0689  0.5245  1.5180
19901TIP3   OH281193   2.241   0.797  15.635  0.7692  0.4105 -0.6333
19901TIP3    H181194   2.200   0.755  15.711 -0.5117  2.7193  0.0484
19901TIP3    H281195   2.188   0.768  15.561  0.0148  0.6488 -0.2045
19902TIP3   OH281196   0.964   1.742   4.263  0.7194  0.0897 -0.3130
19902TIP3    H181197   0.916   1.740   4.346  0.6549 -1.1066 -0.3724
19902TIP3    H281198   1.056   1.745   4.290  0.7665 -1.8988 -0.1689
19903TIP3   OH281199   1.667   6.515  11.492 -1.0057 -0.3839 -0.5576
19903TIP3    H181200   1.609   6.572  11.543 -0.9385 -0.6806 -0.1476
19903TIP3    H281201   1.731   6.483  11.555 -0.2016  0.1938 -1.0770
19904TIP3   OH281202   4.663   2.743   5.324  0.5249  0.5210 -0.0876
19904TIP3    H181203   4.638   2.825   5.282  0.7946 -0.2060 -1.7384
19904TIP3    H281204   4.728   2.704   5.265  0.5152 -0.8042  0.7290
19905TIP3   OH281205   2.372   2.519   6.930 -0.0299 -0.3200 -0.9367
19905TIP3    H181206   2.329   2.599   6.958  0.6297  0.2920 -1.6062
19905TIP3    H281207   2.431   2.547   6.859 -0.5479 -1.5516 -1.9003
19906TIP3   OH281208   3.897   5.762  13.059  0.0022  0.1998  0.4976
19906TIP3    H181209   3.844   5.838  13.082 -1.4381 -0.5557 -0.1881
19906TIP3    H281210   3.949   5.791  12.984 -0.0846  0.6853  0.6212
19907TIP3   OH281211   0.622   4.851  14.260 -0.1783  0.2437 -0.1125
19907TIP3    H181212   0.538   4.815  14.288 -1.4115  2.5353 -0.5681
19907TIP3    H281213   0.680   4.839  14.335 -0.8685 -1.4311  0.1884
19908TIP3   OH281214   4.315   6.716  12.900  0.0422  0.5015  0.1257
19908TIP3    H181215   4.401   6.697  12.937 -0.8459 -3.5503  0.5670
19908TIP3    H281216   4.301   6.648  12.835 -3.3118  0.1921  0.9614
19909TIP3   OH281217   5.641   4.669  16.137  0.2130  0.4310 -0.1258
19909TIP3    H181218   5.667   4.633  16.052  0.3328  0.3531 -0.0565
19909TIP3    H281219   5.570   4.612  16.166  0.0822  0.5382 -0.2361
19910TIP3   OH281220   3.543   3.929  11.808 -0.2273  0.3609 -0.6717
19910TIP3    H181221   3.583   3.852  11.769  0.0477  1.1583 -2.0270
19910TIP3    H281222   3.450   3.906  11.819  0.4579 -1.5915  2.7009
19911TIP3   OH281223   2.130   3.361  15.053  0.3179  0.8488 -0.1447
19911TIP3    H181224   2.127   3.447  15.011  0.1985  0.6440 -0.5633
19911TIP3    H281225   2.130   3.380  15.146  0.8728  1.3235 -0.2347
19912TIP3   OH281226   0.113   0.760  13.488  0.2805  0.0280  0.5255
19912TIP3    H181227   0.086   0.829  13.549  0.2965 -0.4378  1.0692
19912TIP3    H281228   0.061   0.775  13.410  2.7765  2.8625 -0.7966
19913TIP3   OH281229   1.360   2.347   3.357 -0.0422  0.9886  0.0474
19913TIP3    H181230   1.335   2.414   3.294 -2.6216 -0.5900 -0.7702
19913TIP3    H281231   1.421   2.291   3.310 -0.8649  0.6212 -0.6122
19914TIP3   OH281232   3.258   1.915   4.546 -0.0601 -0.1198 -0.0464
19914TIP3    H181233   3.311   1.868   4.610 -0.5152  0.9915  1.1985
19914TIP3    H281234   3.198   1.968   4.599  0.5445  1.9923 -1.3481
19915TIP3   OH281235   5.695   2.568   5.974 -0.0678 -0.2853  0.1593
19915TIP3    H181236   5.625   2.516   5.936 -1.5505  1.1427  0.7949
19915TIP3    H281237   5.652   2.622   6.041  1.8859 -0.3933  1.6088
19916TIP3   OH281238   4.570   5.742   1.979  0.6453  0.6191 -0.0630
19916TIP3    H181239   4.552   5.689   1.901 -0.9023  1.7428 -0.5092
19916TIP3    H281240   4.632   5.808   1.950  0.1134  1.0016 -0.3561
19917TIP3   OH281241   0.019   0.057  11.046  0.0147  0.7182  0.0119
19917TIP3    H181242   0.102   0.011  11.057  0.7060  1.9629  0.1398
19917TIP3    H281243   0.042   0.141  11.007 -1.3407  0.5399 -1.2855
19918TIP3   OH281244   4.242   2.258  14.430  0.2928  0.0137  0.2558
19918TIP3    H181245   4.224   2.313  14.354 -0.0565 -1.0298 -0.4337
19918TIP3    H281246   4.162   2.263  14.483  1.4283  2.8123  1.9377
19919TIP3   OH281247   3.114   1.829   2.425 -0.4062 -0.2867 -0.3510
19919TIP3    H181248   3.097   1.769   2.498  2.3248 -1.6936 -0.7475
19919TIP3    H281249   3.210   1.836   2.422 -0.4899  0.6447 -3.0885
19920TIP3   OH281250   1.063   1.719  14.864 -0.7185 -0.1755 -0.1874
19920TIP3    H181251   1.099   1.806  14.846 -0.2106 -0.6459 -1.5984
19920TIP3    H281252   1.122   1.683  14.930  0.8545 -0.5217 -1.7025
19921TIP3   OH281253   4.915   0.505   0.219 -0.2149 -0.0213  0.0855
19921TIP3    H181254   4.976   0.477   0.151 -0.6660 -1.1166  0.1183
19921TIP3    H281255   4.968   0.513   0.298  0.2657  1.0305 -0.3240
19922TIP3   OH281256   1.941   6.083   0.106 -0.3979 -0.8428 -0.1180
19922TIP3    H181257   2.025   6.104   0.066  0.0385 -0.0502  1.1741
19922TIP3    H281258   1.892   6.038   0.036 -0.8394  3.1141 -2.6982
19923TIP3   OH281259   6.746   0.734  11.033 -0.7056 -0.8804  0.1453
19923TIP3    H181260   6.754   0.819  10.990  3.2144 -0.3822  1.4405
19923TIP3    H281261   6.688   0.749  11.107  2.0936  1.6108  2.0427
19924TIP3   OH281262   3.804   5.167   1.715 -0.3862 -0.9132  0.0552
19924TIP3    H181263   3.761   5.094   1.671  0.1794 -0.1770 -1.8435
19924TIP3    H281264   3.895   5.139   1.726  0.3723  0.1619 -2.5780
19925TIP3   OH281265   4.497   6.372   1.441 -0.1073 -0.5598  0.3206
19925TIP3    H181266   4.466   6.454   1.479  0.9178  0.1387 -0.2651
19925TIP3    H281267   4.590   6.388   1.424  0.1794 -1.9539  0.4548
19926TIP3   OH281268   2.107   1.096   2.940 -0.5083 -0.0577 -0.4847
19926TIP3    H181269   2.066   1.022   2.984  0.2162  0.2199  0.6736
19926TIP3    H281270   2.145   1.058   2.861  0.0876 -0.9768  0.2260
19927TIP3   OH281271   4.626   1.678  11.959 -0.5697  0.2197  0.2636
19927TIP3    H181272   4.692   1.698  11.893  2.5382 -2.3056  2.2631
19927TIP3    H281273   4.572   1.610  11.920 -2.1921  2.3628 -1.4292
19928TIP3   OH281274   4.683   4.309   1.686 -0.4267 -0.1373  0.1004
19928TIP3    H181275   4.596   4.346   1.703 -0.1143  0.3199  0.7537
19928TIP3    H281276   4.744   4.374   1.721  0.1668 -0.6548  0.0473
19929TIP3   OH281277   5.345   1.279  13.131  0.4291 -0.0960  0.3884
19929TIP3    H181278   5.377   1.250  13.046 -1.7959 -1.3364 -0.0887
19929TIP3    H281279   5.372   1.210  13.192 -3.9445 -3.0641 -0.5742
19930TIP3   OH281280   4.883   1.222   2.749  0.0319 -0.3052  0.1013
19930TIP3    H181281   4.967   1.191   2.713  0.4207  3.1902 -2.5599
19930TIP3    H281282   4.821   1.153   2.725  1.7768 -2.1388  0.5126
19931TIP3   OH281283   3.259   5.776   4.613  0.1159 -0.3858  0.4237
19931TIP3    H181284   3.323   5.705   4.608 -0.1532 -0.5369 -1.4248
19931TIP3    H281285   3.305   5.846   4.659  0.1247 -1.9606  3.0899
19932TIP3   OH281286   3.654   3.998  15.963  0.1079  0.0980 -0.3692
19932TIP3    H181287   3.672   3.913  16.002  0.9208  0.7894  0.8521
19932TIP3    H281288   3.739   4.042  15.963 -0.2849  0.8843 -1.0462
19933TIP3   OH281289   6.817   2.065  13.672 -0.3732 -0.3709  0.3845
19933TIP3    H181290   6.779   2.006  13.607 -0.3070 -0.6090  0.5625
19933TIP3    H281291   6.758   2.141  13.672  0.7813  0.6288 -1.5220
19934TIP3   OH281292   5.519   3.169   3.882  0.1770  0.0040  0.1032
19934TIP3    H181293   5.445   3.163   3.942  0.2344  0.9660  0.2844
19934TIP3    H281294   5.515   3.258   3.847  1.6177  0.3209  0.6280
19935TIP3   OH281295   5.668   5.953  14.261 -0.5883  0.0051 -0.0635
19935TIP3    H181296   5.715   5.932  14.180  4.4060  1.5853  2.0571
19935TIP3    H281297   5.659   6.048  14.259  2.1445  0.4514  2.1798
19936TIP3   OH281298   0.231   3.815  10.851 -0.1235  0.0772 -0.0181
19936TIP3    H181299   0.319   3.776  10.857 -0.8713 -1.5802  0.7485
19936TIP3    H281300   0.230   3.857  10.766  0.4877 -2.3439 -1.3133
19937TIP3   OH281301   3.273   3.021   0.545 -0.4645 -0.4380  0.3258
19937TIP3    H181302   3.367   3.015   0.524 -0.2883 -1.4764  1.3283
19937TIP3    H281303   3.232   2.955   0.490 -0.8026  0.8538 -1.0314
19938TIP3   OH281304   0.732   6.070  14.501  0.4061 -0.1713  0.1059
19938TIP3    H181305   0.766   6.149  14.460  0.1513 -0.5209 -0.8016
19938TIP3    H281306   0.671   6.034  14.436 -0.3825 -0.4764  0.9865
19939TIP3   OH281307   4.233   6.423   3.857 -0.0050 -0.1478 -0.1004
19939TIP3    H181308   4.175   6.494   3.884  0.1688 -0.2184  0.4672
19939TIP3    H281309   4.199   6.346   3.903  0.9481 -0.0567  0.7989
19940TIP3   OH281310   0.268   3.378   1.443 -0.1987  0.1815 -0.5656
19940TIP3    H181311   0.349   3.426   1.458  0.2363 -0.1769 -1.6754
19940TIP3    H281312   0.200   3.431   1.485  0.8256 -0.5518  2.2272
19941TIP3   OH281313   6.211   5.419  12.008  0.2735  0.7633  0.0951
19941TIP3    H181314   6.294   5.394  12.049 -0.4926 -2.3623 -0.0276
19941TIP3    H281315   6.147   5.415  12.079  0.1214  3.0083  0.1529
19942TIP3   OH281316   2.189   3.338  14.702 -0.5014  0.0396 -0.0590
19942TIP3    H181317   2.244   3.274  14.657 -1.6541 -0.4648 -0.7691
19942TIP3    H281318   2.120   3.287  14.743  0.0216  0.5855  1.5835
19943TIP3   OH281319   0.939   3.225  13.975 -0.0483 -0.3984 -0.2597
19943TIP3    H181320   0.875   3.291  13.948  0.5998 -0.2360 -1.4922
19943TIP3    H281321   0.918   3.148  13.921 -0.9516 -1.3301  1.3319
19944TIP3   OH281322   2.248   0.861  16.359 -0.4019  0.2557 -0.5748
19944TIP3    H181323   2.159   0.842  16.387 -0.2029  0.7616  0.4255
19944TIP3    H281324   2.299   0.786  16.390 -0.4916 -0.1103 -1.2843
19945TIP3   OH281325   6.060   1.027  12.584 -0.1531 -0.3326  0.4774
19945TIP3    H181326   6.094   0.939  12.598  0.6901  0.0928  1.1798
19945TIP3    H281327   6.132   1.074  12.543 -0.9555 -0.2341 -0.9112
19946TIP3   OH281328   5.012   6.795  12.159 -0.2698  0.5476 -0.1391
19946TIP3    H181329   5.082   6.738  12.191 -0.6028 -0.6791 -1.4841
19946TIP3    H281330   4.948   6.796  12.230 -0.9901 -2.0963 -0.6267
19947TIP3   OH281331   3.740   4.736  11.558 -0.3363  0.4465 -0.3054
19947TIP3    H181332   3.724   4.798  11.629  1.0081  1.0668 -0.5028
19947TIP3    H281333   3.674   4.668  11.569 -1.9477  1.9780 -0.1660
19948TIP3   OH281334   1.773   2.292  10.823 -0.1461 -0.4121 -0.1549
19948TIP3    H181335   1.763   2.321  10.733  0.9158  0.8574  0.0988
19948TIP3    H281336   1.831   2.216  10.818  1.0169  0.4514 -0.4771
19949TIP3   OH281337   2.997   1.673   2.237 -0.1471  0.2607 -0.6358
19949TIP3    H181338   3.039   1.729   2.302 -0.1427  0.3126 -0.6838
19949TIP3    H281339   2.913   1.650   2.275 -0.0673  0.1412 -0.5304
19950TIP3   OH281340   6.345   5.450   2.100 -0.0765  0.2858  0.2812
19950TIP3    H181341   6.354   5.463   2.195 -0.1604 -0.8951  0.4614
19950TIP3    H281342   6.391   5.525   2.062 -0.9555  1.3566  1.2516
19951TIP3   OH281343   0.429   6.342   1.812  0.4153 -0.1791  0.2569
19951TIP3    H181344   0.380   6.424   1.808  0.5959 -0.0732  0.1728
19951TIP3    H281345   0.499   6.359   1.876  0.7840 -0.0823 -0.1652
19952TIP3   OH281346   2.301   2.931   5.620  0.1022  0.7213  0.3539
19952TIP3    H181347   2.247   2.938   5.699  0.4046  0.1354  0.6189
19952TIP3    H281348   2.253   2.981   5.554 -0.9206  0.0060  0.5166
19953TIP3   OH281349   6.706   5.743  12.336  0.9240  0.5804 -0.2301
19953TIP3    H181350   6.735   5.658  12.370 -1.2242 -0.0828  0.0715
19953TIP3    H281351   6.712   5.802  12.411 -0.6695 -0.1038  0.4727
19954TIP3   OH281352   5.154   4.385   4.859  0.0381  0.5924 -0.4481
19954TIP3    H181353   5.096   4.353   4.928 -1.6716  1.1927 -1.5487
19954TIP3    H281354   5.149   4.318   4.791 -0.9675  1.5649 -1.3771
19955TIP3   OH281355   2.455   3.662   3.892  0.1966 -0.4737 -0.2332
19955TIP3    H181356   2.436   3.690   3.803 -0.1613  0.3111  0.0748
19955TIP3    H281357   2.549   3.645   3.893  0.2712 -0.0998 -0.6611
19956TIP3   OH281358   5.659   1.272  13.070  0.3101 -0.1029  0.0705
19956TIP3    H181359   5.650   1.346  13.009 -2.0815 -1.2483 -1.1068
19956TIP3    H281360   5.605   1.296  13.145 -1.7260 -1.2156 -0.9735
19957TIP3   OH281361   6.652   2.472   5.752  0.1647  0.7464 -0.5330
19957TIP3    H181362   6.658   2.388   5.707  1.2233  0.6732 -0.2694
19957TIP3    H281363   6.671   2.537   5.685  1.3339  0.6594 -0.2979
19958TIP3   OH281364   6.234   5.854   1.647  0.4926  0.5617  0.2815
19958TIP3    H181365   6.277   5.775   1.616 -0.7204  0.3559 -1.0136
19958TIP3    H281366   6.246   5.853   1.742 -1.3686 -2.3885  0.6040
19959TIP3   OH281367   2.899   3.388  15.486  0.0059  0.0573 -0.5088
19959TIP3    H181368   2.804   3.384  15.482 -0.2044 -0.1008  2.5156
19959TIP3    H281369   2.926   3.408  15.396 -2.9107  1.0814 -1.2613
19960TIP3   OH281370   5.538   5.938  15.472  0.6236  0.3692 -0.4208
19960TIP3    H181371   5.470   5.905  15.531  0.1604 -0.3202 -1.3169
19960TIP3    H281372   5.596   5.988  15.529  0.3554 -0.5108  0.6747
19961TIP3   OH281373   2.146   0.026   0.427 -0.4241  0.1277 -0.1064
19961TIP3    H181374   2.231   0.026   0.472  0.7375  1.3159 -2.0905
19961TIP3    H281375   2.083  -0.001   0.493  1.4147 -0.1371  1.6415
19962TIP3   OH281376   4.532   0.445  13.016 -0.4962  0.1772  0.2820
19962TIP3    H181377   4.510   0.395  12.938  0.1715  0.9794 -0.4372
19962TIP3    H281378   4.450   0.489  13.040 -1.1026 -1.2506  0.9552
19963TIP3   OH281379   5.706   6.197  13.165  0.1039 -0.0946 -0.1806
19963TIP3    H181380   5.800   6.194  13.145  0.2482  2.6596 -0.2187
19963TIP3    H281381   5.665   6.158  13.087  1.1856 -2.6195  0.4092
19964TIP3   OH281382   3.066   4.231   5.882 -0.1454 -0.4441  0.0021
19964TIP3    H181383   3.132   4.176   5.840  0.5550  0.0757  0.3788
19964TIP3    H281384   3.095   4.237   5.974 -1.1583 -0.8473  0.3549
19965TIP3   OH281385   0.232   6.524   1.788 -0.5016  0.3495  0.0511
19965TIP3    H181386   0.219   6.615   1.761  4.9139  1.7679  0.9892
19965TIP3    H281387   0.195   6.520   1.876  2.9907  3.3227  1.9223
19966TIP3   OH281388   0.257   5.367  12.200 -0.2265  0.1104 -0.0682
19966TIP3    H181389   0.219   5.448  12.168 -1.3786  0.1392  1.3038
19966TIP3    H281390   0.249   5.371  12.295  1.1118 -0.9356  0.1344
19967TIP3   OH281391   5.363   6.600  15.683  0.2994  0.0993  0.4205
19967TIP3    H181392   5.378   6.609  15.589 -1.4790  0.2711  0.1219
19967TIP3    H281393   5.446   6.567  15.717  1.3107  0.9860 -1.0482
19968TIP3   OH281394   2.156   2.633   6.353 -0.2666 -0.7587  0.3216
19968TIP3    H181395   2.143   2.715   6.400 -2.1471 -0.0693 -1.2610
19968TIP3    H281396   2.142   2.564   6.419 -2.7903  0.1618  0.8604
19969TIP3   OH281397   6.434   4.643   6.477 -0.2951  0.3449 -0.2743
19969TIP3    H181398   6.498   4.621   6.410 -1.5238  1.6860 -2.0043
19969TIP3    H281399   6.409   4.559   6.516 -0.8876 -0.7521 -2.8307
19970TIP3   OH281400   4.263   5.777   4.328 -0.1361 -0.2888  0.1625
19970TIP3    H181401   4.348   5.813   4.353  0.1977  0.0337 -1.3475
19970TIP3    H281402   4.265   5.687   4.361  0.6088 -0.1523  0.5134
19971TIP3   OH281403   2.028   0.783  14.689  0.2494 -0.2470 -0.0697
19971TIP3    H181404   2.046   0.877  14.689 -1.4868  0.1161  0.5682
19971TIP3    H281405   2.063   0.751  14.606 -1.9541  1.5508 -1.7910
19972TIP3   OH281406   6.012   6.120   0.615 -0.4391 -0.1311  0.2330
19972TIP3    H181407   5.937   6.103   0.672 -1.5114 -0.3956 -1.2152
19972TIP3    H281408   6.070   6.175   0.668 -2.8343  2.3401  0.5389
19973TIP3   OH281409   3.607   0.420  11.164 -0.4088  0.1939  0.1932
19973TIP3    H181410   3.597   0.478  11.088 -2.7710 -0.7735 -0.3275
19973TIP3    H281411   3.618   0.333  11.126  0.5981 -0.0384  0.9766
19974TIP3   OH281412   5.812   6.185   5.553  0.1367 -0.3938  0.0357
19974TIP3    H181413   5.779   6.099   5.578 -2.1033  0.3422 -0.1450
19974TIP3    H281414   5.859   6.217   5.630  0.6303 -1.5791  0.2423
19975TIP3   OH281415   0.846   1.273   2.772 -0.2574  0.1566 -0.2272
19975TIP3    H181416   0.778   1.315   2.824  0.6307  1.5403 -0.1238
19975TIP3    H281417   0.864   1.190   2.817 -0.3666  0.7698  0.9746
19976TIP3   OH281418   1.622   2.813  13.207  0.1095  0.3753 -0.1899
19976TIP3    H181419   1.527   2.800  13.204  0.0626  0.8373 -1.9649
19976TIP3    H281420   1.658   2.724  13.209 -0.3411  0.2000  0.9723
19977TIP3   OH281421   5.932   5.069  12.730 -0.0693 -0.0732  0.1263
19977TIP3    H181422   5.906   5.002  12.793  1.9049  0.1365  1.2687
19977TIP3    H281423   6.026   5.053  12.716 -0.1606  0.7429 -1.7387
19978TIP3   OH281424   3.896   3.117  13.021 -0.2613 -0.0012  0.2623
19978TIP3    H181425   3.804   3.135  13.039 -0.4421 -0.9255  0.3007
19978TIP3    H281426   3.942   3.147  13.100 -0.7251 -1.1359  0.9928
19979TIP3   OH281427   3.732   1.087  16.231 -0.3293  0.2576 -0.4971
19979TIP3    H181428   3.663   1.119  16.290 -2.0720  0.1195 -2.3335
19979TIP3    H281429   3.781   1.024  16.283 -1.2074  0.8112  1.0797
19980TIP3   OH281430   4.021   6.692   6.066  0.0329  0.0840 -0.0957
19980TIP3    H181431   3.964   6.619   6.092  0.2298  0.3288  1.0746
19980TIP3    H281432   4.108   6.665   6.096  0.1221  0.7418  0.2490
19981TIP3   OH281433   0.986   1.315  11.860 -0.3076  0.1440  0.1034
19981TIP3    H181434   1.024   1.228  11.844 -0.2349 -0.0928  1.4647
19981TIP3    H281435   1.009   1.335  11.951 -0.2284  1.6493 -0.2332
19982TIP3   OH281436   1.825   6.425   5.680 -0.2297  0.9210  0.1371
19982TIP3    H181437   1.797   6.444   5.590  0.1866 -1.2463 -0.5336
19982TIP3    H281438   1.753   6.456   5.735 -0.9435  1.4151 -1.0306
19983TIP3   OH281439   3.456   3.670   0.342 -0.0350 -0.3397  0.3002
19983TIP3    H181440   3.406   3.751   0.330 -1.1866 -0.8644  1.3720
19983TIP3    H281441   3.533   3.681   0.286 -0.4037  1.2932  0.0634
19984TIP3   OH281442   6.785   3.375  14.066 -0.4699 -0.3379 -0.7565
19984TIP3    H181443   6.859   3.337  14.017 -0.0378 -0.6819  0.1331
19984TIP3    H281444   6.822   3.395  14.153 -1.3607 -0.2826 -0.3841
19985TIP3   OH281445   4.896   1.846   1.900  0.1795  0.9941  0.4959
19985TIP3    H181446   4.863   1.778   1.842 -0.6243  1.2804  0.6023
19985TIP3    H281447   4.986   1.820   1.920 -0.5769 -0.8313  1.7381
19986TIP3   OH281448   5.377   0.227   3.352  0.4677  0.2137  0.4250
19986TIP3    H181449   5.401   0.313   3.316  1.6947 -0.8615 -1.4794
19986TIP3    H281450   5.461   0.187   3.374  0.0170 -1.0460 -0.0923
19987TIP3   OH281451   0.517   5.802   1.396  0.4156  0.7406  0.1543
19987TIP3    H181452   0.578   5.799   1.322 -0.5796 -0.1162 -0.6722
19987TIP3    H281453   0.516   5.712   1.429  1.0735  1.1723  1.4386
19988TIP3   OH281454   3.218   0.049  15.812  0.5728 -0.1005 -0.2559
19988TIP3    H181455   3.198   0.065  15.905  1.9375 -0.0142  0.0326
19988TIP3    H281456   3.223   0.136  15.774 -0.5664 -0.1504 -0.5552
19989TIP3   OH281457   0.348   2.049  13.268 -0.4224 -0.8536 -0.1732
19989TIP3    H181458   0.253   2.052  13.285 -0.0442  1.1601  2.1517
19989TIP3    H281459   0.357   2.079  13.178 -1.9523  0.3385  0.0286
19990TIP3   OH281460   0.918   6.300   5.284  0.2770  0.3023  0.2749
19990TIP3    H181461   0.990   6.360   5.263  0.3628  0.1173  0.0315
19990TIP3    H281462   0.873   6.342   5.357  0.9767  0.1341  0.8161
19991TIP3   OH281463   3.578   3.787   4.576 -0.1030  0.1582 -0.5656
19991TIP3    H181464   3.665   3.754   4.600  0.2102  1.5466  0.2780
19991TIP3    H281465   3.582   3.795   4.480  0.1298 -1.2929 -0.7010
19992TIP3   OH281466   1.591   1.213   0.043 -0.0363  0.1547 -0.4365
19992TIP3    H181467   1.543   1.134   0.016 -1.5334  1.9237 -3.4502
19992TIP3    H281468   1.671   1.212  -0.010 -0.4461  0.9994 -1.1018
19993TIP3   OH281469   0.151   3.375   5.289  0.4847  0.4008 -0.0489
19993TIP3    H181470   0.093   3.433   5.241  0.1338 -0.5632 -0.8119
19993TIP3    H281471   0.146   3.292   5.243  0.7629 -0.3272  1.1863
19994TIP3   OH281472   5.070   2.285  13.895  0.5655 -0.3061  0.2575
19994TIP3    H181473   5.030   2.205  13.862  1.2769 -0.1168 -1.1110
19994TIP3    H281474   5.080   2.269  13.989 -1.1783 -0.9936  0.3631
19995TIP3   OH281475   2.188   0.775   1.687 -0.1564 -0.1856  0.7037
19995TIP3    H181476   2.270   0.740   1.722  0.6998  0.6018 -0.4675
19995TIP3    H281477   2.193   0.761   1.593 -1.0556  0.5263  0.5299
19996TIP3   OH281478   5.158   2.565   3.589  0.1742  0.0984 -0.4482
19996TIP3    H181479   5.080   2.618   3.601 -0.1670  0.0412 -2.2086
19996TIP3    H281480   5.226   2.627   3.562  0.4739 -0.0113  0.0251
19997TIP3   OH281481   4.570   4.700   4.901  0.1117  0.7148 -0.3263
19997TIP3    H181482   4.619   4.782   4.891  0.2249  0.4205 -2.9979
19997TIP3    H281483   4.478   4.726   4.889  0.1291  0.4834 -0.9619
19998TIP3   OH281484   3.656   3.009  16.684 -0.0220 -0.1813  0.7428
19998TIP3    H181485   3.678   2.989  16.593 -0.9037  0.4322  0.3818
19998TIP3    H281486   3.660   2.924  16.729 -1.1823 -0.7736 -0.2191
19999TIP3   OH281487   5.447   1.176  12.910  0.0909 -0.7878  0.3361
19999TIP3    H181488   5.526   1.123  12.901 -0.5516 -1.6795 -0.2054
19999TIP3    H281489   5.440   1.223  12.827 -0.5092 -1.5269 -0.0473
20000TIP3   OH281490   6.118   1.723  11.974 -0.1285  0.4853  0.4257
20000TIP3    H181491   6.108   1.672  11.893 -0.5720  0.5357  0.4436
20000TIP3    H281492   6.195   1.687  12.017  1.1641  1.5855 -0.8505
20001TIP3   OH281493   3.989   3.335   1.015  0.3568  0.1035 -0.0998
20001TIP3    H181494   3.936   3.414   0.999 -1.3181 -0.2787  2.9426
20001TIP3    H281495   3.926   3.264   1.015  1.3835 -0.8244  0.3768
20002TIP3   OH281496   1.807   1.178  11.687  0.6463  0.2162  0.2536
20002TIP3    H181497   1.836   1.184  11.778  0.4205  0.1266  0.3338
20002TIP3    H281498   1.761   1.261  11.671  2.5133  1.1559 -0.4458
20003TIP3   OH281499   4.028   3.526   4.635 -0.5898 -0.3902  0.5073
20003TIP3    H181500   4.053   3.481   4.554  0.1697 -1.5158  1.3417
20003TIP3    H281501   4.093   3.499   4.699 -1.9228 -0.5747  1.8442
20004TIP3   OH281502   2.573   0.209   5.387 -0.3301 -0.0255  0.8208
20004TIP3    H181503   2.532   0.245   5.465  0.5132 -0.8260  1.6693
20004TIP3    H281504   2.501   0.196   5.326 -0.7699  2.3056  0.7554
20005TIP3   OH281505   3.366   5.133  14.639  0.0751  0.2335  0.6663
20005TIP3    H181506   3.278   5.133  14.677 -0.5542 -2.0528 -0.5722
20005TIP3    H281507   3.400   5.045  14.657  0.1760 -0.6101 -2.8621
20006TIP3   OH281508   5.337   0.217   3.847  0.5373  0.4105 -0.4809
20006TIP3    H181509   5.257   0.166   3.832  0.0131  1.0377  0.0991
20006TIP3    H281510   5.343   0.274   3.770 -0.1984  1.1315 -0.0334
20007TIP3   OH281511   1.276   3.623   3.517 -0.2081 -0.4455  0.0778
20007TIP3    H181512   1.229   3.677   3.454 -1.2995 -0.1307  1.1340
20007TIP3    H281513   1.296   3.683   3.589  2.3144 -0.4250 -0.5448
20008TIP3   OH281514   0.182   0.430  14.171 -0.2202  0.0870 -0.3443
20008TIP3    H181515   0.174   0.508  14.116 -0.3376  0.7888  0.6386
20008TIP3    H281516   0.267   0.393  14.147  0.7190  1.5923  0.4996
20009TIP3   OH281517   4.937   0.721  17.111 -0.1719  0.2341 -0.2189
20009TIP3    H181518   4.871   0.767  17.162  0.1753  1.4654 -0.8430
20009TIP3    H281519   5.010   0.782  17.105  2.0037 -1.8706  2.3147
20010TIP3   OH281520   3.105   5.449   3.133  0.2502  0.3413  0.3463
20010TIP3    H181521   3.081   5.416   3.046 -1.0039  1.0515  0.4135
20010TIP3    H281522   3.079   5.541   3.132  0.8828  0.5463  1.2432
20011TIP3   OH281523   6.280   4.531   5.485  0.3435 -0.1000  0.4708
20011TIP3    H181524   6.241   4.530   5.397  1.3992 -0.3077 -0.0233
20011TIP3    H281525   6.268   4.621   5.516  2.7684  0.9398 -1.2546
20012TIP3   OH281526   6.685   2.383  12.470  0.1181  0.2951  0.0678
20012TIP3    H181527   6.689   2.379  12.375 -1.3669 -0.6535  0.0027
20012TIP3    H281528   6.724   2.467  12.493  0.4300  0.5683 -1.3808
20013TIP3   OH281529   6.339   5.170  15.104 -0.2508  0.0857  0.0289
20013TIP3    H181530   6.410   5.234  15.111 -0.2045 -0.1802  2.8720
20013TIP3    H281531   6.353   5.129  15.018  0.2078  3.2259 -1.5512
20014TIP3   OH281532   2.372   6.289  11.034  0.3883 -0.0407  0.2948
20014TIP3    H181533   2.304   6.274  10.968  0.0900  3.9150 -0.5862
20014TIP3    H281534   2.453   6.295  10.984  0.2166  2.5816  0.1772
20015TIP3   OH281535   1.946   2.018   4.747  0.2833  0.2691 -0.1012
20015TIP3    H181536   2.008   1.964   4.698  0.0983  0.0660 -0.1099
20015TIP3    H281537   1.861   1.999   4.708  0.0864 -0.1404  0.5168
20016TIP3   OH281538   5.509   2.235   5.054 -0.0517 -0.1445  0.4026
20016TIP3    H181539   5.579   2.189   5.100  0.0765  0.5212  0.8929
20016TIP3    H281540   5.443   2.168   5.038  0.9081 -0.9055 -0.5348
20017TIP3   OH281541   5.735   0.599  13.508  0.2522  0.2653  0.4843
20017TIP3    H181542   5.752   0.537  13.579 -0.6732 -1.8677 -1.0375
20017TIP3    H281543   5.786   0.565  13.434  0.7005  2.0664 -0.0731
20018TIP3   OH281544   2.256   3.341   6.200  0.7694  0.2910  0.2611
20018TIP3    H181545   2.200   3.376   6.131  1.5856  0.5696 -0.2746
20018TIP3    H281546   2.200   3.340   6.278 -0.0455  0.3288 -0.3119
20019TIP3   OH281547   2.296   6.041  15.177  0.0980 -0.1723 -0.0819
20019TIP3    H181548   2.377   6.009  15.216 -0.8975 -1.8045  0.7681
20019TIP3    H281549   2.278   6.123  15.222  0.2896 -0.7675  1.1272
20020TIP3   OH281550   0.435   5.722   4.583 -0.1915  0.2270  0.5188
20020TIP3    H181551   0.341   5.721   4.562 -0.2359 -0.3981  0.7033
20020TIP3    H281552   0.455   5.813   4.601 -1.0081  0.2272  1.5118
20021TIP3   OH281553   2.436   2.041  13.686 -0.1009 -0.0873  0.0064
20021TIP3    H181554   2.447   2.131  13.656 -1.4510  0.1305  0.0991
20021TIP3    H281555   2.343   2.022  13.671 -0.1347 -0.9968  1.2248
20022TIP3   OH281556   1.136   6.519  14.611  0.0463 -0.1253 -0.1183
20022TIP3    H181557   1.169   6.512  14.700 -0.5159 -0.9110  0.0321
20022TIP3    H281558   1.209   6.491  14.556  0.2515 -0.0551  0.1181
20023TIP3   OH281559   2.586   1.720  14.264 -0.1334  0.1368  0.7266
20023TIP3    H181560   2.517   1.654  14.270  0.1462 -0.1935  0.3424
20023TIP3    H281561   2.631   1.700  14.182  1.4488 -0.6639  1.7392
20024TIP3   OH281562   2.032   5.405  13.708 -0.2758 -0.2689 -0.2718
20024TIP3    H181563   1.975   5.350  13.654 -1.0591  0.1773  0.0913
20024TIP3    H281564   2.040   5.356  13.790 -2.6621  1.0610  0.8498
20025TIP3   OH281565   0.436   5.114   3.286 -0.0094 -0.3923 -0.3068
20025TIP3    H181566   0.381   5.036   3.282  0.5572 -0.9403  1.5640
20025TIP3    H281567   0.374   5.188   3.286 -0.7512 -0.9739  1.2393
20026TIP3   OH281568   0.053   0.071   1.274  0.4695 -0.8018  0.1882
20026TIP3    H181569   0.010   0.144   1.319 -0.7319 -0.2543 -1.7638
20026TIP3    H281570  -0.013   0.002   1.272  0.2403 -0.5628 -1.3206
20027TIP3   OH281571   4.409   4.953   2.830 -0.3449  0.6784 -0.1080
20027TIP3    H181572   4.494   4.996   2.835 -0.5137  1.0459 -0.3199
20027TIP3    H281573   4.375   4.955   2.919 -0.5181  1.3379 -0.1841
20028TIP3   OH281574   5.299   5.243  14.748 -0.3062  0.5055 -0.1481
20028TIP3    H181575   5.347   5.212  14.671 -2.1537  1.7682 -1.9033
20028TIP3    H281576   5.224   5.184  14.755 -0.3947  0.6775  0.4238
20029TIP3   OH281577   6.200   3.324  14.929  0.0299  0.1883  0.0641
20029TIP3    H181578   6.164   3.243  14.966  0.7172 -0.2141 -0.1335
20029TIP3    H281579   6.292   3.322  14.953  0.5061 -0.0761 -1.6495
20030TIP3   OH281580   3.544   0.951   2.683 -0.2798  0.2381 -1.5081
20030TIP3    H181581   3.559   1.044   2.662  0.3315  0.7561  0.8294
20030TIP3    H281582   3.630   0.911   2.675 -0.7596 -0.4431 -3.6850
20031TIP3   OH281583   0.711   3.546  10.801 -0.3228  0.6252  0.3040
20031TIP3    H181584   0.770   3.532  10.727  1.3864 -1.6877  1.9693
20031TIP3    H281585   0.762   3.519  10.877 -3.2160 -0.5539  1.9493
20032TIP3   OH281586   0.664   0.370  12.018  0.1813 -0.3005  0.0910
20032TIP3    H181587   0.683   0.283  11.982  2.4975  0.7789 -1.5190
20032TIP3    H281588   0.688   0.431  11.949  0.4725  1.7281  1.8698
20033TIP3   OH281589   4.875   5.170   2.131  0.4128 -0.1749  0.4625
20033TIP3    H181590   4.858   5.215   2.214  0.2638  0.3373  0.1558
20033TIP3    H281591   4.876   5.239   2.065 -1.4318 -0.7748 -0.2574
20034TIP3   OH281592   0.228   5.666   6.191  0.5709 -0.8634 -0.4518
20034TIP3    H181593   0.252   5.752   6.156  0.9645 -0.7906 -0.0128
20034TIP3    H281594   0.152   5.683   6.247  0.8730 -0.7376 -0.0736
20035TIP3   OH281595   1.144   5.060  10.783 -0.1288  0.8864 -0.0311
20035TIP3    H181596   1.087   4.991  10.747  0.5934  0.1880  0.1359
20035TIP3    H281597   1.215   5.068  10.719  1.2954 -0.5323  1.2980
20036TIP3   OH281598   1.191   5.154  16.078  0.4340 -0.1540  0.6191
20036TIP3    H181599   1.128   5.145  16.150  1.6723 -1.0008  1.6360
20036TIP3    H281600   1.263   5.204  16.116  0.7236  0.1593 -0.3138
20037TIP3   OH281601   3.423   6.005   1.443  0.1528  0.1821 -1.0245
20037TIP3    H181602   3.455   6.037   1.527 -0.4040 -0.0930 -0.6976
20037TIP3    H281603   3.328   6.003   1.454  0.0789  0.1261 -1.6577
20038TIP3   OH281604   0.531   5.303   1.052  0.5899 -1.3407  0.2384
20038TIP3    H181605   0.567   5.373   1.107  0.0025 -0.4741 -0.4628
20038TIP3    H281606   0.505   5.346   0.971 -0.3252 -2.2652  0.0135
20039TIP3   OH281607   0.065   0.531  16.831 -0.1425  0.7493 -0.2673
20039TIP3    H181608   0.159   0.520  16.849 -0.5206 -1.2319  0.7030
20039TIP3    H281609   0.033   0.582  16.906 -0.5526 -2.2061  1.7338
20040TIP3   OH281610   6.716   1.686  15.707 -0.3603  0.3575  0.0474
20040TIP3    H181611   6.724   1.664  15.614  0.5851  1.1686 -0.0860
20040TIP3    H281612   6.712   1.602  15.752 -1.9075 -0.0687 -0.7812
20041TIP3   OH281613   6.816   1.642   1.101  0.2233  0.0451 -0.6061
20041TIP3    H181614   6.817   1.667   1.008 -1.8496  1.7003 -0.2531
20041TIP3    H281615   6.794   1.549   1.100  2.1747 -0.4794 -1.7807
20042TIP3   OH281616   1.502   5.749   2.246  0.0315  0.7421 -0.1576
20042TIP3    H181617   1.424   5.706   2.211 -0.1313 -0.1016  1.1865
20042TIP3    H281618   1.471   5.836   2.273 -0.3602  0.5429  0.0448
20043TIP3   OH281619   5.806   5.938   3.246  0.0140  0.3309  0.2392
20043TIP3    H181620   5.752   6.007   3.209  0.4421 -0.6337 -2.4268
20043TIP3    H281621   5.884   5.937   3.191  0.5531 -1.4858  0.9635
20044TIP3   OH281622   2.192   1.983  14.557 -0.7074 -0.3717  0.2875
20044TIP3    H181623   2.267   2.040  14.543 -0.3217 -0.8494  0.3821
20044TIP3    H281624   2.209   1.907  14.502 -1.6239 -0.0325 -0.4893
20045TIP3   OH281625   1.112   5.907   0.389 -0.4270 -0.7241  0.6094
20045TIP3    H181626   1.134   5.948   0.305 -0.8326  0.8115  1.2131
20045TIP3    H281627   1.123   5.813   0.373  0.7891 -0.3957 -0.7757
20046TIP3   OH281628   0.478   0.976   5.142 -0.4397 -0.3306 -0.2006
20046TIP3    H181629   0.456   0.987   5.049  1.4777 -0.9778 -0.7936
20046TIP3    H281630   0.477   1.064   5.178 -2.8872 -0.2290 -0.3833
20047TIP3   OH281631   0.906   4.426   3.316  0.3729 -0.4410  0.9205
20047TIP3    H181632   0.981   4.461   3.268 -0.8875  1.4595  0.1938
20047TIP3    H281633   0.869   4.360   3.259  0.5033 -0.1626  0.5121
20048TIP3   OH281634   0.736   5.125   5.062 -0.2102  0.4944  0.7179
20048TIP3    H181635   0.797   5.052   5.049  0.2503  0.5774  2.3013
20048TIP3    H281636   0.791   5.197   5.091 -0.7847  1.2500 -0.0247
20049TIP3   OH281637   6.518   1.181  15.702  0.0087 -0.0724  0.6994
20049TIP3    H181638   6.483   1.157  15.788 -2.2721 -2.0129 -0.6185
20049TIP3    H281639   6.444   1.223  15.657  0.2102 -1.5949 -1.2040
20050TIP3   OH281640   3.812   3.561   1.010  0.1147  0.2034  0.7019
20050TIP3    H181641   3.729   3.525   0.978  0.5927  1.2026 -1.9674
20050TIP3    H281642   3.802   3.656   1.001  1.5268  0.3342  0.2744
20051TIP3   OH281643   6.833   1.286  16.331  0.4448  0.5668  0.1514
20051TIP3    H181644   6.888   1.343  16.383  1.0411 -0.9818  1.2950
20051TIP3    H281645   6.783   1.235  16.395  1.8762 -2.0508 -0.6257
20052TIP3   OH281646   5.990   4.150   2.467 -0.0149  0.1390  0.1104
20052TIP3    H181647   5.937   4.203   2.526 -0.7722  0.6527 -0.9911
20052TIP3    H281648   6.006   4.069   2.515 -1.8181 -0.0412  0.4953
20053TIP3   OH281649   4.080   5.096  14.107 -0.2885  0.0829  0.7252
20053TIP3    H181650   4.161   5.147  14.107  0.7023 -1.4409  1.3852
20053TIP3    H281651   4.052   5.095  14.198  0.4576 -1.6748  0.9637
20054TIP3   OH281652   5.093   6.394   6.109  0.3833 -0.0010  0.0446
20054TIP3    H181653   5.018   6.345   6.143  0.6957 -1.1090 -0.7875
20054TIP3    H281654   5.103   6.468   6.169 -0.5218 -0.5886  0.9567
20055TIP3   OH281655   3.060   4.227   1.436  0.6311  0.0906 -0.4403
20055TIP3    H181656   3.141   4.225   1.487  0.0529 -1.4941  0.4992
20055TIP3    H281657   2.998   4.274   1.492  0.3788 -0.4133 -0.2933
20056TIP3   OH281658   2.794   5.347   2.801  0.5426  0.2051 -0.1702
20056TIP3    H181659   2.885   5.326   2.824  1.0236  2.6344  0.5382
20056TIP3    H281660   2.802   5.424   2.745 -1.0824  1.7039  1.5117
20057TIP3   OH281661   4.624   0.444  15.908 -0.0119 -0.0631 -0.2885
20057TIP3    H181662   4.559   0.423  15.841 -0.2003  0.0630 -0.1461
20057TIP3    H281663   4.648   0.359  15.945  1.0759 -0.2767 -1.4171
20058TIP3   OH281664   0.869   4.587  10.512  0.4490 -0.5101  0.0515
20058TIP3    H181665   0.931   4.652  10.482  0.9130 -0.7002  0.5842
20058TIP3    H281666   0.861   4.603  10.607  0.1156 -0.8404  0.0815
20059TIP3   OH281667   5.153   5.875  12.368 -0.8345  0.5459  0.0726
20059TIP3    H181668   5.213   5.815  12.413 -0.0012  1.3616  0.0812
20059TIP3    H281669   5.090   5.818  12.325 -0.8100 -0.2981  1.1133
20060TIP3   OH281670   2.862   2.124   3.377 -0.1762  0.4144 -0.3980
20060TIP3    H181671   2.875   2.029   3.377  0.5634  0.4328 -2.8669
20060TIP3    H281672   2.941   2.159   3.416  0.5152  0.0366 -1.4030
20061TIP3   OH281673   5.247   4.148   5.577 -1.2725  0.3750  0.0288
20061TIP3    H181674   5.233   4.123   5.669  3.0543  1.0307  1.1002
20061TIP3    H281675   5.285   4.070   5.537  0.0728  1.1137 -0.1985
20062TIP3   OH281676   5.281   5.200   2.797  0.5943 -0.6409 -0.1694
20062TIP3    H181677   5.236   5.246   2.726  2.3971 -1.6988 -2.1112
20062TIP3    H281678   5.279   5.261   2.870 -3.0934 -0.2953 -0.4101
20063TIP3   OH281679   1.373   3.689  13.698  0.6522 -0.2054  0.3160
20063TIP3    H181680   1.336   3.688  13.610  2.3076 -1.5151 -0.4221
20063TIP3    H281681   1.408   3.600  13.711  0.8233  0.0757  2.1380
20064TIP3   OH281682   2.813   4.142  12.642 -0.4508  0.5047  0.1531
20064TIP3    H181683   2.776   4.150  12.730 -1.5789  1.2434 -0.3603
20064TIP3    H281684   2.873   4.217  12.635 -0.0620  0.2247  0.4164
20065TIP3   OH281685   0.599   5.380   3.235 -0.1983 -0.1375  0.3125
20065TIP3    H181686   0.513   5.419   3.250 -0.0601 -0.5629  2.4603
20065TIP3    H281687   0.662   5.447   3.262  0.0864 -0.7300  1.1647
20066TIP3   OH281688   3.854   6.639  14.100  0.1830  0.2883  0.2344
20066TIP3    H181689   3.836   6.621  14.008 -0.3067 -3.2748  0.8841
20066TIP3    H281690   3.939   6.599  14.116 -0.5264 -0.7010  1.6981
20067TIP3   OH281691   3.034   6.224   0.794  0.0582  0.0573 -0.1335
20067TIP3    H181692   3.091   6.293   0.828  0.6004 -0.6488  0.4129
20067TIP3    H281693   3.094   6.164   0.749 -0.4918  0.2910 -1.2067
20068TIP3   OH281694   1.927   6.771   4.242 -0.4836  0.8638 -0.0793
20068TIP3    H181695   1.838   6.805   4.247 -0.6628  0.6187 -1.3188
20068TIP3    H281696   1.916   6.676   4.232 -0.1676  0.9832 -1.9560
20069TIP3   OH281697   5.397   6.291  12.000 -0.1527  0.1894  0.0817
20069TIP3    H181698   5.383   6.202  12.032 -2.2157  0.5606  0.3032
20069TIP3    H281699   5.359   6.348  12.066 -0.7777  1.1471 -1.0531
20070TIP3   OH281700   4.018   0.221  12.744  0.2057 -0.6354 -0.1441
20070TIP3    H181701   3.929   0.219  12.710  0.6758 -0.8916 -1.3913
20070TIP3    H281702   4.047   0.311  12.732 -0.0593 -0.4050  0.7950
20071TIP3   OH281703   3.421   5.318  16.204 -0.4587  0.0174 -0.4801
20071TIP3    H181704   3.337   5.275  16.218 -0.0882 -0.6473 -0.2648
20071TIP3    H281705   3.400   5.395  16.151 -1.4983  1.0834  1.3726
20072TIP3   OH281706   0.128   1.606   3.417  0.1120  0.1611 -0.0535
20072TIP3    H181707   0.047   1.578   3.461  0.6715  0.2709  1.0753
20072TIP3    H281708   0.164   1.674   3.475  0.4845  0.8458 -1.0691
20073TIP3   OH281709   2.598   1.873  11.165 -0.2337  0.6532  0.2039
20073TIP3    H181710   2.625   1.817  11.238  0.2613  0.4690 -0.1103
20073TIP3    H281711   2.511   1.842  11.142 -0.8898  1.5006  1.4810
20074TIP3   OH281712   2.641   0.606   2.218  0.3558 -0.2041  0.2442
20074TIP3    H181713   2.681   0.687   2.186  0.2930 -0.1007  0.4239
20074TIP3    H281714   2.674   0.597   2.307  1.9978 -1.4618 -0.4387
20075TIP3   OH281715   4.922   4.612   3.607  0.1866  0.4048 -0.3898
20075TIP3    H181716   4.908   4.565   3.525  1.7819  0.8620 -0.9576
20075TIP3    H281717   4.949   4.544   3.669  1.9123  0.4364 -1.0534
20076TIP3   OH281718   4.968   3.703  15.791  0.2544  0.3553 -0.7539
20076TIP3    H181719   4.881   3.737  15.812 -0.1668  0.1881 -2.1831
20076TIP3    H281720   4.953   3.635  15.726  1.4729  0.4425 -1.1585
20077TIP3   OH281721   3.643   0.882  17.041  0.4540 -0.4613  0.4820
20077TIP3    H181722   3.686   0.798  17.023  1.2848  0.0373  0.0610
20077TIP3    H281723   3.701   0.924  17.105 -0.3098 -0.4794  1.2036
20078TIP3   OH281724   6.747   3.212   6.237 -0.2683 -0.3998  0.4108
20078TIP3    H181725   6.669   3.156   6.232 -1.3596  1.1738 -1.4988
20078TIP3    H281726   6.820   3.153   6.216 -1.3733 -1.1641 -1.5785
20079TIP3   OH281727   5.161   5.417   5.575 -0.5418 -0.0306  0.3592
20079TIP3    H181728   5.178   5.383   5.487  0.8095  0.8240  0.2573
20079TIP3    H281729   5.080   5.468   5.567  1.6230  3.4776 -1.4485
20080TIP3   OH281730   5.749   1.025   0.965 -0.0555 -0.2250 -0.9022
20080TIP3    H181731   5.825   1.082   0.963  0.7417 -1.2752 -2.0213
20080TIP3    H281732   5.725   1.019   1.058  0.1066  1.5250 -0.7178
20081TIP3   OH281733   3.699   0.307  12.973 -0.6875 -0.4938 -0.3196
20081TIP3    H181734   3.673   0.278  13.060 -0.3240 -1.5867 -0.5616
20081TIP3    H281735   3.793   0.326  12.981 -0.2370 -2.3317 -0.8853
20082TIP3   OH281736   4.006   5.475  13.779  0.8056 -0.1225  0.0684
20082TIP3    H181737   4.050   5.398  13.744 -0.8527 -0.9082 -0.3645
20082TIP3    H281738   3.986   5.528  13.701 -0.5938 -0.6446  0.0464
20083TIP3   OH281739   4.784   2.670   2.022 -0.3716 -0.1434 -0.2676
20083TIP3    H181740   4.741   2.750   1.993  1.6946  0.8946 -0.6015
20083TIP3    H281741   4.800   2.621   1.942  1.8556  0.9468 -0.5490
20084TIP3   OH281742   0.544   3.484  11.581 -0.4922  0.4232 -0.8274
20084TIP3    H181743   0.451   3.465  11.567 -0.1474 -1.7183 -0.4630
20084TIP3    H281744   0.558   3.568  11.536 -2.4569  0.4982 -1.3813
20085TIP3   OH281745   1.723   2.331   5.674 -0.2178 -0.5169 -0.2874
20085TIP3    H181746   1.755   2.414   5.711 -1.1411  0.0460 -0.7313
20085TIP3    H281747   1.677   2.289   5.746  1.4505 -1.3447  0.3675
20086TIP3   OH281748   6.709   6.615  13.538  0.1682  0.2441  0.1225
20086TIP3    H181749   6.784   6.589  13.484 -0.3267 -0.7260 -0.1304
20086TIP3    H281750   6.682   6.699  13.502  0.2660 -0.0666 -0.7240
20087TIP3   OH281751   0.305   1.156  15.044 -0.0025  0.3737  0.2087
20087TIP3    H181752   0.392   1.178  15.013  0.2486 -0.4745  0.3006
20087TIP3    H281753   0.319   1.097  15.118 -0.6248  1.2260  1.0494
20088TIP3   OH281754   4.145   4.527   0.042  0.1305  0.4310 -0.6744
20088TIP3    H181755   4.117   4.451   0.092 -0.3451 -0.0331 -1.6297
20088TIP3    H281756   4.166   4.593   0.109  0.2434 -0.4197  0.1468
20089TIP3   OH281757   1.966   5.274   5.905 -0.4116 -0.2610  0.3530
20089TIP3    H181758   1.894   5.214   5.887 -1.0783  0.8121 -0.7402
20089TIP3    H281759   2.004   5.291   5.818 -0.2362  0.8800  0.6459
20090TIP3   OH281760   4.330   2.463   6.578 -0.6468  0.6591  1.0222
20090TIP3    H181761   4.351   2.537   6.521  0.2857 -0.0880  0.3572
20090TIP3    H281762   4.292   2.503   6.656 -1.2496  1.7551  0.2050
20091TIP3   OH281763   3.320   4.096  14.519 -0.0170  0.3658 -0.1309
20091TIP3    H181764   3.371   4.042  14.458 -1.1954 -0.5552 -0.3330
20091TIP3    H281765   3.264   4.149  14.462  0.0126  0.6628  0.1154
20092TIP3   OH281766   5.282   3.466   4.660 -0.7012  0.1830  0.0714
20092TIP3    H181767   5.360   3.520   4.670 -0.6568  0.4380 -1.3974
20092TIP3    H281768   5.310   3.378   4.684  0.4700 -0.0103 -1.8376
20093TIP3   OH281769   0.953   0.390   4.639 -0.3773 -0.3126 -0.0837
20093TIP3    H181770   1.008   0.314   4.659 -0.4896 -0.2201  0.5963
20093TIP3    H281771   0.895   0.398   4.715  0.5659  1.3082  0.5049
20094TIP3   OH281772   2.628   5.837  14.625 -0.0396  0.6116 -0.3063
20094TIP3    H181773   2.541   5.797  14.632  0.9219 -1.4377  0.6656
20094TIP3    H281774   2.636   5.890  14.704 -0.4233  0.9072 -0.4572
20095TIP3   OH281775   6.193   5.912   5.235 -0.1882  0.0334  0.1290
20095TIP3    H181776   6.164   5.838   5.182 -0.6826  0.5056 -0.2658
20095TIP3    H281777   6.289   5.909   5.230 -0.1212 -1.4888  1.3798
20096TIP3   OH281778   6.076   2.053   3.381 -0.4535 -0.2326  0.2485
20096TIP3    H181779   5.988   2.061   3.419 -0.3297  0.4806  0.3915
20096TIP3    H281780   6.110   2.142   3.379 -0.4894 -0.2252 -1.6374
20097TIP3   OH281781   5.710   5.593  11.498  0.3664  0.1945 -0.0461
20097TIP3    H181782   5.805   5.578  11.497  0.2944 -0.3019  0.1791
20097TIP3    H281783   5.700   5.685  11.474  0.9561  0.4884  0.7893
20098TIP3   OH281784   2.564   6.795  14.204 -0.4530  0.2158 -0.5573
20098TIP3    H181785   2.643   6.839  14.236  0.1098  0.1811 -1.8508
20098TIP3    H281786   2.595   6.712  14.168 -0.7758  0.9557 -2.7157
20099TIP3   OH281787   5.293   5.096  15.134  0.1566 -0.0316 -0.0293
20099TIP3    H181788   5.227   5.102  15.064 -0.0765  0.8281  0.2501
20099TIP3    H281789   5.241   5.096  15.215  0.5018  0.5861  0.1902
20100TIP3   OH281790   1.057   2.485   3.169 -0.6896 -0.0875  0.3645
20100TIP3    H181791   1.035   2.503   3.260 -1.4097  0.1914  0.1442
20100TIP3    H281792   0.987   2.527   3.118  0.2292  0.6159 -0.3555
20101TIP3   OH281793   5.839   5.985  12.812 -0.3783 -0.2631 -0.0099
20101TIP3    H181794   5.904   5.915  12.807 -1.0442 -1.0093  1.1475
20101TIP3    H281795   5.858   6.029  12.895 -0.1616  0.7471 -0.5833
20102TIP3   OH281796   5.743   5.813  13.483  0.2636 -0.2775  0.0331
20102TIP3    H181797   5.668   5.864  13.514 -0.0635 -1.6162  1.5897
20102TIP3    H281798   5.704   5.746  13.428  0.3062 -0.9206  0.7726
20103TIP3   OH281799   5.222   3.730  11.885 -0.0049 -0.1597 -0.1217
20103TIP3    H181800   5.261   3.657  11.837 -0.1782  0.2172 -0.8498
20103TIP3    H281801   5.292   3.795  11.891  0.1069 -0.3244  0.4040
20104TIP3   OH281802   6.804   5.387   3.799 -0.3006  0.9804 -0.3811
20104TIP3    H181803   6.778   5.423   3.714  1.0770  1.0674 -0.7843
20104TIP3    H281804   6.899   5.394   3.800 -0.3098  1.3246  1.3337
20105TIP3   OH281805   2.114   1.564  16.409  0.1100  0.2567 -0.6733
20105TIP3    H181806   2.174   1.630  16.443 -0.2156  0.1331  0.1544
20105TIP3    H281807   2.140   1.483  16.453 -2.1467  0.6287  1.5848
20106TIP3   OH281808   4.859   6.394   0.879 -0.3250 -0.3843 -0.1430
20106TIP3    H181809   4.807   6.420   0.955  0.3970 -0.2298  0.3099
20106TIP3    H281810   4.886   6.304   0.899  0.2289 -0.1897 -0.0110
20107TIP3   OH281811   4.633   0.169   3.151  0.0505  0.4231  0.2752
20107TIP3    H181812   4.704   0.153   3.213  1.3494  1.7166 -0.8173
20107TIP3    H281813   4.618   0.264   3.157  1.5880  0.9654 -2.7483
20108TIP3   OH281814   4.229   5.280  11.889 -0.0872 -0.3432  0.1650
20108TIP3    H181815   4.242   5.186  11.874  1.8213  0.1644 -1.9079
20108TIP3    H281816   4.289   5.302  11.961  0.4151 -0.4977 -0.2022
20109TIP3   OH281817   5.245   1.161   5.399  0.0229 -0.0946 -0.0258
20109TIP3    H181818   5.205   1.245   5.420  0.2025 -0.0729  0.2489
20109TIP3    H281819   5.327   1.161   5.449 -0.7673 -1.1308  1.3566
20110TIP3   OH281820   4.497   2.728  11.350 -0.1137 -0.4088  0.0030
20110TIP3    H181821   4.505   2.811  11.303 -1.1041 -0.6527 -0.6319
20110TIP3    H281822   4.428   2.681  11.303 -0.5077 -1.0300  1.1717
20111TIP3   OH281823   5.700   3.138   3.468 -0.3860  0.3574  0.0043
20111TIP3    H181824   5.779   3.088   3.447 -0.7036  0.0910 -0.5854
20111TIP3    H281825   5.660   3.090   3.541 -0.7125 -0.2956 -0.5881
20112TIP3   OH281826   2.994   5.680   6.355  0.1724 -0.0526  0.7175
20112TIP3    H181827   2.994   5.617   6.427 -1.3341  0.6429  1.3752
20112TIP3    H281828   3.026   5.761   6.394 -1.4303  0.5515  0.8779
20113TIP3   OH281829   6.085   5.107  14.568  0.4787 -0.2675  0.2141
20113TIP3    H181830   5.993   5.088  14.549 -0.1196 -0.8778  3.1954
20113TIP3    H281831   6.133   5.032  14.532  0.0586  0.5952 -2.4065
20114TIP3   OH281832   3.254   1.735  13.326  0.1073 -0.5366 -0.1503
20114TIP3    H181833   3.234   1.816  13.279  0.1631 -0.1549  0.4800
20114TIP3    H281834   3.176   1.680  13.314  0.3740 -0.7073 -1.2337
20115TIP3   OH281835   2.782   2.614   1.981 -0.4660 -0.4440 -0.1446
20115TIP3    H181836   2.815   2.554   2.048  1.9099  1.5567  0.6251
20115TIP3    H281837   2.691   2.586   1.966 -0.2509 -2.5912  1.9794
20116TIP3   OH281838   1.127   0.944   5.512  0.1444 -0.2339 -0.7119
20116TIP3    H181839   1.073   0.927   5.589 -1.7204  0.7011 -1.7337
20116TIP3    H281840   1.156   1.035   5.523  0.5388 -0.3589 -0.7228
20117TIP3   OH281841   0.923   6.036  13.581 -0.1270  0.1435 -0.6211
20117TIP3    H181842   0.924   6.132  13.572  0.7963  0.3872  1.3746
20117TIP3    H281843   0.862   6.020  13.653  1.3702 -0.5383  0.5657
20118TIP3   OH281844   6.663   0.685  11.459  0.1098  0.0628 -0.4812
20118TIP3    H181845   6.586   0.635  11.484  0.7198 -1.3047 -1.2149
20118TIP3    H281846   6.730   0.619  11.441  1.0752  1.1597 -1.0845
20119TIP3   OH281847   4.189   3.220  14.298  0.1523 -0.4278 -0.2059
20119TIP3    H181848   4.203   3.150  14.234 -0.3448  0.7532 -1.6805
20119TIP3    H281849   4.215   3.300  14.252 -0.2846  0.4761  1.0562
20120TIP3   OH281850   5.744   4.681   5.719 -0.7330  0.0998  0.0551
20120TIP3    H181851   5.770   4.732   5.795  0.3661  1.3733 -1.1204
20120TIP3    H281852   5.661   4.641   5.743 -0.7066  0.9768  1.6805
20121TIP3   OH281853   5.916   3.190   6.849 -0.2426  0.1524 -0.3991
20121TIP3    H181854   5.870   3.156   6.926 -0.6738  0.1929 -0.6333
20121TIP3    H281855   5.928   3.113   6.793 -0.1918  0.1761 -0.4206
20122TIP3   OH281856   3.370   6.777  14.496  0.3955 -0.3466 -0.2133
20122TIP3    H181857   3.401   6.841  14.433  0.5661 -0.0618  0.1538
20122TIP3    H281858   3.388   6.817  14.582 -1.1013 -0.1154  0.0117
20123TIP3   OH281859   3.773   2.558  15.630 -0.1770  0.7321 -0.0097
20123TIP3    H181860   3.861   2.521  15.623 -0.6630 -0.7594  1.1640
20123TIP3    H281861   3.764   2.614  15.552  0.3334 -2.2551 -2.4101
20124TIP3   OH281862   4.915   1.141  14.047 -1.0899  0.1223 -0.3223
20124TIP3    H181863   4.953   1.214  14.096  1.8884  0.1409 -2.3674
20124TIP3    H281864   4.851   1.181  13.989 -0.9206  0.8213 -0.0395
20125TIP3   OH281865   2.770   2.272   1.592 -0.3858 -0.0895  0.0209
20125TIP3    H181866   2.720   2.198   1.626  0.3035 -0.2663  0.6716
20125TIP3    H281867   2.806   2.315   1.670 -0.7518  0.9145 -0.3512
20126TIP3   OH281868   4.951   1.999  17.069 -0.1008  0.2888 -0.3456
20126TIP3    H181869   4.973   1.993  16.976 -0.2745 -0.4491 -0.3391
20126TIP3    H281870   5.005   2.071  17.101  0.5479  0.0327 -0.8447
20127TIP3   OH281871   6.203   3.823   1.734  0.2761 -0.7986  0.0202
20127TIP3    H181872   6.260   3.755   1.699  0.2064 -0.3811 -0.9388
20127TIP3    H281873   6.233   3.903   1.692 -2.3436 -0.8497 -2.2958
20128TIP3   OH281874   3.411   3.566   0.806  0.1436 -0.1730  0.0969
20128TIP3    H181875   3.332   3.598   0.762  1.2012  2.1570 -0.2114
20128TIP3    H281876   3.479   3.627   0.782  2.0947 -2.0946  0.4204
20129TIP3   OH281877   3.103   3.785  13.525 -0.5961 -0.0102  0.0033
20129TIP3    H181878   3.122   3.691  13.527  2.1143  0.3841 -1.5206
20129TIP3    H281879   3.047   3.800  13.602 -0.1457 -2.6647  0.9626
20130TIP3   OH281880   0.566   0.477   3.404  0.3173 -0.7702  0.3180
20130TIP3    H181881   0.523   0.435   3.479  1.2693  1.3410  2.2022
20130TIP3    H281882   0.499   0.482   3.337 -1.1873 -1.0784  1.7416
20131TIP3   OH281883   0.425   3.496  14.297 -0.0876 -0.5327 -0.3032
20131TIP3    H181884   0.490   3.523  14.362 -0.3378 -0.2696 -0.1598
20131TIP3    H281885   0.393   3.578  14.259 -0.4761 -0.6479 -0.2328
20132TIP3   OH281886   6.053   3.665  11.299 -0.0257  0.0733 -0.9174
20132TIP3    H181887   6.129   3.609  11.314  0.6185  0.2048 -3.3153
20132TIP3    H281888   6.090   3.749  11.270 -1.0426  0.9858  0.3092
20133TIP3   OH281889   4.507   1.549  13.061  0.1720 -0.3768  0.1305
20133TIP3    H181890   4.581   1.598  13.096  1.3863 -0.3923 -2.2290
20133TIP3    H281891   4.545   1.466  13.030 -1.1212 -1.0830  0.3677
20134TIP3   OH281892   3.517   1.554  12.460  0.0969 -0.0947  0.3677
20134TIP3    H181893   3.526   1.463  12.487  1.1827 -0.4743 -1.1403
20134TIP3    H281894   3.573   1.562  12.383 -0.3894  1.7199  0.1510
20135TIP3   OH281895   1.297   5.049   2.036 -0.0001 -0.0249 -0.3716
20135TIP3    H181896   1.305   4.981   2.103  0.2549 -1.9076 -2.2174
20135TIP3    H281897   1.203   5.054   2.018  0.1203 -1.1584 -1.4278
20136TIP3   OH281898   3.293   0.294  13.746  0.3469  0.1863 -0.1566
20136TIP3    H181899   3.232   0.294  13.672 -0.7551  0.7830  0.7085
20136TIP3    H281900   3.268   0.217  13.797  1.5311 -0.5926 -0.7247
20137TIP3   OH281901   4.524   3.096   5.517  0.2719  0.1300 -0.8369
20137TIP3    H181902   4.556   3.065   5.433 -0.1383 -1.9251 -0.2945
20137TIP3    H281903   4.470   3.024   5.550  1.2598  0.4169  1.6400
20138TIP3   OH281904   5.351   5.959  14.642  0.0780  0.1267 -0.0169
20138TIP3    H181905   5.369   6.023  14.573 -2.7779  0.2529 -0.7526
20138TIP3    H281906   5.353   5.874  14.597 -1.9341  0.2204 -0.3516
20139TIP3   OH281907   3.672   6.225  11.435  0.2920  0.3081 -0.3500
20139TIP3    H181908   3.657   6.136  11.403  0.5326 -0.2498  1.0200
20139TIP3    H281909   3.767   6.229  11.448  0.0879  0.0556  1.4803
20140TIP3   OH281910   3.006   3.444  11.322  0.5478 -0.2863  0.0352
20140TIP3    H181911   2.926   3.392  11.318 -0.4460  0.9213  2.4210
20140TIP3    H281912   3.051   3.425  11.239 -1.3840 -2.2521 -0.6595
20141TIP3   OH281913   5.716   4.121   4.816  0.4532  0.3162 -0.6202
20141TIP3    H181914   5.760   4.150   4.896  0.2573  2.3982 -1.2323
20141TIP3    H281915   5.651   4.057   4.847  0.0746  1.4044  0.9425
20142TIP3   OH281916   5.457   4.985   5.859 -0.2933 -0.0765  0.3185
20142TIP3    H181917   5.481   4.904   5.905  2.7395 -0.8395 -2.1961
20142TIP3    H281918   5.539   5.014   5.819 -2.1553  1.8088 -2.5212
20143TIP3   OH281919   2.892   6.166  13.800  0.0421  0.1607 -0.6021
20143TIP3    H181920   2.932   6.114  13.870 -0.2395  0.2447 -0.3785
20143TIP3    H281921   2.875   6.103  13.730 -0.2806 -0.0419 -0.3393
20144TIP3   OH281922   0.590   0.597  16.984  0.3416  0.3275  0.0605
20144TIP3    H181923   0.551   0.551  16.909 -1.6216  1.7673  0.1179
20144TIP3    H281924   0.601   0.687  16.954  0.1380  0.7759  1.2889
20145TIP3   OH281925   3.601   5.099  12.740  0.1214 -0.3282  0.7032
20145TIP3    H181926   3.609   5.070  12.830  0.1965 -0.1092  0.7661
20145TIP3    H281927   3.626   5.191  12.741 -0.9967 -0.0105  0.6611
20146TIP3   OH281928   4.611   3.828   0.962 -0.1854 -0.0891 -0.3815
20146TIP3    H181929   4.646   3.844   1.049  2.4564 -1.6304 -1.0574
20146TIP3    H281930   4.553   3.753   0.972 -0.9455  0.5556  0.2217
20147TIP3   OH281931   2.610   1.316   4.369 -0.2128 -0.0554 -0.1010
20147TIP3    H181932   2.601   1.232   4.325  1.4890 -0.2457 -0.1639
20147TIP3    H281933   2.559   1.377   4.315  1.0828 -0.4638 -1.8816
20148TIP3   OH281934   6.605   2.305   4.064  0.1317  0.2021 -0.0348
20148TIP3    H181935   6.631   2.318   3.973 -0.1002 -0.0905 -0.1433
20148TIP3    H281936   6.648   2.223   4.089  0.3166  0.3592  0.1652
20149TIP3   OH281937   1.058   0.702   2.988  0.5722  0.1579  0.0516
20149TIP3    H181938   0.966   0.676   2.983 -0.2654  1.6592  3.9411
20149TIP3    H281939   1.059   0.790   2.950  0.2717  0.3242  0.4166
20150TIP3   OH281940   0.330   6.438   1.533 -0.2273 -0.3637 -0.4293
20150TIP3    H181941   0.286   6.454   1.616  1.7316 -1.0305  0.8028
20150TIP3    H281942   0.392   6.510   1.523 -2.0178  1.0186 -2.5498
20151TIP3   OH281943   4.409   5.925   3.066  0.4401 -0.5615  0.0895
20151TIP3    H181944   4.481   5.869   3.037  1.3911 -0.5395  2.2221
20151TIP3    H281945   4.355   5.869   3.121  0.1299  0.0489  0.4212
20152TIP3   OH281946   2.485   4.165   3.697 -0.3583 -0.0261  0.4236
20152TIP3    H181947   2.474   4.092   3.758  0.1205  1.2249  2.0924
20152TIP3    H281948   2.422   4.231   3.725 -2.6179 -0.6679 -2.6404
20153TIP3   OH281949   2.889   0.784   3.113  0.3511 -0.0435 -0.5592
20153TIP3    H181950   2.961   0.847   3.122 -0.0259  0.9947 -3.5559
20153TIP3    H281951   2.915   0.731   3.037 -1.9022  0.2111 -1.5679
20154TIP3   OH281952   0.749   1.682   2.099 -0.0750 -0.3133  0.2388
20154TIP3    H181953   0.732   1.605   2.153  0.1932 -0.6701 -0.1793
20154TIP3    H281954   0.835   1.665   2.061 -0.4993 -0.3189 -0.7277
20155TIP3   OH281955   0.526   5.466  13.807  0.3739 -0.4578  0.0307
20155TIP3    H181956   0.537   5.376  13.776  1.4013 -0.8584  1.4604
20155TIP3    H281957   0.587   5.517  13.753 -1.9201 -0.1196 -2.4779
20156TIP3   OH281958   5.465   4.719  10.795  0.0117 -0.0510 -0.3882
20156TIP3    H181959   5.465   4.761  10.709 -0.4516  0.4744 -0.1366
20156TIP3    H281960   5.546   4.667  10.796 -0.7363 -1.3133 -1.7289
20157TIP3   OH281961   1.751   5.795  11.384 -0.1344 -0.3186  0.3354
20157TIP3    H181962   1.693   5.755  11.449  0.7735  0.5065  1.7018
20157TIP3    H281963   1.692   5.838  11.322 -1.0078 -0.2680  1.1879
20158TIP3   OH281964   0.664   2.518  12.185 -0.3817  0.3880 -0.1269
20158TIP3    H181965   0.694   2.606  12.162 -1.4949  0.5379 -1.1387
20158TIP3    H281966   0.718   2.492  12.259  1.3660  1.1148 -1.0914
20159TIP3   OH281967   1.707   6.739   5.231  0.2196  0.6597  0.4987
20159TIP3    H181968   1.743   6.826   5.246 -0.6549  0.8608  1.5991
20159TIP3    H281969   1.617   6.755   5.201  0.1323  0.1385  0.4701
20160TIP3   OH281970   0.560   1.787   1.961 -0.0217  1.0106  0.8726
20160TIP3    H181971   0.514   1.704   1.949  1.6987  0.1425 -0.0237
20160TIP3    H281972   0.641   1.763   2.006  1.2463  1.9313 -0.8023
20161TIP3   OH281973   1.702   0.596  17.002 -0.3695  0.1684  0.0463
20161TIP3    H181974   1.690   0.511  17.046  0.2562  0.1761  0.2393
20161TIP3    H281975   1.796   0.613  17.008 -0.5002  0.9168  0.0796
20162TIP3   OH281976   4.791   0.891   3.859  0.5652  0.5348  0.0959
20162TIP3    H181977   4.866   0.888   3.799  0.1181  0.8980 -0.4881
20162TIP3    H281978   4.732   0.822   3.828 -0.1649  1.4356 -0.5645
20163TIP3   OH281979   2.550   2.214   4.739 -0.7137  0.2979  0.0040
20163TIP3    H181980   2.525   2.242   4.651  0.4197  1.5065  0.0330
20163TIP3    H281981   2.635   2.254   4.753 -0.5292 -0.5121  1.3737
20164TIP3   OH281982   4.897   6.055   2.138 -0.0631  0.0988 -0.0463
20164TIP3    H181983   4.946   6.099   2.069 -0.6077  0.3918 -0.2604
20164TIP3    H281984   4.882   6.124   2.204  0.4835 -0.1872  0.3825
20165TIP3   OH281985   6.184   6.032   0.146 -0.0918  0.1820  0.0805
20165TIP3    H181986   6.112   6.031   0.083  0.2574  0.4735 -0.3324
20165TIP3    H281987   6.182   6.120   0.184  1.6086  1.1269 -1.8004
20166TIP3   OH281988   5.200   4.951  16.321  0.1420 -0.7893 -0.0470
20166TIP3    H181989   5.174   4.884  16.258  0.4497 -2.3342  1.4288
20166TIP3    H281990   5.169   5.033  16.281 -1.0330 -1.8583 -1.4705
20167TIP3   OH281991   1.735   4.935   4.746 -0.0495  0.3841 -0.0316
20167TIP3    H181992   1.822   4.929   4.785 -0.4467  0.3061  0.8687
20167TIP3    H281993   1.714   5.028   4.747 -0.1654  0.3565  0.1851
20168TIP3   OH281994   5.682   0.024   2.514 -0.2366  0.2514 -0.3549
20168TIP3    H181995   5.665   0.099   2.571  2.0090  0.4826  0.0785
20168TIP3    H281996   5.741   0.058   2.446 -3.0773  0.0942 -3.1756
20169TIP3   OH281997   2.166   2.328  10.729  0.4766 -0.4017  0.2369
20169TIP3    H181998   2.138   2.420  10.734  0.1227 -0.5391  0.8281
20169TIP3    H281999   2.091   2.278  10.760  0.2090 -0.9846 -1.2720
20170TIP3   OH282000   1.789   3.780   3.027  0.3509 -0.9081 -0.0776
20170TIP3    H182001   1.861   3.820   3.075  1.4266 -2.9531  0.0745
20170TIP3    H282002   1.763   3.705   3.079 -0.3418 -1.5424 -1.2834
20171TIP3   OH282003   2.579   4.577  13.055 -0.4503 -0.6553 -0.5616
20171TIP3    H182004   2.623   4.586  12.971 -1.1095  1.8623 -0.7035
20171TIP3    H282005   2.643   4.605  13.120 -1.2629  1.5790 -0.6461
20172TIP3   OH282006   2.234   0.052  11.377  0.1837 -0.3336 -0.4417
20172TIP3    H182007   2.251   0.127  11.435  0.6256 -1.3847  0.8309
20172TIP3    H282008   2.144   0.064  11.348 -0.1798  0.0054  0.7912
20173TIP3   OH282009   5.304   3.296  14.602  0.4671 -0.2541 -0.2722
20173TIP3    H182010   5.304   3.391  14.607 -0.2239 -0.2910  0.6665
20173TIP3    H282011   5.317   3.267  14.693 -0.6570 -1.0419 -0.3425
20174TIP3   OH282012   0.416   0.538  15.426 -0.2158 -0.1665  0.2816
20174TIP3    H182013   0.412   0.607  15.491  0.9168 -0.6346  0.8971
20174TIP3    H282014   0.459   0.465  15.471  0.3117 -0.6160 -0.8845
20175TIP3   OH282015   2.205   5.429   3.372 -0.2487 -0.1702  0.2531
20175TIP3    H182016   2.274   5.402   3.433 -1.6378 -0.3999  1.8025
20175TIP3    H282017   2.250   5.487   3.310  1.4125 -0.6460  0.9407
20176TIP3   OH282018   6.363   1.437  15.227  0.3524 -0.2869  0.0747
20176TIP3    H182019   6.435   1.501  15.224 -1.5311  2.0020 -3.8727
20176TIP3    H282020   6.398   1.360  15.181  0.9683 -0.0883  0.1914
20177TIP3   OH282021   4.139   0.743   4.970  0.8264  0.0801 -0.0722
20177TIP3    H182022   4.061   0.755   4.916  1.0177 -0.9707 -0.6132
20177TIP3    H282023   4.110   0.766   5.059 -0.0394 -0.0874 -0.2960
20178TIP3   OH282024   0.896   0.151  11.393 -0.1646  0.4156  0.0833
20178TIP3    H182025   0.903   0.129  11.300 -0.1559 -0.1010  0.2009
20178TIP3    H282026   0.837   0.227  11.396 -0.1265  0.4635 -0.3447
20179TIP3   OH282027   3.764   1.162  14.952 -0.0024 -0.0697 -0.0704
20179TIP3    H182028   3.762   1.155  15.047 -0.8890  2.2457  0.1287
20179TIP3    H282029   3.752   1.072  14.922 -0.3833 -0.7675  1.9815
20180TIP3   OH282030   5.147   0.690   3.780  0.6281  0.1233 -0.8471
20180TIP3    H182031   5.199   0.610   3.773 -0.3768 -0.8068  1.3642
20180TIP3    H282032   5.097   0.694   3.698 -0.2806 -2.2522 -0.4788
20181TIP3   OH282033   1.417   3.737   5.523  1.1276  0.0933  0.4027
20181TIP3    H182034   1.489   3.676   5.505  0.6246 -0.6046  0.6991
20181TIP3    H282035   1.371   3.697   5.597 -1.0555 -0.8058 -1.3295
20182TIP3   OH282036   1.307   5.957   2.996  0.2101  0.0487  0.2205
20182TIP3    H182037   1.337   6.001   3.076  0.3955  0.8834 -0.2912
20182TIP3    H282038   1.332   6.017   2.926  0.7707 -1.0484 -0.5403
20183TIP3   OH282039   1.304   4.193   6.058  0.2391  0.1383  0.2700
20183TIP3    H182040   1.279   4.102   6.076 -1.5395  0.3944 -0.7320
20183TIP3    H282041   1.341   4.224   6.141  3.2275 -2.1717 -0.0235
20184TIP3   OH282042   0.419   6.443   3.370 -0.5464  0.6092 -0.6295
20184TIP3    H182043   0.382   6.496   3.441 -0.8791 -0.2120 -0.1727
20184TIP3    H282044   0.344   6.396   3.333 -0.2719  0.5168 -1.0827
20185TIP3   OH282045   6.572   1.717   4.166  0.7959  0.1205  0.1885
20185TIP3    H182046   6.492   1.716   4.219 -0.2321 -1.6380 -1.2648
20185TIP3    H282047   6.557   1.786   4.101  0.7705  0.2832  0.3684
20186TIP3   OH282048   2.531   4.029  14.786 -0.0984 -0.5459 -0.0870
20186TIP3    H182049   2.617   3.995  14.808 -0.2480 -0.2488  1.0056
20186TIP3    H282050   2.477   4.010  14.863 -1.1723 -1.2613 -0.9747
20187TIP3   OH282051   2.900   4.031   2.417 -0.0444 -0.8643 -0.2208
20187TIP3    H182052   2.813   4.045   2.455  0.1400  1.3093 -0.4997
20187TIP3    H282053   2.891   3.950   2.366 -1.7659 -0.9088  0.0922
20188TIP3   OH282054   4.661   0.742   1.779 -0.3880 -0.0434  0.1710
20188TIP3    H182055   4.576   0.774   1.749 -1.1554 -2.1079 -0.0157
20188TIP3    H282056   4.668   0.775   1.869  0.4321  3.3633 -0.9879
20189TIP3   OH282057   1.651   4.119  15.270  0.3996  0.3315  0.3399
20189TIP3    H182058   1.704   4.081  15.201 -1.5561 -0.6279 -0.7332
20189TIP3    H282059   1.590   4.177  15.225  0.6310  1.5667  1.5361
20190TIP3   OH282060   1.107   3.859  12.675  0.2860  0.4806  0.2430
20190TIP3    H182061   1.111   3.954  12.678  0.3193  0.4842  0.0825
20190TIP3    H282062   1.167   3.831  12.744  3.9062  0.5449 -2.5675
20191TIP3   OH282063   5.422   2.536   6.506  0.1499  0.2543 -0.2753
20191TIP3    H182064   5.458   2.612   6.552  1.1167 -1.1107  1.3428
20191TIP3    H282065   5.423   2.465   6.570  0.7042 -1.5481 -2.1328
20192TIP3   OH282066   3.070   2.638   5.140  0.2781 -0.2129 -0.6639
20192TIP3    H182067   3.027   2.703   5.196 -0.7888 -1.8396  0.4740
20192TIP3    H282068   3.164   2.649   5.159  0.3149  2.0739 -1.7503
20193TIP3   OH282069   4.815   6.684   3.922  0.8816  0.2921 -0.0847
20193TIP3    H182070   4.899   6.710   3.961  0.4606  0.4669  0.7183
20193TIP3    H282071   4.786   6.762   3.874  0.2129  0.9329  1.3115
20194TIP3   OH282072   5.080   1.630  16.434  0.0139  0.1397  0.1026
20194TIP3    H182073   5.091   1.541  16.402 -1.7244 -0.2216  0.4101
20194TIP3    H282074   5.168   1.668  16.430  0.9419 -1.8116  0.6772
20195TIP3   OH282075   0.742   2.625   0.647  0.0924 -0.0887  0.0333
20195TIP3    H182076   0.791   2.580   0.716  1.7335 -0.2334 -1.1513
20195TIP3    H282077   0.753   2.568   0.570  1.8586  2.0086 -1.4049
20196TIP3   OH282078   4.829   2.999  14.580 -0.3559 -0.1085 -0.0503
20196TIP3    H182079   4.893   3.057  14.539  1.3530 -1.2366  0.8981
20196TIP3    H282080   4.869   2.972  14.662 -1.6671 -1.5849  0.1638
20197TIP3   OH282081   3.525   5.740  14.031  0.1839 -0.1696 -0.2483
20197TIP3    H182082   3.616   5.716  14.014  0.2177 -0.8982  0.8319
20197TIP3    H282083   3.527   5.835  14.047  1.1228 -0.4804  1.8342
20198TIP3   OH282084   3.186   5.331  14.929 -0.7271 -0.5006 -0.1440
20198TIP3    H182085   3.246   5.405  14.927 -0.7826 -0.4441  0.3332
20198TIP3    H282086   3.158   5.321  14.838 -1.7638  0.9120  0.0096
20199TIP3   OH282087   6.713   4.957   1.803 -0.1572  0.3858 -0.3840
20199TIP3    H182088   6.768   4.948   1.726 -1.8167  1.0145 -1.6937
20199TIP3    H282089   6.727   4.875   1.852  1.7909  0.4765 -0.7147
20200TIP3   OH282090   1.538   2.493   2.004 -0.0389 -0.2360  0.2263
20200TIP3    H182091   1.503   2.435   1.937 -2.6261 -0.6930  1.8170
20200TIP3    H282092   1.522   2.581   1.971 -1.6919 -0.4539  0.3583
20201TIP3   OH282093   2.148   2.934  15.067  0.2606  0.4307 -0.2213
20201TIP3    H182094   2.060   2.954  15.098  0.3304  0.7334 -0.2153
20201TIP3    H282095   2.150   2.838  15.060  0.3206  0.3325  0.9430
20202TIP3   OH282096   5.723   2.478  11.895  0.4197  0.5025 -0.0834
20202TIP3    H182097   5.813   2.459  11.923 -0.2392  0.6163  2.2919
20202TIP3    H282098   5.668   2.444  11.966 -1.6369 -1.8233 -2.5555
20203TIP3   OH282099   4.163   1.871  11.386  0.3801  0.6283  0.4584
20203TIP3    H182100   4.243   1.846  11.340  0.7202  2.2012  0.1352
20203TIP3    H282101   4.119   1.788  11.405  2.3387 -0.3241  1.1326
20204TIP3   OH282102   3.959   6.229  12.537 -0.1405 -0.7576 -0.0871
20204TIP3    H182103   4.051   6.207  12.555  0.4279  0.7411 -0.9301
20204TIP3    H282104   3.955   6.237  12.442 -1.0678 -0.5234 -0.0328
20205TIP3   OH282105   2.334   1.499   0.040  0.2219  0.0629 -0.0175
20205TIP3    H182106   2.364   1.502   0.130  0.5005  2.3489 -0.1370
20205TIP3    H282107   2.341   1.589   0.009 -1.9059 -0.2482 -1.6591
20206TIP3   OH282108   0.567   1.777   3.973  0.1490  0.3651 -0.3442
20206TIP3    H182109   0.494   1.819   4.018 -0.1320 -0.0431 -0.4074
20206TIP3    H282110   0.595   1.840   3.907 -1.1437 -0.0606 -1.3398
20207TIP3   OH282111   6.558   0.030   4.933  0.6007  0.9470 -0.0653
20207TIP3    H182112   6.527   0.092   5.000 -0.2558  0.6272 -0.1494
20207TIP3    H282113   6.549  -0.056   4.975 -1.5026  0.5876 -1.1122
20208TIP3   OH282114   3.177   4.230   6.150 -0.2449  0.1859 -0.0223
20208TIP3    H182115   3.219   4.295   6.206  0.9771  0.0344 -0.7203
20208TIP3    H282116   3.095   4.210   6.194 -0.8973  2.5514 -0.0161
20209TIP3   OH282117   5.339   2.914   0.482  0.4000  0.0815 -0.0524
20209TIP3    H182118   5.335   2.914   0.386  3.2785  0.8216 -0.2558
20209TIP3    H282119   5.380   2.997   0.504 -0.9486  0.2820  1.9245
20210TIP3   OH282120   6.576   6.132   3.639 -0.2382 -0.0780  0.1442
20210TIP3    H182121   6.532   6.210   3.603 -1.3461 -0.3414  0.8982
20210TIP3    H282122   6.620   6.164   3.717 -0.6449 -0.1949  0.4217
20211TIP3   OH282123   2.135   2.396   5.853  0.2751 -0.2757  0.0969
20211TIP3    H182124   2.210   2.452   5.836  0.2775 -0.0284  0.8899
20211TIP3    H282125   2.059   2.449   5.829  0.3702 -0.8664 -1.6324
20212TIP3   OH282126   3.951   2.375   5.106 -0.2431 -0.3986 -0.3103
20212TIP3    H182127   3.970   2.283   5.088  1.1594 -0.1986  0.0695
20212TIP3    H282128   4.021   2.404   5.163 -1.3916  0.5790  0.6640
20213TIP3   OH282129   6.364   4.626   2.293  0.2866 -0.6445  0.5863
20213TIP3    H182130   6.297   4.580   2.242 -0.3698  1.3997 -0.5367
20213TIP3    H282131   6.385   4.704   2.240  1.1727  0.4613  2.4550
20214TIP3   OH282132   3.423   2.417  14.922 -0.3922  0.2068  0.0168
20214TIP3    H182133   3.511   2.437  14.891  0.6915  1.4342  3.5024
20214TIP3    H282134   3.366   2.473  14.869  1.5014  3.6033  1.2750
20215TIP3   OH282135   5.513   1.746   2.968  0.1421 -0.1106  0.0901
20215TIP3    H182136   5.538   1.827   3.012  1.2678 -1.4204  1.9830
20215TIP3    H282137   5.511   1.769   2.875 -1.6722  2.6021  0.6876
20216TIP3   OH282138   3.342   2.857   4.377 -0.2274  0.2419  0.0634
20216TIP3    H182139   3.373   2.927   4.434  0.4536  0.3124 -0.3866
20216TIP3    H282140   3.284   2.805   4.433  0.6210  0.1649  0.8878
20217TIP3   OH282141   1.064   3.103  14.867  0.0202  0.1262 -0.7342
20217TIP3    H182142   1.133   3.080  14.806 -0.3075 -0.2412 -0.9744
20217TIP3    H282143   0.983   3.077  14.822 -0.3533  1.5196 -0.9116
20218TIP3   OH282144   5.619   1.507  11.042  0.4890  0.0597 -0.1451
20218TIP3    H182145   5.612   1.564  10.965  0.8461 -1.2443 -1.1833
20218TIP3    H282146   5.528   1.486  11.064  0.3896  0.2025 -0.4130
20219TIP3   OH282147   5.046   1.184  16.331  0.3087  0.0779 -0.0099
20219TIP3    H182148   5.097   1.106  16.310 -0.9875 -1.0487  0.8592
20219TIP3    H282149   5.069   1.205  16.421  2.0714  1.8864 -0.8079
20220TIP3   OH282150   4.750   2.844   3.775 -0.9567  0.4044 -0.0848
20220TIP3    H182151   4.675   2.893   3.740 -0.6137  0.5308 -0.6535
20220TIP3    H282152   4.825   2.876   3.725 -0.8467 -1.3600 -1.1197
20221TIP3   OH282153   1.033   0.636   1.331 -0.2256  0.1233  0.3662
20221TIP3    H182154   0.956   0.689   1.310 -0.6024 -0.8127 -0.7199
20221TIP3    H282155   1.006   0.546   1.314  0.1639 -0.5408  2.9068
20222TIP3   OH282156   6.775   2.671  16.789  0.3499 -0.2443 -0.7453
20222TIP3    H182157   6.769   2.586  16.834 -0.2152 -0.1995 -0.7240
20222TIP3    H282158   6.864   2.701  16.806  0.7804 -1.1410 -1.3076
20223TIP3   OH282159   3.058   3.369   3.338  0.0308  0.5608  0.0539
20223TIP3    H182160   3.022   3.289   3.376 -1.4651  1.8593  1.5530
20223TIP3    H282161   3.115   3.339   3.267 -2.7805 -1.7327 -1.4520
20224TIP3   OH282162   2.597   6.593   4.408  0.3737  0.3231 -0.0192
20224TIP3    H182163   2.653   6.642   4.468 -0.3955 -2.4754  3.3507
20224TIP3    H282164   2.517   6.644   4.401  0.7006  0.9728  0.9039
20225TIP3   OH282165   2.528   4.886   1.924 -1.0699  0.0905 -0.7064
20225TIP3    H182166   2.601   4.947   1.924 -2.0525  1.3621  0.5712
20225TIP3    H282167   2.566   4.802   1.901  0.5281  0.9780 -1.4311
20226TIP3   OH282168   1.818   2.924  11.012 -0.1291  0.1356  0.5240
20226TIP3    H182169   1.754   2.995  11.014  1.2853  1.5471 -1.1902
20226TIP3    H282170   1.866   2.937  10.930  0.3481 -2.6849  0.2460
20227TIP3   OH282171   6.607   3.616  14.198  0.0067  0.6312  0.5855
20227TIP3    H182172   6.626   3.650  14.111  0.6480  1.2893  0.9702
20227TIP3    H282173   6.583   3.525  14.183 -1.6675  1.2097 -0.4578
20228TIP3   OH282174   4.290   4.838   6.584 -0.0485 -0.2284 -0.5650
20228TIP3    H182175   4.251   4.912   6.538  0.4972  0.2689 -0.2553
20228TIP3    H282176   4.383   4.842   6.560 -0.0378 -0.8987 -0.6505
20229TIP3   OH282177   3.603   4.692   2.258  0.2934  0.1588  0.3294
20229TIP3    H182178   3.534   4.753   2.231  0.2420 -0.2070 -0.3741
20229TIP3    H282179   3.675   4.748   2.286  0.0535  0.5429  0.1835
20230TIP3   OH282180   1.477   2.350   4.797  0.3129  0.0227 -0.5564
20230TIP3    H182181   1.550   2.312   4.746  1.6836  1.2893  0.3884
20230TIP3    H282182   1.459   2.434   4.754  1.8060  1.3309  1.2341
20231TIP3   OH282183   3.125   5.212  14.683  0.1997 -0.0165 -0.2734
20231TIP3    H182184   3.090   5.129  14.716  1.9866 -0.1941  1.4050
20231TIP3    H282185   3.055   5.248  14.629 -0.8295 -2.3493 -0.6086
20232TIP3   OH282186   0.509   1.546   3.839 -0.1990  0.1230 -0.4018
20232TIP3    H182187   0.503   1.637   3.869  0.9503  0.7927 -2.0407
20232TIP3    H282188   0.418   1.517   3.831 -0.6007  0.2138  2.5499
20233TIP3   OH282189   3.340   4.767  15.871 -0.2414  0.1256 -0.5096
20233TIP3    H182190   3.355   4.847  15.920  0.0298 -0.2070 -0.0435
20233TIP3    H282191   3.335   4.698  15.937  1.8933 -0.6095 -1.0279
20234TIP3   OH282192   6.845   4.662  15.723 -0.0770  0.1154 -0.6461
20234TIP3    H182193   6.750   4.676  15.721  0.0918  1.3544 -0.6230
20234TIP3    H282194   6.868   4.639  15.632 -0.1922  1.3308 -0.9931
20235TIP3   OH282195   5.119   0.536  11.229 -0.2691 -0.0883 -0.2717
20235TIP3    H182196   5.151   0.605  11.287  1.0943 -1.5771  0.8436
20235TIP3    H282197   5.048   0.577  11.180 -1.7209  1.2007  2.6396
20236TIP3   OH282198   5.583   5.521  15.557 -0.1966 -0.1041 -0.0723
20236TIP3    H182199   5.506   5.570  15.527  0.0643 -0.1687 -0.8764
20236TIP3    H282200   5.657   5.567  15.517  0.1602 -0.2662  0.3921
20237TIP3   OH282201   2.440   5.283   0.044  0.8112 -0.0886  0.8005
20237TIP3    H182202   2.511   5.220   0.032  1.6052  0.4978  2.1806
20237TIP3    H282203   2.434   5.296   0.138 -0.1150  1.0235  0.6237
20238TIP3   OH282204   3.749   3.258  14.585 -0.1820 -0.1275 -0.0130
20238TIP3    H182205   3.826   3.202  14.582  0.1962  0.3323  0.9374
20238TIP3    H282206   3.742   3.294  14.496  1.1775  0.4640  0.1026
20239TIP3   OH282207   5.609   5.553   0.454 -0.0347  0.2322  0.6085
20239TIP3    H182208   5.673   5.535   0.385 -0.5895  0.2425  0.0891
20239TIP3    H282209   5.654   5.616   0.511 -0.1265  1.4527 -0.5946
20240TIP3   OH282210   4.489   0.409   3.867 -0.4971  0.1983  0.7023
20240TIP3    H182211   4.539   0.444   3.940  0.0289 -2.0282  1.5005
20240TIP3    H282212   4.549   0.411   3.793  1.0376 -2.6791  1.7059
20241TIP3   OH282213   5.125   5.975  15.875  0.3574 -0.2103  0.2643
20241TIP3    H182214   5.150   6.067  15.876 -1.9291  0.4797  0.2757
20241TIP3    H282215   5.169   5.936  15.950  3.1112  0.2938 -0.9516
20242TIP3   OH282216   5.388   0.182  11.158 -0.0344  0.4146  0.3747
20242TIP3    H182217   5.322   0.135  11.209  1.1120 -2.0109 -0.2196
20242TIP3    H282218   5.472   0.152  11.193  0.7724  1.8374 -0.2545
20243CLA    CLA82219   3.194   0.604  12.429 -0.0612  0.6390 -0.3432
20244LIG     O182220   3.526   3.518  16.834  0.1390  0.1300 -0.3077
20244LIG     O282221   3.368   3.487  16.624 -0.0684  0.4722  0.2068
20244LIG     O382222   3.393   3.677  16.923  0.4322  0.0984 -0.4184
20244LIG     O482223   3.175   3.423  16.937  0.3316 -0.5762 -0.4972
20244LIG     O582224   3.577   3.773  16.141  0.1813  0.1204  0.3347
20244LIG      N82225   3.875   3.552  16.807 -0.6005 -0.3477  0.2320
20244LIG     C182226   3.762   3.481  16.876  0.1853 -0.1851 -0.0390
20244LIG     C282227   3.799   3.661  16.743  0.4879 -0.7270  0.4533
20244LIG     C382228   3.639   3.571  16.901  0.1737 -0.1017  1.2580
20244LIG     C482229   3.680   3.696  16.829  0.6922  0.5741  0.3237
20244LIG     C582230   3.972   3.609  16.905 -0.0312  0.1238 -0.6720
20244LIG     C682231   3.937   3.465  16.705 -0.4604  0.1089  0.2333
20244LIG     C782232   3.413   3.585  16.847 -0.2043  0.7052 -0.1254
20244LIG     C882233   3.308   3.530  16.752  0.0371 -0.0421 -0.4237
20244LIG     C982234   3.170   3.619  16.737 -0.5820  0.3443 -0.6596
20244LIG    C1082235   3.270   3.409  16.835  0.4430  0.0222 -1.0160
20244LIG    C1182236   3.418   3.591  16.531  0.0475  0.1988 -0.6514
20244LIG    C1282237   3.049   3.563  16.691  0.6471 -0.4393  0.2940
20244LIG    C1382238   3.176   3.757  16.741 -0.4058  0.7052 -0.4927
20244LIG    C1482239   3.328   3.282  16.846  0.1262  0.0190 -0.0622
20244LIG    C1582240   3.539   3.544  16.451  0.0598 -0.0415 -0.2968
20244LIG    C1682241   3.605   3.641  16.343 -0.5035  0.6409 -0.3668
20244LIG    C1782242   3.270   3.216  16.952  0.5306  0.3073 -0.6056
20244LIG    C1882243   2.938   3.647  16.660  0.4149  0.4872  0.4086
20244LIG    C1982244   3.066   3.845  16.711  0.2473 -0.0883  0.2339
20244LIG    C2082245   3.179   3.304  17.004  0.2905 -0.1669  0.6811
20244LIG    C2182246   2.946   3.783  16.665 -0.7483 -0.0383 -0.6262
20244LIG    C2282247   3.511   3.679  16.223  0.4269 -0.2468  0.1679
20244LIG     H182248   3.791   3.424  16.967  1.4504 -2.9879 -2.0665
20244LIG     H282249   3.716   3.412  16.802 -0.6512 -0.4613  0.7179
20244LIG     H382250   3.743   3.641  16.649 -2.6954 -0.0068  2.0710
20244LIG     H482251   3.866   3.748  16.726  0.4619 -0.5234  1.3468
20244LIG     H582252   3.629   3.581  17.010  1.0373  0.4475  1.2973
20244LIG     H682253   3.601   3.733  16.762 -0.2682 -2.1382 -0.1765
20244LIG     H782254   3.695   3.779  16.899 -3.0033  0.5631  1.3880
20244LIG     H882255   3.924   3.678  16.973  0.2086  0.0909 -0.4680
20244LIG     H982256   4.056   3.658  16.858  1.3494 -1.8017 -0.3335
20244LIG    H1082257   4.008   3.528  16.967  0.9429  0.4223 -0.8310
20244LIG    H1182258   4.025   3.516  16.668  1.8036 -1.0228  3.5673
20244LIG    H1282259   3.863   3.449  16.627 -1.7501 -0.0778  1.4607
20244LIG    H1382260   3.970   3.369  16.743  2.3144  0.7905 -0.2656
20244LIG    H1482261   3.448   3.682  16.588  1.3367 -0.1175 -0.7837
20244LIG    H1582262   3.320   3.618  16.488 -1.2768  1.1156  2.6750
20244LIG    H1682263   3.037   3.456  16.685  0.7072 -0.3756 -2.4172
20244LIG    H1782264   3.254   3.807  16.798  0.3304 -1.4663  0.4897
20244LIG    H1882265   3.424   3.264  16.801 -0.4918 -0.9141 -1.0538
20244LIG    H1982266   3.504   3.459  16.390  0.8801 -1.5943  1.3145
20244LIG    H2082267   3.613   3.507  16.525 -1.0085 -1.1157  0.2548
20244LIG    H2182268   3.690   3.584  16.300  2.2293  3.5458  0.8102
20244LIG    H2282269   3.648   3.729  16.394 -1.5899  0.0743  1.6624
20244LIG    H2382270   3.298   3.119  16.992  2.7637  0.2667 -2.0700
20244LIG    H2482271   2.849   3.598  16.623 -0.0011  1.3117  0.3062
20244LIG    H2582272   3.077   3.949  16.736  0.0777 -0.3758  1.5784
20244LIG    H2682273   3.134   3.293  17.102  0.5498  0.6343  0.8916
20244LIG    H2782274   2.859   3.844  16.650  0.3932  1.8802  0.2174
20244LIG    H2882275   3.482   3.591  16.162 -1.0333  0.8902 -0.8461
20244LIG    H2982276   3.422   3.731  16.266  1.5983  1.4331  0.6605
20244LIG    H3082277   3.515   3.787  16.069 -0.5978  0.4096  1.0422
   6.85561   6.85561  17.12653
